Title
81310
    1CHL1    C3    1   0.778   3.382  10.466 -0.0933 -0.5405 -0.0226
    1CHL1    H3    2   0.675   3.376  10.424 -0.6065 -1.1106  1.2574
    1CHL1    O3    3   0.769   3.367  10.607  1.1232  0.3786  0.3758
    1CHL1   H3'    4   0.838   3.425  10.641  2.2721 -0.5586 -0.2688
    1CHL1    C4    5   0.868   3.274  10.408 -0.1200 -0.2047  0.0723
    1CHL1   H4A    6   0.970   3.263  10.450  0.2458 -1.5635 -1.0992
    1CHL1   H4B    7   0.828   3.172  10.430  2.1609 -0.8180  1.7324
    1CHL1    C5    8   0.863   3.284  10.258  0.3207  0.0576  0.9673
    1CHL1    C6    9   0.806   3.183  10.180 -0.2444  0.1757 -0.0483
    1CHL1    H6   10   0.770   3.090  10.225  2.1501 -0.5476  0.5462
    1CHL1    C7   11   0.812   3.186  10.026  0.7266  0.3005  0.1404
    1CHL1   H7A   12   0.837   3.084   9.991 -2.0456 -0.0303 -1.1903
    1CHL1   H7B   13   0.716   3.208   9.973  0.9817 -1.3809 -1.0879
    1CHL1    C8   14   0.912   3.295   9.977 -0.2953 -0.4204  0.8171
    1CHL1    H8   15   1.007   3.244  10.005  0.4879 -0.5104 -1.7488
    1CHL1   C14   16   0.896   3.314   9.832  0.2475  0.3165 -0.2015
    1CHL1   H14   17   0.791   3.348   9.819 -0.7594 -2.1079  0.9890
    1CHL1   C15   18   0.883   3.188   9.740  0.1299  0.1978  0.2707
    1CHL1  H15A   19   0.966   3.118   9.762  1.3340  1.3139 -0.5811
    1CHL1  H15B   20   0.796   3.120   9.753  0.8965 -0.6383  1.1854
    1CHL1   C16   21   0.889   3.246   9.598 -0.8630  0.3796 -0.0555
    1CHL1  H16A   22   0.956   3.179   9.540  0.8381  0.7288  1.4298
    1CHL1  H16B   23   0.788   3.255   9.550 -1.0014 -0.2784  0.1001
    1CHL1   C17   24   0.948   3.388   9.608 -0.9426 -0.5943 -0.0721
    1CHL1   H17   25   0.858   3.452   9.599 -1.5302 -1.2806  0.7782
    1CHL1   C13   26   0.982   3.417   9.762  0.2869  0.2290 -0.2251
    1CHL1   C18   27   1.126   3.363   9.784 -0.4534  0.3514 -1.0766
    1CHL1  H18A   28   1.147   3.343   9.892  0.9301 -2.0543 -1.7078
    1CHL1  H18B   29   1.136   3.265   9.733 -0.1759 -0.9179  1.2426
    1CHL1  H18C   30   1.198   3.436   9.742  1.2627 -0.6605 -0.0034
    1CHL1   C12   31   0.962   3.555   9.827 -0.0338  0.2033  0.2413
    1CHL1  H12A   32   1.036   3.620   9.775  2.3781 -2.1621  0.5504
    1CHL1  H12B   33   0.862   3.603   9.814 -0.5597 -0.9440 -0.0306
    1CHL1   C11   34   0.976   3.548   9.980 -0.1642 -0.1439  0.2501
    1CHL1  H11A   35   1.083   3.521   9.989 -0.3202 -1.2360 -0.8901
    1CHL1  H11B   36   0.942   3.637  10.037 -1.2350 -0.5820  0.3125
    1CHL1    C9   37   0.901   3.428  10.049 -0.4628  0.0247  0.7674
    1CHL1    H9   38   0.796   3.461  10.035 -0.2587  1.3208  1.9945
    1CHL1   C10   39   0.917   3.413  10.203  0.4515  0.4372  0.1014
    1CHL1   C19   40   1.063   3.409  10.236 -0.7449  0.6161 -0.1271
    1CHL1  H19A   41   1.123   3.487  10.185  1.1050  0.1600  1.2063
    1CHL1  H19B   42   1.076   3.415  10.347 -0.6461  2.1690 -0.2084
    1CHL1  H19C   43   1.109   3.315  10.197 -0.5554  1.2089 -1.3558
    1CHL1    C1   44   0.849   3.528  10.276 -0.2955  0.4892  0.3583
    1CHL1   H1A   45   0.892   3.629  10.259 -2.0924  1.4975  1.4731
    1CHL1   H1B   46   0.746   3.546  10.238 -0.0313  1.6026  0.1381
    1CHL1    C2   47   0.840   3.515  10.429 -0.2927 -0.4539  0.9062
    1CHL1   H2A   48   0.780   3.599  10.472  0.7215  0.2201  1.0373
    1CHL1   H2B   49   0.939   3.529  10.477  0.0373 -1.4203  0.5141
    1CHL1   C20   50   1.044   3.432   9.494  0.8370 -0.2237  0.5927
    1CHL1   H20   51   1.138   3.374   9.507  0.5332 -0.6764  0.8022
    1CHL1   C21   52   1.085   3.581   9.502  0.3540 -0.2890  0.0409
    1CHL1  H21A   53   0.994   3.644   9.507  0.1674 -0.6669  1.7633
    1CHL1  H21B   54   1.144   3.621   9.416 -1.2799  3.3249  0.4150
    1CHL1  H21C   55   1.136   3.588   9.600  0.8191 -2.3131 -0.0149
    1CHL1   C22   56   0.989   3.404   9.353  0.2425 -0.1797 -0.3308
    1CHL1  H22A   57   0.957   3.298   9.354  0.3079 -0.1995  0.0079
    1CHL1  H22B   58   0.898   3.467   9.341 -0.1720 -0.1937  2.1893
    1CHL1   C23   59   1.074   3.424   9.226  0.2578 -0.0290  0.1117
    1CHL1  H23A   60   1.180   3.418   9.260  0.5642  0.2419 -0.7760
    1CHL1  H23B   61   1.056   3.336   9.161  1.9868 -1.2132  1.1472
    1CHL1   C24   62   1.034   3.549   9.150  0.0680 -0.1334 -0.0163
    1CHL1  H24A   63   0.928   3.546   9.115 -1.1061 -0.0675  3.1927
    1CHL1  H24B   64   1.049   3.631   9.223 -0.2761  0.2739 -0.3897
    1CHL1   C25   65   1.136   3.584   9.041  0.2129  0.0055 -0.4324
    1CHL1   H25   66   1.237   3.568   9.084  0.2671  2.7325  0.6264
    1CHL1   C26   67   1.123   3.502   8.912  0.5982 -0.2416  0.4962
    1CHL1  H26A   68   1.024   3.526   8.866  0.9589 -0.1214 -0.2308
    1CHL1  H26B   69   1.200   3.544   8.844  0.0055  2.6004  1.4016
    1CHL1  H26C   70   1.126   3.392   8.927 -3.9255 -0.3504  2.2625
    1CHL1   C27   71   1.132   3.732   8.996 -0.3287 -0.2866  0.1181
    1CHL1  H27A   72   1.193   3.790   9.069 -1.6491  2.4710 -0.8362
    1CHL1  H27B   73   1.192   3.752   8.904  0.7472 -1.6791  0.4847
    1CHL1  H27C   74   1.029   3.772   8.998 -0.7144 -1.2910  1.3926
    2CHL1    C3   75   2.310   1.628  10.142  0.2310 -0.0087 -0.8907
    2CHL1    H3   76   2.371   1.540  10.113 -1.4893 -1.7458  0.5314
    2CHL1    O3   77   2.319   1.651  10.285 -0.4279 -0.2152  0.7883
    2CHL1   H3'   78   2.263   1.586  10.328  1.3354 -1.3488  1.5082
    2CHL1    C4   79   2.354   1.759  10.064  0.0978 -0.1929  0.3429
    2CHL1   H4A   80   2.290   1.844  10.096  0.2383 -0.0544  0.2562
    2CHL1   H4B   81   2.456   1.790  10.094  0.5180 -1.7363  0.6108
    2CHL1    C5   82   2.345   1.748   9.914  0.7600  0.0833  0.9272
    2CHL1    C6   83   2.446   1.764   9.832 -0.1342 -0.2024  0.1666
    2CHL1    H6   84   2.540   1.797   9.878 -0.8041 -0.0837  1.4856
    2CHL1    C7   85   2.442   1.741   9.681 -0.2459  0.0469 -0.0514
    2CHL1   H7A   86   2.474   1.835   9.630 -1.1078  0.3223 -0.1008
    2CHL1   H7B   87   2.494   1.645   9.664 -2.7773 -1.4599  0.2016
    2CHL1    C8   88   2.300   1.722   9.621  0.1445 -0.0701  0.5068
    2CHL1    H8   89   2.257   1.823   9.609 -1.3034 -0.5998  1.0172
    2CHL1   C14   90   2.302   1.650   9.489 -0.3183 -0.6253  0.8791
    2CHL1   H14   91   2.333   1.547   9.518  0.4857 -0.6292  0.0553
    2CHL1   C15   92   2.394   1.709   9.390  0.1337  0.5341  0.6041
    2CHL1  H15A   93   2.380   1.819   9.384 -2.4599  0.2481 -0.0993
    2CHL1  H15B   94   2.499   1.694   9.420  0.5685  0.7784 -0.7165
    2CHL1   C16   95   2.354   1.636   9.257  0.4867 -0.0018  0.4701
    2CHL1  H16A   96   2.342   1.716   9.180  0.1031 -1.7258 -1.3567
    2CHL1  H16B   97   2.421   1.555   9.221 -1.4957 -0.8992 -1.4955
    2CHL1   C17   98   2.220   1.561   9.288  0.1355  0.6723  0.2358
    2CHL1   H17   99   2.251   1.457   9.311  2.4689  1.2573  0.0190
    2CHL1   C13  100   2.168   1.631   9.420  0.2589 -0.0717  0.5520
    2CHL1   C18  101   2.105   1.769   9.382 -0.3819 -0.4266  0.6376
    2CHL1  H18A  102   2.158   1.820   9.298  0.5936  1.4949  2.3239
    2CHL1  H18B  103   2.005   1.754   9.335  1.0847 -2.2363 -2.2276
    2CHL1  H18C  104   2.090   1.833   9.472  1.4898  0.0655  0.6576
    2CHL1   C12  105   2.082   1.538   9.516 -0.7340  0.3764  0.0029
    2CHL1  H12A  106   1.983   1.510   9.473  0.1723 -3.4264  0.0378
    2CHL1  H12B  107   2.149   1.451   9.527  2.4919  2.1475 -3.2791
    2CHL1   C11  108   2.073   1.604   9.663 -0.2822  0.0760  0.0673
    2CHL1  H11A  109   2.015   1.696   9.643  0.7577  0.2523 -2.5430
    2CHL1  H11B  110   2.021   1.530   9.727  1.8373 -2.7587 -1.2458
    2CHL1    C9  111   2.213   1.636   9.716  0.3272  0.2712 -0.0744
    2CHL1    H9  112   2.267   1.540   9.730  1.6454  0.9742 -0.1653
    2CHL1   C10  113   2.203   1.691   9.867  0.1784  0.4516  0.7987
    2CHL1   C19  114   2.113   1.813   9.869 -0.1375  0.0752  0.0442
    2CHL1  H19A  115   2.128   1.865   9.772  0.9930 -2.6554 -1.3573
    2CHL1  H19B  116   2.005   1.786   9.870 -0.3656  0.9146 -0.7713
    2CHL1  H19C  117   2.130   1.875   9.960 -1.1157  0.2545  0.1154
    2CHL1    C1  118   2.147   1.585   9.966 -0.4453 -0.0781  0.5503
    2CHL1   H1A  119   2.039   1.566   9.950 -0.9985  2.1829  1.2506
    2CHL1   H1B  120   2.204   1.495   9.934 -0.6232  0.9039 -2.8508
    2CHL1    C2  121   2.166   1.605  10.117 -0.5363 -0.2423  0.0729
    2CHL1   H2A  122   2.130   1.518  10.177 -0.0851 -0.1283  0.5150
    2CHL1   H2B  123   2.109   1.693  10.151  0.3578  0.1715  0.5383
    2CHL1   C20  124   2.129   1.566   9.164  0.5391 -0.4114  0.3731
    2CHL1   H20  125   2.094   1.669   9.141 -1.5913 -0.9061  1.1403
    2CHL1   C21  126   2.001   1.488   9.201  0.4887 -0.5622  0.8839
    2CHL1  H21A  127   2.032   1.396   9.255  0.8088 -2.1257 -1.7835
    2CHL1  H21B  128   1.937   1.474   9.111  0.6446 -0.5822  0.7754
    2CHL1  H21C  129   1.941   1.547   9.275  2.1600  2.7421 -0.1907
    2CHL1   C22  130   2.200   1.498   9.039 -0.7761  0.1505 -0.0497
    2CHL1  H22A  131   2.298   1.548   9.023 -0.8222 -0.2143 -1.6996
    2CHL1  H22B  132   2.213   1.388   9.055 -2.2388 -0.1423 -0.6825
    2CHL1   C23  133   2.131   1.514   8.898 -0.3438 -0.1796 -1.1723
    2CHL1  H23A  134   2.027   1.480   8.919 -0.1600 -0.4401 -0.6588
    2CHL1  H23B  135   2.121   1.623   8.877 -0.0681 -0.2354 -1.5942
    2CHL1   C24  136   2.189   1.428   8.783  0.0402  0.2218  0.5589
    2CHL1  H24A  137   2.278   1.481   8.743 -0.6779  0.0920 -1.3033
    2CHL1  H24B  138   2.213   1.323   8.812  0.2037 -0.4640 -1.8505
    2CHL1   C25  139   2.088   1.396   8.676 -0.9278  0.5168  0.4502
    2CHL1   H25  140   2.001   1.341   8.719  1.2089 -2.3219  1.4081
    2CHL1   C26  141   2.051   1.516   8.599  0.5300  0.0522 -0.5824
    2CHL1  H26A  142   1.968   1.488   8.530 -1.1236  0.4371  1.1441
    2CHL1  H26B  143   2.001   1.587   8.668 -3.5579 -1.9825 -1.1255
    2CHL1  H26C  144   2.130   1.580   8.555  0.4576  1.3561  1.1024
    2CHL1   C27  145   2.144   1.301   8.573 -0.2056  0.2203 -0.3214
    2CHL1  H27A  146   2.075   1.259   8.496  0.4136 -0.9225 -0.2696
    2CHL1  H27B  147   2.225   1.346   8.512  0.3488  0.0044  0.2454
    2CHL1  H27C  148   2.182   1.212   8.629  0.9153  0.7796 -0.1756
    3CHL1    C3  149   3.204   1.502  10.335  0.4542 -0.3175  0.0631
    3CHL1    H3  150   3.105   1.551  10.322 -0.0880 -1.1420  0.9541
    3CHL1    O3  151   3.214   1.455  10.468 -0.1226 -0.8225 -0.8173
    3CHL1   H3'  152   3.275   1.520  10.504 -0.7672  0.1772 -1.4809
    3CHL1    C4  153   3.218   1.381  10.238 -0.8342  0.5216 -0.0360
    3CHL1   H4A  154   3.319   1.343  10.265  0.5543  3.7285 -0.2150
    3CHL1   H4B  155   3.134   1.310  10.253 -1.3017  0.5670 -2.0988
    3CHL1    C5  156   3.225   1.414  10.086  0.6485 -0.0289  0.0389
    3CHL1    C6  157   3.144   1.360   9.989 -0.5609  1.0235  0.3725
    3CHL1    H6  158   3.068   1.287  10.018  2.2743 -1.2410  2.7990
    3CHL1    C7  159   3.148   1.391   9.840 -0.1926 -0.3592 -0.3799
    3CHL1   H7A  160   3.152   1.305   9.769 -0.4266  0.4710 -1.4233
    3CHL1   H7B  161   3.062   1.458   9.818  0.1877  0.4941  0.6491
    3CHL1    C8  162   3.275   1.471   9.808 -0.0041  0.2382  0.4814
    3CHL1    H8  163   3.360   1.400   9.816  0.2867  0.2918 -1.6601
    3CHL1   C14  164   3.264   1.526   9.661  1.0419 -0.2595  0.3289
    3CHL1   H14  165   3.195   1.612   9.673  1.2124 -0.1981  0.8533
    3CHL1   C15  166   3.195   1.440   9.551  0.6916 -0.1778 -0.3451
    3CHL1  H15A  167   3.232   1.335   9.554 -1.1031 -0.8320  0.3557
    3CHL1  H15B  168   3.086   1.439   9.570  1.1139 -1.2363  2.4021
    3CHL1   C16  169   3.242   1.505   9.419  0.6063 -0.1626 -0.2913
    3CHL1  H16A  170   3.285   1.425   9.356  1.2979 -0.8946  1.0785
    3CHL1  H16B  171   3.174   1.548   9.342  1.8758 -3.3601 -3.5137
    3CHL1   C17  172   3.341   1.619   9.456  0.1482  0.3152 -0.0899
    3CHL1   H17  173   3.290   1.718   9.457  3.0309  2.0662 -3.4021
    3CHL1   C13  174   3.390   1.591   9.602  0.1036  0.1810  0.3105
    3CHL1   C18  175   3.508   1.489   9.590  0.4506 -0.4322 -1.5708
    3CHL1  H18A  176   3.590   1.526   9.525  1.1179 -1.2022 -1.1836
    3CHL1  H18B  177   3.542   1.456   9.691 -4.8370 -0.2972  0.5478
    3CHL1  H18C  178   3.471   1.396   9.543 -0.9448 -0.3988 -0.5881
    3CHL1   C12  179   3.426   1.708   9.699  0.0258 -0.4416  0.6005
    3CHL1  H12A  180   3.526   1.753   9.683 -1.7478  3.4192 -0.7712
    3CHL1  H12B  181   3.354   1.793   9.695  0.3991 -0.0688  1.4295
    3CHL1   C11  182   3.428   1.663   9.851 -0.2681 -0.2135 -0.1376
    3CHL1  H11A  183   3.522   1.605   9.855  1.0791  1.9275  1.0699
    3CHL1  H11B  184   3.435   1.754   9.915  0.4146  0.5541 -1.2703
    3CHL1    C9  185   3.309   1.576   9.908 -0.6295 -0.7935  0.3189
    3CHL1    H9  186   3.227   1.650   9.898  0.4265  0.2010 -1.9065
    3CHL1   C10  187   3.332   1.527  10.051  0.1393  0.4255 -0.1404
    3CHL1   C19  188   3.475   1.461  10.068 -0.5555 -0.3933 -0.0855
    3CHL1  H19A  189   3.492   1.400   9.977 -1.5648  0.7991 -1.1194
    3CHL1  H19B  190   3.558   1.533  10.078 -0.4474 -0.6129  0.6437
    3CHL1  H19C  191   3.482   1.391  10.153 -1.7357 -0.3422  0.0723
    3CHL1    C1  192   3.315   1.645  10.152 -0.1045  0.5996 -0.0865
    3CHL1   H1A  193   3.395   1.721  10.142  1.1732 -0.8941 -2.2099
    3CHL1   H1B  194   3.223   1.702  10.124 -1.8628 -2.1400 -0.2073
    3CHL1    C2  195   3.309   1.607  10.303  0.3000  0.5363  0.6741
    3CHL1   H2A  196   3.288   1.698  10.362 -1.6151  0.2918  0.4492
    3CHL1   H2B  197   3.408   1.569  10.336  0.4324 -0.2111 -0.5262
    3CHL1   C20  198   3.449   1.649   9.355  0.3630 -0.3279 -0.0919
    3CHL1   H20  199   3.514   1.559   9.346  0.2014 -0.4915  0.3598
    3CHL1   C21  200   3.524   1.775   9.392 -0.4993 -0.0633 -0.0147
    3CHL1  H21A  201   3.576   1.805   9.299 -1.5515 -0.3048 -0.6989
    3CHL1  H21B  202   3.606   1.759   9.464  1.3443  1.8843 -1.5611
    3CHL1  H21C  203   3.466   1.863   9.426 -0.4538 -0.7170  1.8926
    3CHL1   C22  204   3.395   1.665   9.207  0.0639 -0.4565  0.7334
    3CHL1  H22A  205   3.487   1.689   9.150  0.1580 -2.7184 -0.1564
    3CHL1  H22B  206   3.360   1.570   9.162 -0.1888 -0.5931  1.2017
    3CHL1   C23  207   3.309   1.791   9.181  0.0246  0.0099 -0.5960
    3CHL1  H23A  208   3.215   1.789   9.240  0.3217  1.3494 -0.0297
    3CHL1  H23B  209   3.366   1.884   9.205 -0.0949  0.6398 -2.6140
    3CHL1   C24  210   3.270   1.793   9.037  0.0799 -0.3854 -0.0362
    3CHL1  H24A  211   3.367   1.803   8.984  0.3469 -0.2378  0.4680
    3CHL1  H24B  212   3.230   1.696   9.003 -1.7784  0.1083  0.5960
    3CHL1   C25  213   3.176   1.904   8.995  0.1718  0.1653 -0.6525
    3CHL1   H25  214   3.076   1.889   9.041  0.5871  1.1642  0.6355
    3CHL1   C26  215   3.219   2.049   9.047 -0.8752  1.2093 -0.3181
    3CHL1  H26A  216   3.330   2.058   9.041 -0.3885 -2.4863  0.5239
    3CHL1  H26B  217   3.167   2.118   8.977  1.1476  1.2473 -1.8857
    3CHL1  H26C  218   3.188   2.066   9.152  1.0349 -0.9211  0.6982
    3CHL1   C27  219   3.175   1.916   8.842 -0.2284  0.3657  0.4417
    3CHL1  H27A  220   3.165   1.815   8.797  2.4692  0.1628  0.1192
    3CHL1  H27B  221   3.101   1.993   8.812 -0.4208 -0.0872 -0.2634
    3CHL1  H27C  222   3.273   1.953   8.806 -1.0928  1.1401 -1.2383
    4CHL1    C3  223   3.381   4.697  10.640 -0.2519 -0.3510  0.5065
    4CHL1    H3  224   3.389   4.800  10.600 -1.7419  0.3026  1.7959
    4CHL1    O3  225   3.438   4.694  10.764 -0.5207  0.0994  0.2073
    4CHL1   H3'  226   3.452   4.600  10.780 -0.6026  0.2818  1.3958
    4CHL1    C4  227   3.231   4.660  10.641  0.1636  0.2196  0.7915
    4CHL1   H4A  228   3.218   4.567  10.701 -0.5616 -0.5264 -0.4855
    4CHL1   H4B  229   3.183   4.746  10.692  1.9978  0.6743  1.8509
    4CHL1    C5  230   3.177   4.640  10.495  0.0319 -0.5650  0.3343
    4CHL1    C6  231   3.062   4.699  10.454  0.8044  0.3261  0.2168
    4CHL1    H6  232   3.009   4.760  10.529  0.7216 -1.8956  2.0616
    4CHL1    C7  233   2.993   4.692  10.323 -0.7266  0.5880  0.0425
    4CHL1   H7A  234   2.889   4.657  10.336 -0.6720  0.9031  1.4518
    4CHL1   H7B  235   3.002   4.789  10.270  2.4299 -0.6668 -2.0578
    4CHL1    C8  236   3.066   4.578  10.234  0.7754  0.0201 -0.2302
    4CHL1    H8  237   3.028   4.480  10.268  3.3298 -1.6804 -1.9383
    4CHL1   C14  238   3.042   4.599  10.088 -0.2726  0.4517 -0.1867
    4CHL1   H14  239   3.093   4.692  10.053  0.7581 -0.3407 -0.8804
    4CHL1   C15  240   2.895   4.605  10.046 -0.1117 -0.5770 -0.1462
    4CHL1  H15A  241   2.841   4.518  10.089 -0.1653 -0.2683  0.4223
    4CHL1  H15B  242   2.836   4.685  10.097  1.3879 -0.0130  0.7687
    4CHL1   C16  243   2.901   4.602   9.892  1.0642 -0.5993 -0.3441
    4CHL1  H16A  244   2.820   4.538   9.852 -0.2202  1.1245 -0.6260
    4CHL1  H16B  245   2.886   4.705   9.854  1.2899 -0.2338  0.5257
    4CHL1   C17  246   3.038   4.538   9.851  0.7450 -0.3974 -0.0119
    4CHL1   H17  247   3.103   4.624   9.823  0.3549  0.1159  0.6372
    4CHL1   C13  248   3.102   4.498   9.986  0.7739  0.6453 -0.5285
    4CHL1   C18  249   3.036   4.363  10.015 -0.8143  0.2751 -0.3887
    4CHL1  H18A  250   2.936   4.364   9.969 -1.0100  1.4236  0.0112
    4CHL1  H18B  251   3.098   4.286   9.965  0.6052  1.6168 -0.7756
    4CHL1  H18C  252   3.032   4.342  10.124  0.7475  0.8505 -0.1906
    4CHL1   C12  253   3.255   4.496  10.017 -0.0856 -0.0984 -0.2210
    4CHL1  H12A  254   3.290   4.414   9.951  2.6414  1.8896 -1.4598
    4CHL1  H12B  255   3.307   4.592   9.992  2.8210 -1.1671  1.2676
    4CHL1   C11  256   3.280   4.462  10.162 -0.5614 -0.0511  0.3636
    4CHL1  H11A  257   3.259   4.357  10.194  0.4593 -0.8009 -1.2860
    4CHL1  H11B  258   3.391   4.463  10.154 -0.4345 -3.5885 -0.3806
    4CHL1    C9  259   3.218   4.570  10.248  0.3901  0.1922 -0.8746
    4CHL1    H9  260   3.260   4.663  10.205  0.4333 -0.1773 -1.6444
    4CHL1   C10  261   3.265   4.560  10.400 -0.6475  0.0014  0.3008
    4CHL1   C19  262   3.251   4.412  10.441 -0.3517  0.4322 -0.1346
    4CHL1  H19A  263   3.343   4.359  10.410  0.5552  0.5143  2.2126
    4CHL1  H19B  264   3.252   4.387  10.549 -3.0232 -4.3204 -0.9257
    4CHL1  H19C  265   3.161   4.364  10.397 -0.8005 -0.2755  1.4852
    4CHL1    C1  266   3.413   4.608  10.405 -0.4249  0.3911 -0.6010
    4CHL1   H1A  267   3.471   4.529  10.354  0.7827 -0.4007  1.8265
    4CHL1   H1B  268   3.427   4.709  10.361  0.1545  0.2750 -0.6904
    4CHL1    C2  269   3.467   4.607  10.555  0.0005  0.0366 -0.1748
    4CHL1   H2A  270   3.571   4.647  10.551  0.2240 -0.4134  0.9319
    4CHL1   H2B  271   3.465   4.501  10.586  2.8470 -0.1595 -0.4022
    4CHL1   C20  272   3.033   4.444   9.731 -0.3655  0.1330  0.2014
    4CHL1   H20  273   2.982   4.350   9.759 -2.6208  1.1764 -0.1245
    4CHL1   C21  274   3.168   4.429   9.682 -0.0608  0.6640 -0.1601
    4CHL1  H21A  275   3.172   4.336   9.622  0.1396  0.6610 -0.1417
    4CHL1  H21B  276   3.249   4.414   9.757 -1.5945  0.1064  1.4459
    4CHL1  H21C  277   3.211   4.516   9.628  2.1165 -0.2702 -0.0424
    4CHL1   C22  278   2.942   4.504   9.614  0.8046  0.0670 -0.5872
    4CHL1  H22A  279   2.834   4.504   9.642  0.6001 -0.1643 -1.3404
    4CHL1  H22B  280   2.974   4.607   9.591 -1.1075  0.4470 -1.7563
    4CHL1   C23  281   2.937   4.423   9.481  0.7308 -0.1007  0.2518
    4CHL1  H23A  282   3.040   4.407   9.444  0.7986 -1.3190  0.9185
    4CHL1  H23B  283   2.908   4.318   9.503  1.1207 -0.1959  0.3236
    4CHL1   C24  284   2.841   4.487   9.382 -0.5182  0.1210 -0.2212
    4CHL1  H24A  285   2.859   4.596   9.382 -1.8190  0.3533  0.9831
    4CHL1  H24B  286   2.866   4.439   9.284 -0.1526  1.2585 -0.6989
    4CHL1   C25  287   2.692   4.461   9.400  0.3069 -0.6547  0.3364
    4CHL1   H25  288   2.659   4.499   9.500  1.3275  1.8915 -0.2253
    4CHL1   C26  289   2.606   4.537   9.287  0.3631 -0.0059 -0.6010
    4CHL1  H26A  290   2.627   4.480   9.194  2.3190 -0.5401  0.1128
    4CHL1  H26B  291   2.498   4.537   9.312  0.2017 -0.0928 -1.2598
    4CHL1  H26C  292   2.640   4.642   9.279 -1.9198  0.8008 -0.1846
    4CHL1   C27  293   2.660   4.314   9.384 -0.0385  0.1956 -0.2806
    4CHL1  H27A  294   2.716   4.265   9.302 -2.5282 -2.3238 -0.6331
    4CHL1  H27B  295   2.687   4.264   9.480  1.1150 -0.3308 -0.8542
    4CHL1  H27C  296   2.555   4.285   9.365  0.8021 -2.4763 -1.2604
    5CHL1    C3  297   3.921   1.343  10.419 -0.3608  0.0532  0.3163
    5CHL1    H3  298   4.010   1.403  10.388 -0.8656  0.6181 -0.0689
    5CHL1    O3  299   3.900   1.363  10.554  0.5074  0.0271 -0.6408
    5CHL1   H3'  300   3.952   1.295  10.597 -0.4233  0.5201  1.4317
    5CHL1    C4  301   3.795   1.395  10.346 -0.0027 -0.3249  0.4153
    5CHL1   H4A  302   3.705   1.335  10.370 -1.3431  1.6479  0.5274
    5CHL1   H4B  303   3.772   1.499  10.376  0.9202 -0.2314  0.8503
    5CHL1    C5  304   3.822   1.383  10.196  0.2213 -0.4687 -0.6816
    5CHL1    C6  305   3.839   1.493  10.121  0.7554  0.2701 -0.1569
    5CHL1    H6  306   3.821   1.589  10.172  0.7732  0.2549 -0.1226
    5CHL1    C7  307   3.876   1.486   9.976  0.0266 -0.2006  0.3411
    5CHL1   H7A  308   3.800   1.537   9.913  0.2916 -1.2221 -0.8458
    5CHL1   H7B  309   3.975   1.523   9.941 -1.3766  0.9033 -2.9132
    5CHL1    C8  310   3.857   1.344   9.914  0.5919  0.3617 -0.5426
    5CHL1    H8  311   3.749   1.326   9.897  0.6483 -0.4350 -0.1476
    5CHL1   C14  312   3.933   1.332   9.781 -0.2150 -0.3207  0.2304
    5CHL1   H14  313   4.041   1.319   9.806  0.5469  2.7689 -1.0230
    5CHL1   C15  314   3.925   1.448   9.676 -0.2756 -0.7883  0.2302
    5CHL1  H15A  315   3.824   1.493   9.670  0.0970  0.3368  1.8490
    5CHL1  H15B  316   4.003   1.522   9.703  0.2350 -0.8541 -0.9755
    5CHL1   C16  317   3.962   1.381   9.539 -0.2489 -0.4914  0.3829
    5CHL1  H16A  318   3.870   1.400   9.480 -0.2314  0.3904  0.6258
    5CHL1  H16B  319   4.047   1.429   9.485 -3.4499  1.5798 -3.3216
    5CHL1   C17  320   3.987   1.235   9.562 -0.4205  0.4949  0.5529
    5CHL1   H17  321   4.094   1.224   9.589 -0.5771  0.2326  1.0724
    5CHL1   C13  322   3.903   1.206   9.693  0.9223  0.5464 -0.6529
    5CHL1   C18  323   3.752   1.196   9.654  0.3549 -0.6189 -0.0058
    5CHL1  H18A  324   3.724   1.265   9.572  0.3383  1.1509  1.4282
    5CHL1  H18B  325   3.735   1.092   9.618  0.6921 -0.8988  0.6283
    5CHL1  H18C  326   3.685   1.226   9.737  1.8116  3.0413  0.0175
    5CHL1   C12  327   3.948   1.085   9.781 -0.6809  0.4018 -0.0592
    5CHL1  H12A  328   3.919   0.992   9.728  0.0983  1.6163 -2.7910
    5CHL1  H12B  329   4.058   1.098   9.791 -0.3895 -1.3147 -0.8043
    5CHL1   C11  330   3.879   1.092   9.924 -0.5695 -0.5463  0.3543
    5CHL1  H11A  331   3.770   1.082   9.901 -0.2874 -1.0962 -0.8407
    5CHL1  H11B  332   3.907   0.996   9.973  1.6397  0.0452  0.3447
    5CHL1    C9  333   3.904   1.225  10.004 -0.4694  0.4193  0.3426
    5CHL1    H9  334   4.014   1.238  10.015 -0.2984 -1.5506  1.3496
    5CHL1   C10  335   3.855   1.240  10.149  0.0476 -0.2646  0.1008
    5CHL1   C19  336   3.726   1.158  10.166  0.0551  0.1316  0.4775
    5CHL1  H19A  337   3.655   1.179  10.083  1.9946  0.3440 -1.1933
    5CHL1  H19B  338   3.752   1.051  10.150 -1.1724  0.0705 -1.3543
    5CHL1  H19C  339   3.685   1.167  10.269 -1.8579 -1.5545 -0.0678
    5CHL1    C1  340   3.963   1.184  10.235  0.1009 -0.3565 -0.5147
    5CHL1   H1A  341   3.984   1.077  10.216 -1.3447 -1.0180  1.3373
    5CHL1   H1B  342   4.061   1.233  10.216  0.9488 -2.7545 -3.0525
    5CHL1    C2  343   3.939   1.195  10.388 -0.6047  0.0261  0.1270
    5CHL1   H2A  344   4.024   1.158  10.449  0.6388  2.8984  0.3185
    5CHL1   H2B  345   3.849   1.135  10.416 -0.8441 -0.4471 -1.5729
    5CHL1   C20  346   3.966   1.156   9.432 -0.5691  0.1054 -1.0790
    5CHL1   H20  347   3.857   1.158   9.411 -0.8238  0.1055  0.1649
    5CHL1   C21  348   4.003   1.014   9.462  0.8209 -0.1301 -0.1368
    5CHL1  H21A  349   3.929   0.960   9.525 -0.2680  1.6497  0.1530
    5CHL1  H21B  350   4.098   1.008   9.520  1.3858  1.2775 -0.8919
    5CHL1  H21C  351   4.023   0.964   9.365 -1.0461 -0.6854 -0.2765
    5CHL1   C22  352   4.030   1.218   9.304 -0.3721 -0.0742  0.1068
    5CHL1  H22A  353   4.020   1.328   9.300 -1.2728  0.0590  3.0103
    5CHL1  H22B  354   4.135   1.185   9.318  0.1995  0.2499 -2.8838
    5CHL1   C23  355   3.983   1.162   9.169 -0.2340  0.0745 -0.3336
    5CHL1  H23A  356   3.996   1.052   9.175  0.1022  0.1668  1.0564
    5CHL1  H23B  357   3.877   1.191   9.153  0.0395  0.3656 -1.7279
    5CHL1   C24  358   4.067   1.206   9.056 -0.0967  0.2417 -0.3146
    5CHL1  H24A  359   4.086   1.316   9.061  3.1335 -0.2166 -0.0172
    5CHL1  H24B  360   4.170   1.170   9.079 -0.2754  0.0019  0.1323
    5CHL1   C25  361   4.014   1.175   8.921 -1.0039 -0.0820  0.2546
    5CHL1   H25  362   3.918   1.229   8.904 -0.5543  0.3714 -0.9954
    5CHL1   C26  363   4.091   1.231   8.804 -0.6689 -0.0634  0.4623
    5CHL1  H26A  364   4.135   1.329   8.831  0.4213  0.0398 -1.5682
    5CHL1  H26B  365   4.169   1.162   8.764  0.4186  1.4920 -0.1912
    5CHL1  H26C  366   4.017   1.245   8.723 -0.5748 -0.6409  0.2716
    5CHL1   C27  367   3.984   1.031   8.915  0.3662  0.1117  0.4502
    5CHL1  H27A  368   4.067   0.978   8.966  0.8192 -0.3495 -0.7538
    5CHL1  H27B  369   3.891   1.009   8.972  1.8555 -0.8125  2.6410
    5CHL1  H27C  370   3.986   0.997   8.810  0.3125  0.5434  0.3078
    6CHL1    C3  371   0.465   3.126  10.464 -0.2663 -0.5281  0.0967
    6CHL1    H3  372   0.568   3.154  10.433 -0.7900  1.1670 -0.2231
    6CHL1    O3  373   0.467   3.086  10.602 -0.3119 -0.3271 -0.7056
    6CHL1   H3'  374   0.373   3.078  10.623 -0.0217  1.0658  1.4374
    6CHL1    C4  375   0.374   3.248  10.435 -0.3326 -0.6183  0.5807
    6CHL1   H4A  376   0.266   3.228  10.456 -0.5828 -1.6294 -1.4052
    6CHL1   H4B  377   0.419   3.323  10.504 -0.0414 -0.3266  0.0756
    6CHL1    C5  378   0.383   3.292  10.292  0.8133 -0.1263 -0.4460
    6CHL1    C6  379   0.417   3.421  10.255  0.0549  0.2678 -0.8055
    6CHL1    H6  380   0.440   3.498  10.331 -0.2231 -0.1648 -0.2810
    6CHL1    C7  381   0.431   3.466  10.110 -0.6697 -0.1170 -0.0917
    6CHL1   H7A  382   0.368   3.553  10.081  0.4579  0.5831 -0.4826
    6CHL1   H7B  383   0.537   3.488  10.087 -0.8706  4.4510  2.3565
    6CHL1    C8  384   0.385   3.356  10.009  0.2692 -0.2461 -0.4758
    6CHL1    H8  385   0.277   3.382  10.004  0.1643 -0.3407  0.8749
    6CHL1   C14  386   0.449   3.376   9.868 -0.0057 -0.2243 -0.1638
    6CHL1   H14  387   0.554   3.348   9.889 -0.1335  1.2559  2.8557
    6CHL1   C15  388   0.479   3.518   9.812  0.2295  0.0023  0.5371
    6CHL1  H15A  389   0.395   3.591   9.816 -1.2519 -1.6550  0.8236
    6CHL1  H15B  390   0.574   3.553   9.857  1.4512  0.3775 -2.1427
    6CHL1   C16  391   0.492   3.495   9.664 -0.5511  0.5603  0.2884
    6CHL1  H16A  392   0.410   3.543   9.606  1.2478  0.7981 -2.1790
    6CHL1  H16B  393   0.590   3.533   9.628 -0.9927  1.0230 -0.4306
    6CHL1   C17  394   0.478   3.340   9.639  0.4015  0.8484  0.2702
    6CHL1   H17  395   0.583   3.304   9.645 -0.4803 -2.0364 -0.2188
    6CHL1   C13  396   0.388   3.297   9.757  0.0986 -0.4418  0.4894
    6CHL1   C18  397   0.237   3.332   9.730  0.0284 -0.3407 -0.1916
    6CHL1  H18A  398   0.208   3.278   9.637 -1.3868  1.2357 -0.7301
    6CHL1  H18B  399   0.178   3.294   9.816  1.9854  0.4320  1.5718
    6CHL1  H18C  400   0.227   3.440   9.708  1.7509 -0.4686 -1.7978
    6CHL1   C12  401   0.410   3.147   9.803 -0.3893 -0.2103 -0.6074
    6CHL1  H12A  402   0.361   3.076   9.733 -3.0789  0.4580  0.4837
    6CHL1  H12B  403   0.517   3.118   9.802 -0.4288 -0.4795  0.8107
    6CHL1   C11  404   0.350   3.119   9.942 -0.3130 -0.0965 -0.0154
    6CHL1  H11A  405   0.239   3.120   9.936 -0.4368 -0.8689  1.6473
    6CHL1  H11B  406   0.375   3.011   9.949 -1.0802 -0.3304 -0.7322
    6CHL1    C9  407   0.407   3.206  10.048 -0.1114 -1.1978  0.3192
    6CHL1    H9  408   0.516   3.189  10.049  0.2218  0.6369 -0.9650
    6CHL1   C10  409   0.353   3.184  10.190 -0.5552 -0.1969  0.2360
    6CHL1   C19  410   0.202   3.166  10.193 -1.0302 -0.5026  0.2381
    6CHL1  H19A  411   0.145   3.242  10.136  0.2586 -0.6268 -1.2872
    6CHL1  H19B  412   0.172   3.082  10.127  2.2082 -0.1226 -1.9301
    6CHL1  H19C  413   0.157   3.155  10.295 -1.4509  0.1694  0.1286
    6CHL1    C1  414   0.407   3.045  10.231  0.6490  0.1617 -0.1650
    6CHL1   H1A  415   0.365   2.957  10.178  0.6196  0.5408 -0.7852
    6CHL1   H1B  416   0.514   3.038  10.201  0.6297  0.4973 -0.3160
    6CHL1    C2  417   0.408   3.012  10.383 -0.6818  0.4888  0.4357
    6CHL1   H2A  418   0.482   2.930  10.392 -3.2146 -2.1440 -0.9949
    6CHL1   H2B  419   0.307   2.974  10.408 -0.2387 -0.2564  1.1312
    6CHL1   C20  420   0.435   3.299   9.493  0.8696 -0.1417  0.6776
    6CHL1   H20  421   0.346   3.364   9.484 -0.7657 -2.1892  1.2971
    6CHL1   C21  422   0.404   3.155   9.477  0.4625  0.5730  0.0382
    6CHL1  H21A  423   0.377   3.118   9.375  0.7657  1.5051 -0.3950
    6CHL1  H21B  424   0.323   3.115   9.541  1.3875  2.2723  2.3752
    6CHL1  H21C  425   0.487   3.090   9.512 -2.9498 -3.1885  2.0845
    6CHL1   C22  426   0.545   3.348   9.392  0.6840  0.5219 -0.2307
    6CHL1  H22A  427   0.589   3.447   9.419 -0.6332  1.1623 -0.3822
    6CHL1  H22B  428   0.625   3.273   9.409 -0.6423 -0.5719  1.5141
    6CHL1   C23  429   0.500   3.349   9.244 -0.6692  0.3359  0.1972
    6CHL1  H23A  430   0.453   3.253   9.217 -0.2775  0.3379 -0.5139
    6CHL1  H23B  431   0.425   3.427   9.221 -0.7572 -0.3723 -2.1185
    6CHL1   C24  432   0.617   3.362   9.141  0.0102  0.7499 -0.1920
    6CHL1  H24A  433   0.666   3.462   9.144  2.9894 -0.5821 -0.5648
    6CHL1  H24B  434   0.699   3.289   9.160  0.1541  0.8326 -0.5047
    6CHL1   C25  435   0.572   3.330   8.998 -0.1831 -0.0195 -0.5142
    6CHL1   H25  436   0.520   3.232   9.000 -0.3621  0.0877  0.4737
    6CHL1   C26  437   0.471   3.435   8.946  0.1410  0.1931  0.2449
    6CHL1  H26A  438   0.515   3.537   8.956  1.1970 -0.3156  1.0988
    6CHL1  H26B  439   0.446   3.407   8.841  1.5863 -0.6911  0.1090
    6CHL1  H26C  440   0.380   3.433   9.009 -0.2808  0.1520 -0.3595
    6CHL1   C27  441   0.691   3.297   8.910  0.0999  0.3236  0.3669
    6CHL1  H27A  442   0.755   3.388   8.907 -0.0953  0.4442 -0.2612
    6CHL1  H27B  443   0.738   3.203   8.949 -0.2974  0.2357  0.6379
    6CHL1  H27C  444   0.658   3.277   8.806  0.2841  2.1272 -0.0729
    7CHL1    C3  445   5.640   2.927  10.658 -0.0493  0.2094  0.3936
    7CHL1    H3  446   5.674   3.027  10.626  4.1828 -1.5660 -1.5432
    7CHL1    O3  447   5.618   2.938  10.798  0.1511  0.4091  0.5615
    7CHL1   H3'  448   5.705   2.931  10.839  0.0084  1.6254  1.1202
    7CHL1    C4  449   5.504   2.897  10.592  0.0641  0.0056  0.5396
    7CHL1   H4A  450   5.462   2.805  10.637 -2.0771  0.5209 -0.2805
    7CHL1   H4B  451   5.439   2.981  10.626 -0.8985 -0.3791 -0.2918
    7CHL1    C5  452   5.510   2.893  10.446  0.3305 -0.3212  0.4052
    7CHL1    C6  453   5.443   2.979  10.363  0.1360  0.6422 -0.4754
    7CHL1    H6  454   5.384   3.058  10.412 -0.1658 -1.1524  2.2467
    7CHL1    C7  455   5.453   2.981  10.216  0.9475  0.0391 -0.3173
    7CHL1   H7A  456   5.359   3.008  10.163  1.2661 -1.4565 -1.7129
    7CHL1   H7B  457   5.520   3.068  10.198 -0.8820  1.6320  0.2187
    7CHL1    C8  458   5.505   2.851  10.154 -0.0544 -0.4327  1.1828
    7CHL1    H8  459   5.436   2.764  10.157  0.2676 -0.6872  1.2235
    7CHL1   C14  460   5.552   2.868  10.008  0.1275 -0.4446 -0.6102
    7CHL1   H14  461   5.632   2.943  10.027 -1.7071  1.4544 -0.0007
    7CHL1   C15  462   5.463   2.934   9.903 -0.2396  0.4784  0.4631
    7CHL1  H15A  463   5.355   2.908   9.907 -0.4675  1.3717  0.2393
    7CHL1  H15B  464   5.470   3.044   9.915 -2.7828  0.7593 -0.1434
    7CHL1   C16  465   5.519   2.884   9.769  0.4673 -0.3984  0.2848
    7CHL1  H16A  466   5.430   2.841   9.719 -0.8338  0.1589  2.0496
    7CHL1  H16B  467   5.552   2.972   9.709  0.3722  0.6150  1.6631
    7CHL1   C17  468   5.640   2.796   9.801 -0.2288  0.0926  0.2823
    7CHL1   H17  469   5.728   2.864   9.803  3.1386 -3.8309  2.0839
    7CHL1   C13  470   5.620   2.745   9.944 -0.0028 -0.0764 -0.3072
    7CHL1   C18  471   5.526   2.619   9.948 -0.8887 -0.2208  0.5992
    7CHL1  H18A  472   5.495   2.571  10.043 -0.6396  0.5058  1.0527
    7CHL1  H18B  473   5.427   2.642   9.903 -1.3501 -1.4104  0.9628
    7CHL1  H18C  474   5.567   2.544   9.877  0.0003  2.3785 -1.8172
    7CHL1   C12  475   5.751   2.712  10.019 -0.4265 -0.1990  0.0280
    7CHL1  H12A  476   5.799   2.618   9.984 -2.0335 -1.8412  2.0009
    7CHL1  H12B  477   5.817   2.801  10.014 -2.3312  1.2339 -0.7579
    7CHL1   C11  478   5.717   2.698  10.172 -0.1602 -0.1755  0.6429
    7CHL1  H11A  479   5.685   2.593  10.186 -1.9431  0.3857  1.0077
    7CHL1  H11B  480   5.817   2.701  10.220 -0.3226 -0.5619  1.0080
    7CHL1    C9  481   5.630   2.805  10.236  0.3439 -0.6379  0.6013
    7CHL1    H9  482   5.698   2.893  10.233  0.3752 -0.6261 -3.0918
    7CHL1   C10  483   5.608   2.786  10.389 -0.7832 -0.5256 -0.3646
    7CHL1   C19  484   5.553   2.642  10.410 -1.0188 -0.5119 -0.1128
    7CHL1  H19A  485   5.475   2.624  10.333 -2.9367 -0.0572  1.6199
    7CHL1  H19B  486   5.626   2.559  10.398 -0.7233 -0.2459 -0.1607
    7CHL1  H19C  487   5.508   2.630  10.511  0.3314 -0.9416  0.4554
    7CHL1    C1  488   5.747   2.808  10.465  0.3084 -0.2901  0.4448
    7CHL1   H1A  489   5.820   2.727  10.446  0.2719 -0.6171  1.6063
    7CHL1   H1B  490   5.791   2.900  10.421 -0.0236  0.5027  1.7306
    7CHL1    C2  491   5.730   2.817  10.614 -0.3906  0.0950  0.0519
    7CHL1   H2A  492   5.827   2.842  10.661 -0.3864 -0.8095  0.5424
    7CHL1   H2B  493   5.693   2.720  10.652  0.4757 -0.5099 -0.6331
    7CHL1   C20  494   5.669   2.688   9.694  0.0771  0.5281  0.2765
    7CHL1   H20  495   5.597   2.604   9.693  0.6102  0.0571 -1.0130
    7CHL1   C21  496   5.813   2.636   9.713 -0.4952  0.4059  0.4067
    7CHL1  H21A  497   5.848   2.609   9.611  0.3836 -0.1467  0.8411
    7CHL1  H21B  498   5.801   2.547   9.778  0.1534 -1.4571 -1.8898
    7CHL1  H21C  499   5.880   2.713   9.758  1.7735 -0.3001 -1.5510
    7CHL1   C22  500   5.640   2.740   9.546 -0.4850 -0.5680  0.5955
    7CHL1  H22A  501   5.534   2.773   9.540 -0.4094 -0.4350 -0.0443
    7CHL1  H22B  502   5.701   2.832   9.530  1.7749 -1.6052  2.6466
    7CHL1   C23  503   5.654   2.643   9.437  0.4830  0.7421  0.0765
    7CHL1  H23A  504   5.760   2.610   9.430  0.5796  0.7725  1.2050
    7CHL1  H23B  505   5.581   2.563   9.459  1.3054 -0.6727 -2.0126
    7CHL1   C24  506   5.617   2.700   9.296 -0.2471 -0.6445  0.7023
    7CHL1  H24A  507   5.508   2.718   9.288  0.1752  1.1921 -1.9274
    7CHL1  H24B  508   5.672   2.794   9.275 -0.1919 -0.1328  2.8841
    7CHL1   C25  509   5.639   2.612   9.174 -0.1112 -0.0882  0.3347
    7CHL1   H25  510   5.552   2.543   9.169 -0.9587  1.0533 -1.9920
    7CHL1   C26  511   5.623   2.696   9.045 -0.6779  0.1154 -0.6492
    7CHL1  H26A  512   5.707   2.767   9.025  0.6984 -0.7771  1.6134
    7CHL1  H26B  513   5.605   2.638   8.952 -0.7631  0.3494 -0.7804
    7CHL1  H26C  514   5.531   2.758   9.049 -0.7163  0.1375 -1.6790
    7CHL1   C27  515   5.761   2.524   9.171 -0.0364  0.5707 -0.3962
    7CHL1  H27A  516   5.849   2.591   9.182  1.7154 -1.8328  1.8745
    7CHL1  H27B  517   5.765   2.454   9.257  1.7660 -0.4215 -1.2118
    7CHL1  H27C  518   5.772   2.466   9.077  0.6338 -1.0371  0.6221
    8CHL1    C3  519   4.322   4.608  10.506  0.1789  0.0357 -0.1814
    8CHL1    H3  520   4.241   4.532  10.504 -0.3157  0.5425  0.4851
    8CHL1    O3  521   4.331   4.640  10.644 -0.0997  0.0284 -0.2174
    8CHL1   H3'  522   4.286   4.576  10.698 -0.4061  1.9552  1.9671
    8CHL1    C4  523   4.448   4.545  10.450  0.2979  0.1052  0.4978
    8CHL1   H4A  524   4.523   4.625  10.470  0.7702 -0.0367 -0.6088
    8CHL1   H4B  525   4.494   4.464  10.510  0.6599 -1.2753 -1.5457
    8CHL1    C5  526   4.455   4.518  10.306 -0.0024  0.8499  0.3488
    8CHL1    C6  527   4.484   4.393  10.262 -0.7228 -0.8383 -0.4358
    8CHL1    H6  528   4.521   4.316  10.332 -1.5966 -2.7725 -1.9953
    8CHL1    C7  529   4.478   4.368  10.113 -0.1855 -0.0206  0.6123
    8CHL1   H7A  530   4.564   4.308  10.077 -1.0121 -0.9111  0.0892
    8CHL1   H7B  531   4.403   4.290  10.089 -0.0953 -0.4741  1.7338
    8CHL1    C8  532   4.470   4.491  10.018 -0.3090 -1.2616 -1.0827
    8CHL1    H8  533   4.565   4.548  10.017 -0.1327 -1.5363 -0.3548
    8CHL1   C14  534   4.434   4.450   9.880 -0.7241  0.6182 -0.4649
    8CHL1   H14  535   4.333   4.406   9.895 -0.0536 -0.2149  2.1560
    8CHL1   C15  536   4.513   4.335   9.813  0.0570  0.5605 -0.5006
    8CHL1  H15A  537   4.623   4.334   9.833  0.0362 -1.5790 -0.2660
    8CHL1  H15B  538   4.482   4.239   9.858  3.1093 -0.8582 -1.1578
    8CHL1   C16  539   4.478   4.350   9.658 -0.2038 -0.1570 -0.1631
    8CHL1  H16A  540   4.578   4.362   9.610  0.7830  2.4597  2.2770
    8CHL1  H16B  541   4.419   4.267   9.613  1.6735 -0.7844 -1.6134
    8CHL1   C17  542   4.387   4.477   9.648 -0.5675 -0.3238 -0.7929
    8CHL1   H17  543   4.280   4.451   9.662 -1.3025  1.8592 -1.8359
    8CHL1   C13  544   4.434   4.557   9.775 -0.2755 -0.2177 -0.6414
    8CHL1   C18  545   4.569   4.632   9.753 -0.0992 -0.4312 -0.0010
    8CHL1  H18A  546   4.650   4.563   9.721 -0.3536  0.5590 -3.0657
    8CHL1  H18B  547   4.567   4.711   9.675 -0.6150 -0.2861  0.1570
    8CHL1  H18C  548   4.612   4.685   9.842 -1.4833  2.5162 -0.9520
    8CHL1   C12  549   4.326   4.661   9.822  0.0440  0.1803 -0.2274
    8CHL1  H12A  550   4.309   4.749   9.756 -1.3622  1.3331  1.5679
    8CHL1  H12B  551   4.229   4.607   9.835 -0.2274  0.9518  1.1392
    8CHL1   C11  552   4.350   4.713   9.964  0.2441  0.4394 -0.5937
    8CHL1  H11A  553   4.444   4.771   9.962  0.1465  0.5911 -1.8221
    8CHL1  H11B  554   4.265   4.777   9.998 -0.4125 -0.4869 -0.4444
    8CHL1    C9  555   4.367   4.593  10.069  0.5164  0.4066 -0.3462
    8CHL1    H9  556   4.272   4.537  10.084 -0.3837  2.2811  1.3406
    8CHL1   C10  557   4.411   4.641  10.216  0.0979  0.6898  0.1219
    8CHL1   C19  558   4.525   4.748  10.230 -0.7297  0.6534  0.4892
    8CHL1  H19A  559   4.619   4.697  10.200 -1.9709 -1.5257  0.1338
    8CHL1  H19B  560   4.518   4.840  10.168  0.8828 -0.9369 -2.2493
    8CHL1  H19C  561   4.535   4.788  10.333 -1.7158 -2.8179  2.0830
    8CHL1    C1  562   4.287   4.710  10.273  0.5232 -0.2028  0.2321
    8CHL1   H1A  563   4.264   4.798  10.209  0.2270 -0.5509 -0.1353
    8CHL1   H1B  564   4.203   4.640  10.254  0.4943  0.1568 -1.0793
    8CHL1    C2  565   4.292   4.732  10.432  0.0527  0.0587  1.2588
    8CHL1   H2A  566   4.191   4.758  10.471 -1.1805 -2.2806 -0.0880
    8CHL1   H2B  567   4.365   4.813  10.452  0.5855 -0.6474  2.2124
    8CHL1   C20  568   4.400   4.535   9.509 -0.5441 -0.0680 -0.0470
    8CHL1   H20  569   4.495   4.589   9.494 -1.8007  2.4954  0.6766
    8CHL1   C21  570   4.293   4.638   9.480 -0.0847 -0.5061 -0.2207
    8CHL1  H21A  571   4.306   4.717   9.557 -2.3702  0.5886 -0.8413
    8CHL1  H21B  572   4.195   4.595   9.509 -0.1381  1.0839  2.3433
    8CHL1  H21C  573   4.290   4.683   9.378 -1.5330  4.6365  1.7357
    8CHL1   C22  574   4.400   4.423   9.399  0.0735 -0.2476  0.2095
    8CHL1  H22A  575   4.486   4.358   9.422  1.0189  0.5832 -0.8481
    8CHL1  H22B  576   4.316   4.351   9.408 -1.1694  0.9724 -0.9851
    8CHL1   C23  577   4.414   4.465   9.253 -0.0728  1.0711  0.3771
    8CHL1  H23A  578   4.313   4.466   9.207  0.1453 -1.7890 -0.3491
    8CHL1  H23B  579   4.461   4.565   9.243  3.7101 -0.4509  1.0676
    8CHL1   C24  580   4.508   4.363   9.185 -0.1179 -0.2316  0.3504
    8CHL1  H24A  581   4.608   4.375   9.233 -0.0775 -0.7026  0.3895
    8CHL1  H24B  582   4.472   4.264   9.221  1.7671 -0.4665  1.7369
    8CHL1   C25  583   4.532   4.374   9.038  0.2363  0.7039 -1.1088
    8CHL1   H25  584   4.549   4.483   9.022  0.6895  0.9148  0.5966
    8CHL1   C26  585   4.643   4.286   8.988 -0.2096  0.0038 -0.1013
    8CHL1  H26A  586   4.741   4.332   9.017 -0.6232 -0.5910  2.4967
    8CHL1  H26B  587   4.637   4.189   9.041 -2.0443  1.2630  2.1870
    8CHL1  H26C  588   4.635   4.254   8.882 -1.2214  0.2793 -0.1106
    8CHL1   C27  589   4.409   4.340   8.951  0.9702 -0.1992  0.8327
    8CHL1  H27A  590   4.430   4.350   8.843  2.2911  0.7357  1.1483
    8CHL1  H27B  591   4.387   4.232   8.966  1.4399 -0.1640  1.8903
    8CHL1  H27C  592   4.320   4.404   8.962 -1.9731 -3.5542 -1.2146
    9CHL1    C3  593   2.679   6.312  10.263 -0.6983  0.5870 -0.1139
    9CHL1    H3  594   2.571   6.288  10.278 -0.7387  0.9415  0.1752
    9CHL1    O3  595   2.740   6.346  10.387  0.0569 -0.7048 -0.6798
    9CHL1   H3'  596   2.835   6.342  10.373  0.4001  1.2205  0.7638
    9CHL1    C4  597   2.750   6.186  10.211 -0.0009 -0.4732 -0.6190
    9CHL1   H4A  598   2.858   6.201  10.192  0.1638 -1.2155 -0.3291
    9CHL1   H4B  599   2.733   6.110  10.290 -2.0342  2.1182  1.6432
    9CHL1    C5  600   2.688   6.144  10.082  0.2181 -0.4727 -0.4316
    9CHL1    C6  601   2.639   6.018  10.061  0.2340 -1.1325  0.7934
    9CHL1    H6  602   2.664   5.945  10.140  2.0003 -1.2646  0.1561
    9CHL1    C7  603   2.570   5.968   9.931 -0.1766  0.1471 -0.0176
    9CHL1   H7A  604   2.605   5.868   9.898  1.3487  0.9564 -0.9971
    9CHL1   H7B  605   2.460   5.965   9.942 -0.0638 -1.2990  1.0808
    9CHL1    C8  606   2.606   6.068   9.816 -0.2232  0.3391 -0.1596
    9CHL1    H8  607   2.710   6.042   9.784 -0.1913  0.5202 -0.2033
    9CHL1   C14  608   2.504   6.035   9.704 -0.1757  0.1881 -0.4412
    9CHL1   H14  609   2.403   6.069   9.735 -0.4173 -0.1119 -0.8916
    9CHL1   C15  610   2.482   5.890   9.648  0.1105  0.2101  0.5841
    9CHL1  H15A  611   2.580   5.840   9.640 -0.7804 -1.6342  0.7236
    9CHL1  H15B  612   2.411   5.830   9.709 -0.5416 -1.5195 -1.7657
    9CHL1   C16  613   2.420   5.907   9.506 -0.1938 -0.5430  0.4347
    9CHL1  H16A  614   2.488   5.850   9.439  0.4282 -0.8275  1.2795
    9CHL1  H16B  615   2.319   5.862   9.497 -0.0907 -1.6660  3.4881
    9CHL1   C17  616   2.411   6.062   9.487 -1.7984  0.2271 -0.0377
    9CHL1   H17  617   2.311   6.084   9.530 -2.6477 -0.4689 -1.5720
    9CHL1   C13  618   2.517   6.120   9.577 -0.1627  0.4295 -1.1743
    9CHL1   C18  619   2.651   6.101   9.511 -0.6131 -0.1981 -0.0271
    9CHL1  H18A  620   2.658   6.151   9.412 -0.9218 -2.5927 -1.3535
    9CHL1  H18B  621   2.741   6.114   9.575 -0.5982 -2.3315  0.4805
    9CHL1  H18C  622   2.677   5.995   9.492  1.5954 -0.3841  3.2507
    9CHL1   C12  623   2.484   6.266   9.622 -0.0412 -0.0897  0.2749
    9CHL1  H12A  624   2.489   6.340   9.539  1.5194  0.4993  0.8599
    9CHL1  H12B  625   2.383   6.270   9.667  1.4988  1.9947  3.9531
    9CHL1   C11  626   2.572   6.315   9.734 -0.7650  0.4529 -0.0915
    9CHL1  H11A  627   2.667   6.340   9.682 -0.6969  0.0192 -0.1847
    9CHL1  H11B  628   2.518   6.404   9.772 -3.2653 -0.4291 -1.3306
    9CHL1    C9  629   2.586   6.217   9.859 -0.1163  0.5153  0.4705
    9CHL1    H9  630   2.488   6.211   9.910  0.7329 -0.0316  2.1309
    9CHL1   C10  631   2.681   6.258   9.972  0.4965 -0.1203 -0.4203
    9CHL1   C19  632   2.828   6.280   9.925 -0.1231  0.2852 -0.1801
    9CHL1  H19A  633   2.869   6.179   9.904  1.4593 -0.3068  4.5460
    9CHL1  H19B  634   2.834   6.346   9.836  1.3769  0.1771 -0.1887
    9CHL1  H19C  635   2.896   6.317  10.005  0.5692 -1.0078 -0.1488
    9CHL1    C1  636   2.624   6.394  10.031 -0.0780 -0.0971  0.6641
    9CHL1   H1A  637   2.646   6.475   9.958  1.6983 -1.3632 -0.2747
    9CHL1   H1B  638   2.514   6.408  10.037 -0.0797 -0.0345  0.5056
    9CHL1    C2  639   2.689   6.430  10.168 -0.4274 -0.2374  0.0447
    9CHL1   H2A  640   2.633   6.513  10.217  0.1425  0.2757 -0.1679
    9CHL1   H2B  641   2.797   6.451  10.162 -1.1891  4.2372 -1.4670
    9CHL1   C20  642   2.408   6.120   9.346  0.3815  0.2281 -0.1705
    9CHL1   H20  643   2.469   6.212   9.335  1.4658 -0.6758 -2.2947
    9CHL1   C21  644   2.262   6.160   9.326 -0.3021  0.1119 -0.4676
    9CHL1  H21A  645   2.227   6.227   9.407 -0.9441 -1.3479  0.5089
    9CHL1  H21B  646   2.200   6.068   9.339 -1.5474  0.7857 -1.3991
    9CHL1  H21C  647   2.243   6.199   9.223  0.6585  0.3309 -0.5693
    9CHL1   C22  648   2.468   6.027   9.235  0.2326  0.1706 -0.2747
    9CHL1  H22A  649   2.569   5.996   9.267 -0.6821 -1.4356  1.2296
    9CHL1  H22B  650   2.405   5.936   9.235  1.4575 -0.7186 -1.4797
    9CHL1   C23  651   2.467   6.085   9.095 -0.0350  0.7864  0.3994
    9CHL1  H23A  652   2.366   6.105   9.053 -0.4144 -0.2040  0.8245
    9CHL1  H23B  653   2.523   6.180   9.083 -0.8986  1.1107 -1.3485
    9CHL1   C24  654   2.516   5.970   9.005  0.2235 -0.3654  0.1649
    9CHL1  H24A  655   2.609   5.925   9.045  1.0775  0.2364 -1.0876
    9CHL1  H24B  656   2.438   5.891   8.997 -0.7151  0.6572 -1.4020
    9CHL1   C25  657   2.550   6.023   8.855  0.0212  0.4121 -0.2003
    9CHL1   H25  658   2.462   6.048   8.793 -0.6724 -1.4840 -0.0476
    9CHL1   C26  659   2.648   6.136   8.865 -0.6285 -0.5032 -0.3352
    9CHL1  H26A  660   2.692   6.160   8.766 -1.6089  0.4538 -0.5553
    9CHL1  H26B  661   2.599   6.230   8.896 -0.3454 -0.3021 -0.4939
    9CHL1  H26C  662   2.725   6.119   8.944 -1.2351  0.1534  0.4097
    9CHL1   C27  663   2.605   5.904   8.784 -0.8895  0.7235 -0.1875
    9CHL1  H27A  664   2.678   5.863   8.856 -2.3746 -0.4249  0.7303
    9CHL1  H27B  665   2.535   5.822   8.756  0.2233  0.0671 -1.1950
    9CHL1  H27C  666   2.655   5.936   8.689 -0.3119 -0.8512 -0.4491
   10CHL1    C3  667   4.919   4.228  10.327  0.3424  0.6599 -0.1340
   10CHL1    H3  668   4.834   4.157  10.330  0.5550  0.2008 -2.6244
   10CHL1    O3  669   4.957   4.278  10.451  0.1580  0.1280 -0.0200
   10CHL1   H3'  670   5.053   4.286  10.446  0.2078  0.0068  0.6507
   10CHL1    C4  671   5.040   4.155  10.274 -0.0367 -0.1341 -0.0439
   10CHL1   H4A  672   5.117   4.235  10.270 -0.9531  0.8029  0.5857
   10CHL1   H4B  673   5.071   4.070  10.339  1.3954  0.3046 -0.1181
   10CHL1    C5  674   5.027   4.110  10.127 -0.0429  0.1071 -0.2726
   10CHL1    C6  675   5.058   3.984  10.095 -0.6500  0.0774  0.0856
   10CHL1    H6  676   5.094   3.910  10.170 -0.3033  1.1690  1.0308
   10CHL1    C7  677   5.054   3.940   9.951  0.0286 -0.2097  0.1462
   10CHL1   H7A  678   5.141   3.873   9.930  0.1375  0.6045 -2.3944
   10CHL1   H7B  679   4.955   3.897   9.923  0.0860  0.8541 -1.8779
   10CHL1    C8  680   5.061   4.060   9.846  0.4901  0.1725 -0.0894
   10CHL1    H8  681   5.165   4.097   9.853  1.2410 -2.0749  2.1249
   10CHL1   C14  682   5.029   4.019   9.703 -0.0124  0.6182  0.1470
   10CHL1   H14  683   4.924   3.987   9.723 -0.1746  0.0247 -1.4592
   10CHL1   C15  684   5.104   3.894   9.652  0.1087  0.5065 -0.1647
   10CHL1  H15A  685   5.211   3.913   9.675  0.2863 -0.3551 -0.2563
   10CHL1  H15B  686   5.068   3.805   9.708  1.4544  1.1476  1.8265
   10CHL1   C16  687   5.080   3.899   9.495  1.0844  0.7043 -0.3574
   10CHL1  H16A  688   5.170   3.905   9.429  1.1205  1.6681 -0.2298
   10CHL1  H16B  689   5.016   3.810   9.477  0.7032  0.5987  1.3763
   10CHL1   C17  690   4.987   4.024   9.477  0.0818  0.1205  0.0407
   10CHL1   H17  691   4.880   4.006   9.500 -0.0468  0.4885 -0.2565
   10CHL1   C13  692   5.022   4.115   9.595  0.5711 -0.3171  0.3554
   10CHL1   C18  693   5.154   4.185   9.574  0.4796  0.7045  0.3339
   10CHL1  H18A  694   5.199   4.205   9.673  2.8301  1.8343 -0.8751
   10CHL1  H18B  695   5.223   4.124   9.512 -0.3995 -0.8250  0.7962
   10CHL1  H18C  696   5.148   4.278   9.514  0.0860  0.2704 -0.3206
   10CHL1   C12  697   4.912   4.219   9.634  0.0812  0.4743 -0.0857
   10CHL1  H12A  698   4.911   4.301   9.559  1.6029  0.0642 -0.5928
   10CHL1  H12B  699   4.814   4.166   9.645  0.1041 -0.2817 -2.7504
   10CHL1   C11  700   4.946   4.279   9.772  0.4102  0.3895 -0.0828
   10CHL1  H11A  701   5.046   4.327   9.773  1.2539 -1.2420  2.1366
   10CHL1  H11B  702   4.872   4.357   9.798 -2.0423 -1.1288 -2.0292
   10CHL1    C9  703   4.959   4.173   9.885  0.3281  0.1899 -0.6448
   10CHL1    H9  704   4.859   4.127   9.875  0.0119  0.9575 -1.0914
   10CHL1   C10  705   4.981   4.225  10.029 -0.2547 -0.7790  0.4236
   10CHL1   C19  706   5.088   4.335  10.012 -0.6550 -0.4291 -0.2059
   10CHL1  H19A  707   5.172   4.297   9.950 -0.5832 -1.2704  0.3930
   10CHL1  H19B  708   5.057   4.423   9.952  0.6533  0.6011  0.5577
   10CHL1  H19C  709   5.124   4.376  10.109  0.0478 -0.2762 -0.5250
   10CHL1    C1  710   4.858   4.291  10.091  1.0687  0.4433  0.7346
   10CHL1   H1A  711   4.824   4.370  10.021 -1.0624 -0.1207  1.0490
   10CHL1   H1B  712   4.775   4.217  10.084  1.7395 -0.4237  1.6071
   10CHL1    C2  713   4.875   4.347  10.238 -0.1209  0.2949  0.2250
   10CHL1   H2A  714   4.781   4.394  10.276 -0.1578 -0.7530  1.4794
   10CHL1   H2B  715   4.956   4.423  10.237 -1.1772  1.4500  0.4685
   10CHL1   C20  716   4.989   4.073   9.332 -0.2012  0.2006  0.3515
   10CHL1   H20  717   5.093   4.102   9.306  0.2373 -2.5608 -1.5339
   10CHL1   C21  718   4.886   4.181   9.310  0.3942 -0.5832 -0.4219
   10CHL1  H21A  719   4.796   4.163   9.371  0.8434  0.0601  0.4555
   10CHL1  H21B  720   4.851   4.187   9.205 -0.8199  0.6847  0.0318
   10CHL1  H21C  721   4.919   4.286   9.326  0.8296 -0.2872 -2.8093
   10CHL1   C22  722   4.956   3.954   9.233 -0.6321  0.2980 -0.7803
   10CHL1  H22A  723   5.027   3.870   9.247  0.1020  0.8861 -0.9553
   10CHL1  H22B  724   4.854   3.922   9.265  0.0318 -0.6579  0.4942
   10CHL1   C23  725   4.961   3.984   9.086 -0.6244 -0.5777  0.0555
   10CHL1  H23A  726   4.889   4.065   9.061 -1.8324 -2.0339 -1.3565
   10CHL1  H23B  727   5.063   4.025   9.072 -1.4035  1.5236  0.0643
   10CHL1   C24  728   4.930   3.870   8.991 -0.2560  0.2305 -0.5342
   10CHL1  H24A  729   5.004   3.788   9.004  1.0607  1.6526  1.9954
   10CHL1  H24B  730   4.827   3.840   9.017  0.0924  0.6648  1.5990
   10CHL1   C25  731   4.944   3.909   8.839  0.3458 -0.0581 -0.9199
   10CHL1   H25  732   5.051   3.939   8.834  0.4701 -0.4285 -0.5057
   10CHL1   C26  733   4.923   3.789   8.743  0.2191  0.1708  0.0986
   10CHL1  H26A  734   4.826   3.748   8.779  0.5942 -1.4676 -0.6614
   10CHL1  H26B  735   4.926   3.828   8.639  0.5693  3.7616  1.3366
   10CHL1  H26C  736   4.998   3.710   8.767  0.5379 -0.0523 -1.4867
   10CHL1   C27  737   4.863   4.035   8.798 -0.0990 -0.1279  1.1780
   10CHL1  H27A  738   4.758   4.020   8.832 -1.0799 -2.2526 -2.2512
   10CHL1  H27B  739   4.916   4.130   8.820 -0.2477  0.1051  0.5488
   10CHL1  H27C  740   4.846   4.037   8.688 -0.9018  0.6377  1.3031
   11CHL1    C3  741   2.691   0.596  10.209 -0.0562 -1.0283  0.4684
   11CHL1    H3  742   2.768   0.665  10.170 -1.2321  0.3188  0.4134
   11CHL1    O3  743   2.679   0.621  10.350 -0.6022 -0.8891 -0.2622
   11CHL1   H3'  744   2.647   0.544  10.399 -0.7206 -0.0390  1.0557
   11CHL1    C4  745   2.561   0.626  10.134  0.2323 -0.2889 -0.3114
   11CHL1   H4A  746   2.488   0.554  10.177  1.3395 -1.3033 -0.0550
   11CHL1   H4B  747   2.517   0.726  10.150  0.1699 -0.3512 -0.0934
   11CHL1    C5  748   2.560   0.607   9.989  0.0698 -0.2108  0.1210
   11CHL1    C6  749   2.538   0.698   9.889 -0.4071  0.3575 -0.1652
   11CHL1    H6  750   2.504   0.800   9.910 -3.5976 -0.8590  1.2836
   11CHL1    C7  751   2.536   0.665   9.743  0.5330 -0.2643  0.5183
   11CHL1   H7A  752   2.440   0.687   9.692 -0.5569 -1.6112  1.8716
   11CHL1   H7B  753   2.609   0.732   9.693 -1.8000 -0.2983 -3.3363
   11CHL1    C8  754   2.568   0.519   9.704  0.2770  0.1526  0.3967
   11CHL1    H8  755   2.464   0.480   9.709 -0.2200  1.4658  0.5787
   11CHL1   C14  756   2.620   0.517   9.559  0.2963 -0.3147 -0.4621
   11CHL1   H14  757   2.710   0.582   9.562  0.0682  0.0086 -0.5564
   11CHL1   C15  758   2.532   0.570   9.443  0.4274 -0.2754 -0.2544
   11CHL1  H15A  759   2.429   0.529   9.454  0.2683  0.1130 -0.2804
   11CHL1  H15B  760   2.539   0.681   9.447  1.0569 -0.3270  0.2748
   11CHL1   C16  761   2.596   0.505   9.316  0.1484  0.0801  0.4181
   11CHL1  H16A  762   2.513   0.451   9.265  0.0687 -0.1008  0.7399
   11CHL1  H16B  763   2.656   0.573   9.251 -0.7506 -0.1873 -0.7384
   11CHL1   C17  764   2.696   0.400   9.370 -0.9741  0.1768  0.3169
   11CHL1   H17  765   2.796   0.449   9.371 -0.0647 -1.4138 -2.1452
   11CHL1   C13  766   2.651   0.373   9.513 -0.2482  0.2675  0.4796
   11CHL1   C18  767   2.524   0.286   9.504 -0.8824  0.2963 -0.2245
   11CHL1  H18A  768   2.453   0.321   9.426 -0.6599 -0.3127 -0.7135
   11CHL1  H18B  769   2.575   0.190   9.480  1.5595  0.8880  2.1896
   11CHL1  H18C  770   2.467   0.278   9.599  1.5431  1.0084  1.3954
   11CHL1   C12  771   2.758   0.317   9.604 -0.2678  0.0495 -0.5084
   11CHL1  H12A  772   2.783   0.212   9.578  1.5347 -0.0221  1.2857
   11CHL1  H12B  773   2.854   0.373   9.608 -0.1611 -0.1794  0.3184
   11CHL1   C11  774   2.714   0.312   9.752 -0.1676 -0.7414  0.1445
   11CHL1  H11A  775   2.638   0.233   9.767 -0.0624 -1.2045 -1.6106
   11CHL1  H11B  776   2.802   0.277   9.810  0.6454  0.1990 -0.4867
   11CHL1    C9  777   2.656   0.448   9.803 -0.5107  0.1180  0.1953
   11CHL1    H9  778   2.750   0.508   9.806  0.8735 -1.9253 -0.3009
   11CHL1   C10  779   2.615   0.463   9.956 -0.0722  0.3470  0.4596
   11CHL1   C19  780   2.513   0.345   9.975 -0.1033 -0.6863  0.1251
   11CHL1  H19A  781   2.564   0.247   9.984 -0.6053 -0.8972  0.7721
   11CHL1  H19B  782   2.464   0.357  10.075 -0.1864  0.3388 -0.0310
   11CHL1  H19C  783   2.439   0.338   9.893  0.3187  0.5619 -0.3805
   11CHL1    C1  784   2.741   0.424  10.041  0.5772  0.2507  0.4867
   11CHL1   H1A  785   2.772   0.319  10.022  1.7394  0.6314  0.1686
   11CHL1   H1B  786   2.825   0.488  10.006 -0.9005  0.9023 -2.1523
   11CHL1    C2  787   2.722   0.448  10.194 -0.0414 -0.4284  0.2782
   11CHL1   H2A  788   2.819   0.422  10.240  0.7185  0.7889 -0.5989
   11CHL1   H2B  789   2.641   0.382  10.232 -1.4361  0.9100 -0.2834
   11CHL1   C20  790   2.723   0.283   9.269  0.2699  0.6548  0.1700
   11CHL1   H20  791   2.641   0.209   9.276  0.1944  0.6635 -0.5404
   11CHL1   C21  792   2.852   0.203   9.295  1.1540  0.1382  0.5418
   11CHL1  H21A  793   2.939   0.271   9.280  0.3284  1.1906  0.3476
   11CHL1  H21B  794   2.864   0.120   9.223  0.0706 -0.4011  0.9648
   11CHL1  H21C  795   2.856   0.165   9.399 -0.0419  1.3829  1.0744
   11CHL1   C22  796   2.721   0.316   9.114  0.4827  0.5101 -0.1642
   11CHL1  H22A  797   2.621   0.362   9.103 -0.8177 -0.9163  3.8055
   11CHL1  H22B  798   2.809   0.381   9.093  0.6099  0.7666  1.0838
   11CHL1   C23  799   2.711   0.183   9.032  0.1371  0.2055 -0.2509
   11CHL1  H23A  800   2.810   0.152   8.993  1.3117  2.2871  0.8629
   11CHL1  H23B  801   2.664   0.108   9.099  0.0861  0.0938 -0.4100
   11CHL1   C24  802   2.630   0.206   8.904  0.6037  0.3280  0.0641
   11CHL1  H24A  803   2.621   0.104   8.861  1.2288  0.7239 -1.0520
   11CHL1  H24B  804   2.530   0.250   8.927  0.2082  1.0504 -2.6681
   11CHL1   C25  805   2.717   0.300   8.813 -0.6375  0.9520  0.2747
   11CHL1   H25  806   2.737   0.393   8.869  3.4135  1.0189 -0.9546
   11CHL1   C26  807   2.850   0.240   8.761  0.2118 -0.0895 -1.0981
   11CHL1  H26A  808   2.925   0.213   8.839 -0.8572  0.1782  0.0433
   11CHL1  H26B  809   2.827   0.153   8.697 -0.4608 -0.0175 -0.9588
   11CHL1  H26C  810   2.892   0.321   8.697  1.4821  0.7935  0.7470
   11CHL1   C27  811   2.637   0.337   8.690  0.0837  0.2210 -0.0796
   11CHL1  H27A  812   2.614   0.241   8.639 -0.7520  0.9387 -1.0954
   11CHL1  H27B  813   2.539   0.387   8.709  1.2179  2.3295  0.5410
   11CHL1  H27C  814   2.695   0.401   8.620  0.1474 -0.7590 -0.9398
   12CHL1    C3  815   3.939   3.666  10.600  0.2619 -0.7280  0.0787
   12CHL1    H3  816   3.828   3.673  10.613  0.6062  1.0419  2.9458
   12CHL1    O3  817   3.995   3.662  10.732 -0.1320  0.5770  0.3032
   12CHL1   H3'  818   4.056   3.588  10.721 -3.1710 -1.8082 -2.3120
   12CHL1    C4  819   3.990   3.560  10.512 -0.9067  0.3567  0.2111
   12CHL1   H4A  820   4.101   3.554  10.506 -0.9775  0.2792 -1.2988
   12CHL1   H4B  821   3.969   3.459  10.553  4.3318 -1.6134 -1.1394
   12CHL1    C5  822   3.955   3.558  10.366 -0.1318  0.6601  0.2969
   12CHL1    C6  823   3.895   3.458  10.309  0.2623  0.1398  0.7925
   12CHL1    H6  824   3.872   3.364  10.360 -1.8478 -0.3175 -0.8437
   12CHL1    C7  825   3.856   3.457  10.165 -0.3724 -0.7779 -0.0226
   12CHL1   H7A  826   3.889   3.360  10.123 -0.7351 -1.5145  1.3298
   12CHL1   H7B  827   3.745   3.458  10.161 -0.5661 -2.1671  2.7145
   12CHL1    C8  828   3.916   3.576  10.095 -0.3965  0.0686  0.1905
   12CHL1    H8  829   4.026   3.561  10.087 -0.6132 -0.9405 -1.3151
   12CHL1   C14  830   3.860   3.587   9.953 -0.2092 -0.0921  0.0680
   12CHL1   H14  831   3.750   3.605   9.953 -0.3634 -0.1117 -4.4366
   12CHL1   C15  832   3.874   3.459   9.856 -0.4348  0.3458 -1.2693
   12CHL1  H15A  833   3.965   3.405   9.887 -1.3712 -0.3234  0.5037
   12CHL1  H15B  834   3.789   3.389   9.870  0.4585 -0.3925  0.8131
   12CHL1   C16  835   3.879   3.516   9.718 -0.0888 -0.6769  0.4557
   12CHL1  H16A  836   3.985   3.497   9.690 -0.0466  1.3161 -0.9905
   12CHL1  H16B  837   3.811   3.461   9.649  1.1306 -2.4575  0.6266
   12CHL1   C17  838   3.857   3.673   9.727  0.3152 -0.0292 -0.5020
   12CHL1   H17  839   3.748   3.696   9.739  0.3931 -0.1549  0.5428
   12CHL1   C13  840   3.915   3.706   9.871 -0.9813 -0.0725 -0.1052
   12CHL1   C18  841   4.074   3.708   9.873  0.5078  0.1808 -0.4327
   12CHL1  H18A  842   4.113   3.609   9.841  2.5679  1.0423 -0.7269
   12CHL1  H18B  843   4.109   3.785   9.800  0.7409  1.0588  0.5906
   12CHL1  H18C  844   4.122   3.749   9.964 -0.7392  0.7006  0.0045
   12CHL1   C12  845   3.869   3.836   9.945  0.5142 -0.2837 -0.5379
   12CHL1  H12A  846   3.923   3.923   9.903  0.1141  0.5683  0.6534
   12CHL1  H12B  847   3.758   3.838   9.944  0.5072 -0.6459 -1.0253
   12CHL1   C11  848   3.914   3.845  10.091 -0.0588  0.3530  0.1991
   12CHL1  H11A  849   4.022   3.870  10.086  0.3437 -0.5393  2.7925
   12CHL1  H11B  850   3.862   3.931  10.140 -0.7632  0.3104 -0.4674
   12CHL1    C9  851   3.891   3.709  10.174  0.0344 -0.3949 -0.0047
   12CHL1    H9  852   3.782   3.715  10.190  0.2961  0.3358  1.7722
   12CHL1   C10  853   3.974   3.699  10.306  0.7801  0.4943  0.0739
   12CHL1   C19  854   4.127   3.722  10.290  0.1211  0.8137 -0.3919
   12CHL1  H19A  855   4.177   3.702  10.388 -0.0350  0.4070 -0.3910
   12CHL1  H19B  856   4.171   3.659  10.210 -0.0985 -0.4118  0.4234
   12CHL1  H19C  857   4.137   3.831  10.271 -2.1943  1.1843  0.1908
   12CHL1    C1  858   3.922   3.810  10.402 -0.0008  0.0261 -0.0438
   12CHL1   H1A  859   3.935   3.908  10.352  1.8765 -0.7991 -1.2985
   12CHL1   H1B  860   3.817   3.775  10.405  0.2253 -0.6389  0.5515
   12CHL1    C2  861   3.966   3.810  10.546 -0.0634 -0.1582  0.2426
   12CHL1   H2A  862   3.909   3.881  10.610 -0.3364 -0.0980 -0.0692
   12CHL1   H2B  863   4.077   3.823  10.550  0.0494  0.0132 -2.0300
   12CHL1   C20  864   3.900   3.743   9.596 -0.1081 -0.0906 -0.4298
   12CHL1   H20  865   4.011   3.750   9.588 -0.1160 -0.9695 -1.3895
   12CHL1   C21  866   3.861   3.894   9.609 -0.2599  0.7143  0.1298
   12CHL1  H21A  867   3.905   3.938   9.701  0.2830 -1.2557  0.8662
   12CHL1  H21B  868   3.750   3.901   9.614 -0.2283  0.7721  1.0073
   12CHL1  H21C  869   3.912   3.940   9.522 -0.9078 -1.9922 -1.8342
   12CHL1   C22  870   3.864   3.670   9.466  0.1167 -0.2911 -0.0384
   12CHL1  H22A  871   3.901   3.566   9.477  4.5741  0.9473 -1.3199
   12CHL1  H22B  872   3.755   3.680   9.444  0.2592 -1.2692 -1.2983
   12CHL1   C23  873   3.960   3.713   9.351 -0.4408  0.1169  0.3552
   12CHL1  H23A  874   3.949   3.824   9.341  1.6571  0.2413 -1.2070
   12CHL1  H23B  875   4.070   3.695   9.352 -0.1839  1.5585  0.7204
   12CHL1   C24  876   3.915   3.655   9.214 -0.1065  0.2536  0.3549
   12CHL1  H24A  877   3.899   3.545   9.224  0.5649 -0.0038 -1.0499
   12CHL1  H24B  878   3.811   3.688   9.194 -0.3503 -1.4241 -1.4983
   12CHL1   C25  879   3.998   3.694   9.092 -0.4452 -0.3415  0.9739
   12CHL1   H25  880   4.105   3.677   9.116  0.6519  4.3837  0.4436
   12CHL1   C26  881   3.966   3.599   8.973 -0.0466 -0.4062  0.5668
   12CHL1  H26A  882   4.028   3.644   8.893 -1.9801  1.2857 -0.0703
   12CHL1  H26B  883   4.003   3.496   8.989 -0.1569 -0.8885 -1.9597
   12CHL1  H26C  884   3.856   3.597   8.957 -0.3068  0.7919  1.9275
   12CHL1   C27  885   3.992   3.844   9.053  0.4224 -0.2804  0.3446
   12CHL1  H27A  886   3.892   3.874   9.014 -0.0550  0.1367  1.8463
   12CHL1  H27B  887   4.018   3.902   9.144 -3.0361 -0.4175  1.5694
   12CHL1  H27C  888   4.073   3.854   8.977 -0.0719  1.3264 -0.0160
   13CHL1    C3  889   0.278   4.443  10.078 -0.8094 -0.0692 -0.1197
   13CHL1    H3  890   0.364   4.500  10.036  0.5922 -1.0021  1.4134
   13CHL1    O3  891   0.279   4.438  10.221 -0.4607 -0.4677 -0.2508
   13CHL1   H3'  892   0.186   4.434  10.244  0.2627  1.1293  3.9764
   13CHL1    C4  893   0.148   4.517  10.032  0.0835 -0.4800 -0.0318
   13CHL1   H4A  894   0.071   4.450  10.077  0.1574 -0.7135 -0.2565
   13CHL1   H4B  895   0.160   4.622  10.065  2.0152 -0.0980 -1.7629
   13CHL1    C5  896   0.136   4.515   9.875  0.4865 -0.2851 -0.0015
   13CHL1    C6  897   0.124   4.628   9.810 -0.5255  0.4198  0.8617
   13CHL1    H6  898   0.124   4.720   9.871  0.3770  2.0933 -1.5350
   13CHL1    C7  899   0.094   4.646   9.665 -0.4380 -0.8452 -0.1593
   13CHL1   H7A  900   0.009   4.718   9.659  1.4859  2.0338  2.9668
   13CHL1   H7B  901   0.177   4.704   9.618 -1.0890  0.7206  0.5319
   13CHL1    C8  902   0.071   4.507   9.595 -0.2030  0.8874 -0.0605
   13CHL1    H8  903  -0.035   4.481   9.618  0.7180 -2.8843  0.6517
   13CHL1   C14  904   0.091   4.509   9.446  0.0174  0.7182 -0.1471
   13CHL1   H14  905   0.194   4.544   9.426  1.3247 -2.0032  1.2106
   13CHL1   C15  906   0.003   4.612   9.367 -0.0888  0.7773  0.4116
   13CHL1  H15A  907  -0.102   4.612   9.404  0.0002  1.8842  0.7012
   13CHL1  H15B  908   0.046   4.711   9.391  3.0239 -0.3839  0.1048
   13CHL1   C16  909   0.018   4.565   9.223 -0.2658  0.0302 -0.0428
   13CHL1  H16A  910  -0.074   4.550   9.162 -0.8079  0.3918  0.6671
   13CHL1  H16B  911   0.077   4.641   9.168 -0.0566 -1.2463 -1.6260
   13CHL1   C17  912   0.104   4.431   9.233 -0.1651  0.7557  0.7456
   13CHL1   H17  913   0.209   4.466   9.220 -1.0362  3.2381 -0.2661
   13CHL1   C13  914   0.089   4.377   9.373 -0.1413  0.4147 -1.1559
   13CHL1   C18  915  -0.052   4.314   9.390 -0.5579  0.3210  0.2527
   13CHL1  H18A  916  -0.132   4.387   9.365 -0.6878  0.4996  1.1380
   13CHL1  H18B  917  -0.058   4.226   9.324  1.9790 -0.9411  1.5480
   13CHL1  H18C  918  -0.077   4.278   9.492 -0.9398 -1.1081 -0.3349
   13CHL1   C12  919   0.198   4.284   9.423 -0.1667  0.5198 -0.6467
   13CHL1  H12A  920   0.192   4.179   9.388 -0.3716 -0.1144  1.1784
   13CHL1  H12B  921   0.301   4.319   9.399  0.9725 -2.0033  0.2769
   13CHL1   C11  922   0.183   4.268   9.581  0.0307 -0.4416 -0.3598
   13CHL1  H11A  923   0.091   4.212   9.608 -0.2028  1.4277  3.2067
   13CHL1  H11B  924   0.273   4.224   9.629 -1.2555 -0.0129  2.6782
   13CHL1    C9  925   0.166   4.403   9.660 -0.0962  0.1024  0.0643
   13CHL1    H9  926   0.270   4.440   9.648  0.8749 -2.6134 -0.5407
   13CHL1   C10  927   0.149   4.371   9.805  0.5164  0.0058 -0.6586
   13CHL1   C19  928   0.008   4.309   9.825  0.3995  0.1313  0.3665
   13CHL1  H19A  929   0.022   4.199   9.810 -1.6140  0.0302 -1.0820
   13CHL1  H19B  930  -0.018   4.319   9.933 -1.1088 -0.6656  0.1138
   13CHL1  H19C  931  -0.075   4.352   9.766  1.4575  1.1681 -0.4005
   13CHL1    C1  932   0.254   4.284   9.865  0.0588  0.0791  0.0127
   13CHL1   H1A  933   0.236   4.176   9.851  0.6757 -0.0399  0.1120
   13CHL1   H1B  934   0.351   4.312   9.818  0.0299  0.1759  0.0112
   13CHL1    C2  935   0.275   4.302  10.020 -0.5820  0.6390 -0.0540
   13CHL1   H2A  936   0.376   4.262  10.043 -0.5443 -1.1492 -2.8232
   13CHL1   H2B  937   0.190   4.252  10.072  0.3177  0.6279  1.4915
   13CHL1   C20  938   0.075   4.335   9.114  0.0670 -0.3474 -0.5235
   13CHL1   H20  939  -0.033   4.309   9.115 -0.5275  1.6844  2.2040
   13CHL1   C21  940   0.159   4.205   9.115 -0.1880  0.0040 -0.6479
   13CHL1  H21A  941   0.107   4.125   9.173 -2.7734  1.4941 -0.7740
   13CHL1  H21B  942   0.259   4.220   9.161 -0.4984 -1.3260  0.5462
   13CHL1  H21C  943   0.167   4.153   9.017 -0.2314 -1.4418  0.0813
   13CHL1   C22  944   0.095   4.398   8.973  0.3849  0.1116  0.5636
   13CHL1  H22A  945   0.063   4.323   8.897  1.1583  0.4856 -0.1386
   13CHL1  H22B  946   0.020   4.480   8.966  0.9233  0.5350 -0.3278
   13CHL1   C23  947   0.236   4.451   8.943 -0.2159 -0.2280 -0.0189
   13CHL1  H23A  948   0.255   4.530   9.018  0.6563  0.7282 -1.2205
   13CHL1  H23B  949   0.319   4.378   8.959  0.6002  0.7708  0.3720
   13CHL1   C24  950   0.251   4.515   8.809  0.0038  0.1369 -0.0958
   13CHL1  H24A  951   0.356   4.551   8.798 -0.1693  0.3751 -1.1103
   13CHL1  H24B  952   0.235   4.437   8.731  0.3202  1.6607 -1.7650
   13CHL1   C25  953   0.148   4.632   8.782 -0.1394  0.3245  0.1806
   13CHL1   H25  954   0.055   4.582   8.815 -1.2519  2.7733  0.9032
   13CHL1   C26  955   0.163   4.751   8.871  0.0244  0.2468 -0.0312
   13CHL1  H26A  956   0.265   4.795   8.864 -0.0461  0.1040 -4.3795
   13CHL1  H26B  957   0.083   4.820   8.836 -0.0532 -0.2165 -0.7928
   13CHL1  H26C  958   0.151   4.738   8.981 -0.8854  1.8362  0.0905
   13CHL1   C27  959   0.149   4.667   8.629 -0.5166  0.2964  0.0347
   13CHL1  H27A  960   0.068   4.733   8.589 -0.3895  0.6854  0.4083
   13CHL1  H27B  961   0.239   4.730   8.612 -1.0256  0.7546 -1.0801
   13CHL1  H27C  962   0.168   4.578   8.566 -0.5397  0.4168 -0.1430
   14CHL1    C3  963   4.640   0.446  10.429 -0.4481  0.7551  0.4743
   14CHL1    H3  964   4.616   0.338  10.428  0.6138  0.5133  0.7309
   14CHL1    O3  965   4.642   0.495  10.567 -0.0180 -0.0168  0.2944
   14CHL1   H3'  966   4.709   0.442  10.611  0.2839  2.3961  2.9737
   14CHL1    C4  967   4.783   0.465  10.369  0.0685  0.3901 -0.1032
   14CHL1   H4A  968   4.810   0.572  10.385 -3.1064  1.4159 -0.8802
   14CHL1   H4B  969   4.854   0.412  10.436  0.8451  1.6870  0.1377
   14CHL1    C5  970   4.803   0.422  10.228  0.1599 -0.1705  0.2582
   14CHL1    C6  971   4.893   0.340  10.182  0.5299  0.1627  0.0952
   14CHL1    H6  972   4.973   0.309  10.251  1.3456  1.2440 -0.3386
   14CHL1    C7  973   4.909   0.300  10.036 -0.4008 -0.1416 -0.5603
   14CHL1   H7A  974   5.019   0.304  10.015 -0.5465  0.9757 -1.1819
   14CHL1   H7B  975   4.877   0.194  10.040  1.1472 -0.5949  1.0925
   14CHL1    C8  976   4.825   0.387   9.933 -0.1093 -0.5194  0.3694
   14CHL1    H8  977   4.887   0.479   9.922  1.2299 -1.3831  0.5607
   14CHL1   C14  978   4.806   0.323   9.792 -0.6042 -0.1901 -0.1396
   14CHL1   H14  979   4.739   0.235   9.810 -0.2950 -0.2186  0.9059
   14CHL1   C15  980   4.929   0.281   9.711  0.3212  0.5377  0.5204
   14CHL1  H15A  981   5.009   0.356   9.722  0.4137  0.2245  2.1886
   14CHL1  H15B  982   4.962   0.182   9.749 -0.7815  1.0134  2.8828
   14CHL1   C16  983   4.882   0.279   9.568 -0.0169  0.2775 -0.4177
   14CHL1  H16A  984   4.946   0.346   9.505 -0.6617  3.1155  1.7250
   14CHL1  H16B  985   4.891   0.175   9.530  2.3962 -0.2117  1.2350
   14CHL1   C17  986   4.740   0.345   9.561 -0.3606  0.3158 -0.4065
   14CHL1   H17  987   4.670   0.259   9.572  1.4595 -0.9495  2.1302
   14CHL1   C13  988   4.727   0.421   9.694 -0.0438 -1.0066  0.6421
   14CHL1   C18  989   4.793   0.560   9.681 -0.4975 -0.6929 -0.2273
   14CHL1  H18A  990   4.817   0.607   9.778  0.5008  0.1069 -0.8424
   14CHL1  H18B  991   4.894   0.556   9.635  0.4292  1.7656  1.4163
   14CHL1  H18C  992   4.731   0.631   9.623  0.1189  1.2948  1.4521
   14CHL1   C12  993   4.585   0.427   9.751 -0.0960 -0.2845 -0.4975
   14CHL1  H12A  994   4.516   0.489   9.690 -2.5884 -1.1817  1.2463
   14CHL1  H12B  995   4.545   0.323   9.750  1.1031 -0.7723 -0.4177
   14CHL1   C11  996   4.587   0.487   9.889  0.2190 -0.0968 -0.0290
   14CHL1  H11A  997   4.620   0.593   9.882  2.8638 -0.8238  0.3174
   14CHL1  H11B  998   4.481   0.491   9.925 -0.1810  3.1160 -1.1879
   14CHL1    C9  999   4.687   0.421   9.990 -0.6208  0.7640  0.5375
   14CHL1    H9 1000   4.641   0.321  10.007 -0.3567  0.4069 -0.7745
   14CHL1   C10 1001   4.696   0.491  10.132 -0.0805 -0.1754 -0.0113
   14CHL1   C19 1002   4.739   0.644  10.117  0.6960 -0.0622 -1.0402
   14CHL1  H19A 1003   4.657   0.703  10.071  0.9317  0.1487 -1.1887
   14CHL1  H19B 1004   4.769   0.686  10.215  1.6262 -1.0358 -0.8835
   14CHL1  H19C 1005   4.829   0.658  10.054 -0.0458 -2.9306 -2.9576
   14CHL1    C1 1006   4.553   0.489  10.197  0.7211 -0.5213  0.9550
   14CHL1   H1A 1007   4.483   0.557  10.143  1.8166  0.2958  0.5251
   14CHL1   H1B 1008   4.506   0.389  10.189 -1.4762  0.5919 -2.4973
   14CHL1    C2 1009   4.550   0.531  10.343  0.1191  0.6847  0.0650
   14CHL1   H2A 1010   4.446   0.521  10.382  0.7463 -2.8946  1.2205
   14CHL1   H2B 1011   4.587   0.635  10.355 -1.7060  1.3259  0.5358
   14CHL1   C20 1012   4.717   0.424   9.430  0.1403  0.4099  0.2257
   14CHL1   H20 1013   4.774   0.520   9.428 -1.8758  1.6496 -1.2245
   14CHL1   C21 1014   4.577   0.483   9.417 -0.0889  0.3346 -0.4397
   14CHL1  H21A 1015   4.561   0.542   9.324 -1.7105  1.9435  0.7863
   14CHL1  H21B 1016   4.554   0.557   9.497 -0.4396  0.1074 -0.3302
   14CHL1  H21C 1017   4.499   0.404   9.425  0.2442 -0.0559 -0.9719
   14CHL1   C22 1018   4.758   0.337   9.314 -0.6575 -0.5859  0.0572
   14CHL1  H22A 1019   4.859   0.292   9.322  0.9378  2.6003 -0.6230
   14CHL1  H22B 1020   4.688   0.252   9.300 -0.5527 -0.6040 -0.3820
   14CHL1   C23 1021   4.763   0.414   9.183 -0.8404 -0.0844  0.2669
   14CHL1  H23A 1022   4.656   0.441   9.168 -1.4221 -1.5205  1.5162
   14CHL1  H23B 1023   4.829   0.502   9.193  2.3205 -2.0764 -1.3717
   14CHL1   C24 1024   4.822   0.332   9.067 -0.8211  0.2558 -0.1870
   14CHL1  H24A 1025   4.918   0.288   9.102 -0.4580  1.1901  0.0044
   14CHL1  H24B 1026   4.752   0.247   9.048 -0.6990  0.0751  0.1517
   14CHL1   C25 1027   4.830   0.410   8.930 -0.1264  0.0496 -0.5062
   14CHL1   H25 1028   4.728   0.449   8.913 -1.4387 -2.5813  0.8115
   14CHL1   C26 1029   4.932   0.530   8.922  0.6157 -0.2076 -0.2967
   14CHL1  H26A 1030   4.912   0.589   9.014 -0.3487 -0.7660 -0.1369
   14CHL1  H26B 1031   5.040   0.505   8.914  0.5515 -1.1612  1.3685
   14CHL1  H26C 1032   4.906   0.597   8.837  2.2942  1.8872  0.7416
   14CHL1   C27 1033   4.866   0.316   8.818 -1.0746 -0.2331  0.0299
   14CHL1  H27A 1034   4.859   0.358   8.716  1.8484  2.4949  0.7987
   14CHL1  H27B 1035   4.969   0.279   8.835 -0.0633  0.8012 -3.1043
   14CHL1  H27C 1036   4.800   0.226   8.823 -0.5628 -0.5866  0.5349
   15CHL1    C3 1037   4.474   6.155  10.386 -0.0561 -0.1672 -0.0627
   15CHL1    H3 1038   4.554   6.080  10.406 -0.8758 -0.3618  3.0134
   15CHL1    O3 1039   4.415   6.179  10.515  0.1846  0.0085 -0.2516
   15CHL1   H3' 1040   4.491   6.202  10.568  1.0940 -0.5331 -1.2813
   15CHL1    C4 1041   4.517   6.282  10.326  0.6042 -0.3510 -0.8533
   15CHL1   H4A 1042   4.431   6.349  10.305  1.0730  0.2070 -1.0119
   15CHL1   H4B 1043   4.599   6.327  10.387  1.1290 -2.9641  0.5205
   15CHL1    C5 1044   4.568   6.244  10.185 -0.1198 -0.8881  0.6335
   15CHL1    C6 1045   4.697   6.272  10.149 -0.9756  0.6037  0.2725
   15CHL1    H6 1046   4.764   6.322  10.221  0.9257  0.2009 -1.1529
   15CHL1    C7 1047   4.751   6.254  10.011 -0.6432  0.9311  0.4396
   15CHL1   H7A 1048   4.786   6.356   9.983 -0.8633  1.0440  0.5779
   15CHL1   H7B 1049   4.833   6.179  10.021 -1.2183  0.3212  0.6101
   15CHL1    C8 1050   4.646   6.210   9.895  0.1561 -1.1674 -0.5215
   15CHL1    H8 1051   4.599   6.307   9.870  0.0375 -1.1422 -0.2067
   15CHL1   C14 1052   4.710   6.151   9.769  0.0334 -0.3729 -0.9474
   15CHL1   H14 1053   4.744   6.049   9.797 -0.6898 -0.1762  0.8023
   15CHL1   C15 1054   4.825   6.230   9.703  0.0933 -0.0327 -0.5840
   15CHL1  H15A 1055   4.795   6.337   9.694  1.4979  0.6210  1.6679
   15CHL1  H15B 1056   4.918   6.228   9.764 -0.1764 -0.5773 -0.1744
   15CHL1   C16 1057   4.843   6.161   9.565 -0.4841 -0.0598  1.2031
   15CHL1  H16A 1058   4.850   6.234   9.481 -1.5793  1.0974  2.0671
   15CHL1  H16B 1059   4.938   6.103   9.568 -0.5518 -0.5438 -2.1270
   15CHL1   C17 1060   4.716   6.073   9.544 -0.5135  0.6081  0.2930
   15CHL1   H17 1061   4.748   5.970   9.570  1.0415  0.2333 -2.7060
   15CHL1   C13 1062   4.614   6.114   9.656 -0.3248  0.1593  0.3443
   15CHL1   C18 1063   4.546   6.247   9.611 -0.7497  0.4961 -0.1120
   15CHL1  H18A 1064   4.476   6.215   9.531  0.3484 -1.5912 -0.2917
   15CHL1  H18B 1065   4.488   6.290   9.696 -0.2520  2.0796 -0.5293
   15CHL1  H18C 1066   4.614   6.326   9.572 -0.6167 -0.4309 -1.8936
   15CHL1   C12 1067   4.512   6.014   9.714 -0.4091  0.0552 -0.0342
   15CHL1  H12A 1068   4.431   5.982   9.645 -2.1113  3.1926  0.3098
   15CHL1  H12B 1069   4.570   5.924   9.743 -1.1781 -0.4953 -0.1929
   15CHL1   C11 1070   4.445   6.060   9.841  0.0231  0.5117 -1.1069
   15CHL1  H11A 1071   4.384   6.143   9.799 -1.0348  0.1530 -0.3341
   15CHL1  H11B 1072   4.379   5.986   9.891  1.9205  0.7664  2.0308
   15CHL1    C9 1073   4.537   6.114   9.954 -0.6062  0.2692 -0.7264
   15CHL1    H9 1074   4.596   6.024   9.982  1.1757  1.4593 -0.4588
   15CHL1   C10 1075   4.467   6.172  10.086 -0.1732 -0.3057 -0.0277
   15CHL1   C19 1076   4.358   6.269  10.037  0.6518  0.5586  0.4945
   15CHL1  H19A 1077   4.297   6.313  10.119  1.0272  1.9159  0.0699
   15CHL1  H19B 1078   4.397   6.345   9.965 -1.4810  0.5873 -0.7139
   15CHL1  H19C 1079   4.281   6.217   9.976  1.5946  0.2595 -0.4642
   15CHL1    C1 1080   4.403   6.052  10.162 -0.7039 -0.1669 -0.4425
   15CHL1   H1A 1081   4.319   6.022  10.095  1.0112 -0.0318 -2.7898
   15CHL1   H1B 1082   4.477   5.969  10.160 -1.1327 -0.5526 -1.5412
   15CHL1    C2 1083   4.366   6.077  10.305  0.8373  0.3604  0.2790
   15CHL1   H2A 1084   4.336   5.978  10.347  0.9039 -0.0990 -0.7316
   15CHL1   H2B 1085   4.273   6.136  10.303  0.5677 -0.0730 -1.5228
   15CHL1   C20 1086   4.668   6.065   9.400  0.1130  0.3223 -0.2474
   15CHL1   H20 1087   4.636   6.169   9.379  1.1937  0.6472 -0.3773
   15CHL1   C21 1088   4.549   5.964   9.375  0.1807  0.4228 -0.5291
   15CHL1  H21A 1089   4.456   6.002   9.423  1.7366  0.9325  2.3570
   15CHL1  H21B 1090   4.557   5.858   9.406 -2.7692  0.3809  0.3206
   15CHL1  H21C 1091   4.519   5.969   9.268 -3.3894  1.3281  0.3781
   15CHL1   C22 1092   4.786   6.025   9.305  0.2763  0.0702 -0.3217
   15CHL1  H22A 1093   4.747   6.046   9.203  0.5395  0.7423 -0.2888
   15CHL1  H22B 1094   4.871   6.096   9.303  0.7931 -0.5369 -0.1821
   15CHL1   C23 1095   4.839   5.876   9.307  0.2905  0.0242  0.4731
   15CHL1  H23A 1096   4.880   5.871   9.410  1.9045  0.6759 -0.0974
   15CHL1  H23B 1097   4.751   5.808   9.308 -0.4326  0.9488  1.0945
   15CHL1   C24 1098   4.939   5.856   9.198  0.0667  0.0677 -0.4629
   15CHL1  H24A 1099   4.879   5.849   9.104  0.6591 -2.4300 -0.7448
   15CHL1  H24B 1100   5.007   5.943   9.195  1.1604 -0.7803 -2.6010
   15CHL1   C25 1101   5.030   5.730   9.207 -0.0736  0.0998  0.4500
   15CHL1   H25 1102   4.981   5.641   9.162 -0.0155 -0.8106  2.1289
   15CHL1   C26 1103   5.157   5.733   9.122 -0.5379  0.3868 -0.1522
   15CHL1  H26A 1104   5.223   5.645   9.140 -0.8264  0.4464  1.3649
   15CHL1  H26B 1105   5.137   5.746   9.014  2.0984 -0.1716 -0.7862
   15CHL1  H26C 1106   5.214   5.824   9.151 -0.8935  0.0176  1.8733
   15CHL1   C27 1107   5.065   5.691   9.353  0.6334 -0.6579 -0.1159
   15CHL1  H27A 1108   5.136   5.605   9.346  1.1589 -0.1703 -1.1190
   15CHL1  H27B 1109   5.093   5.778   9.416 -1.0789 -1.8530  2.4543
   15CHL1  H27C 1110   4.972   5.653   9.399 -0.1199 -0.8974 -1.7430
   16CHL1    C3 1111   5.241   0.682  10.351 -0.3654  0.0679  0.5129
   16CHL1    H3 1112   5.347   0.695  10.382 -0.8109  0.6386  1.8219
   16CHL1    O3 1113   5.164   0.665  10.466  0.0479 -0.5490  0.2685
   16CHL1   H3' 1114   5.111   0.744  10.478 -0.0006 -0.6855  0.9812
   16CHL1    C4 1115   5.185   0.788  10.259 -0.3088 -0.0432  0.1935
   16CHL1   H4A 1116   5.077   0.766  10.247  0.4779 -2.9590 -3.6398
   16CHL1   H4B 1117   5.197   0.887  10.307 -0.5597  0.7905 -1.3775
   16CHL1    C5 1118   5.240   0.792  10.115 -0.0705  0.1840 -0.6931
   16CHL1    C6 1119   5.285   0.908  10.067 -0.4134  0.1612  0.3837
   16CHL1    H6 1120   5.281   0.996  10.132  1.3124 -0.9099  2.0269
   16CHL1    C7 1121   5.339   0.924   9.930 -0.7953  0.0782 -0.2751
   16CHL1   H7A 1122   5.305   1.016   9.877  1.2090  1.8060  1.2389
   16CHL1   H7B 1123   5.448   0.934   9.945 -0.9818  2.1625  0.0342
   16CHL1    C8 1124   5.301   0.796   9.847  0.0043 -0.4606  0.4201
   16CHL1    H8 1125   5.194   0.807   9.820 -0.1029 -1.4421  0.4050
   16CHL1   C14 1126   5.367   0.797   9.711  0.1990  0.6432 -0.1007
   16CHL1   H14 1127   5.476   0.804   9.732  0.4869  1.5739 -1.7094
   16CHL1   C15 1128   5.344   0.922   9.624  0.1926 -1.0132 -0.7699
   16CHL1  H15A 1129   5.235   0.942   9.617 -0.0119 -1.3905  0.8708
   16CHL1  H15B 1130   5.399   1.012   9.662 -0.9294 -0.9799  0.8645
   16CHL1   C16 1131   5.389   0.870   9.483  0.2775  1.2948  0.1863
   16CHL1  H16A 1132   5.314   0.905   9.409  0.3174  1.9125  0.4350
   16CHL1  H16B 1133   5.489   0.910   9.460  1.6229 -1.1614  1.3555
   16CHL1   C17 1134   5.412   0.710   9.498  0.2758 -0.0658  0.1930
   16CHL1   H17 1135   5.518   0.689   9.524 -0.2182 -0.6964  1.8222
   16CHL1   C13 1136   5.336   0.667   9.627  0.4954 -0.6923  0.3156
   16CHL1   C18 1137   5.185   0.649   9.588 -0.5807 -0.5437 -0.1004
   16CHL1  H18A 1138   5.162   0.587   9.499 -0.5318 -0.6827 -0.0171
   16CHL1  H18B 1139   5.133   0.611   9.678 -1.2976 -1.0735 -0.7218
   16CHL1  H18C 1140   5.143   0.752   9.580 -2.9591 -1.4639 -0.2892
   16CHL1   C12 1141   5.395   0.543   9.703 -0.1136  0.6109  0.1444
   16CHL1  H12A 1142   5.377   0.454   9.639 -1.1278  0.5009  0.5648
   16CHL1  H12B 1143   5.503   0.567   9.694  0.0233 -0.6960 -3.0649
   16CHL1   C11 1144   5.341   0.531   9.840  0.3558  0.4116 -0.8785
   16CHL1  H11A 1145   5.235   0.499   9.829  1.2764 -3.7066  0.5414
   16CHL1  H11B 1146   5.396   0.451   9.894 -2.0152  0.4909  1.8563
   16CHL1    C9 1147   5.339   0.668   9.923 -0.2093 -0.1527  0.8636
   16CHL1    H9 1148   5.446   0.670   9.950  0.1912 -0.6953 -0.6189
   16CHL1   C10 1149   5.249   0.658  10.044  0.0309  0.5967 -0.2810
   16CHL1   C19 1150   5.097   0.615  10.018 -0.2703  0.0138  0.5304
   16CHL1  H19A 1151   5.096   0.509   9.985 -2.4196  0.0150  0.3930
   16CHL1  H19B 1152   5.036   0.605  10.110  1.4909 -1.9127  1.5783
   16CHL1  H19C 1153   5.048   0.679   9.941 -0.3801  0.7166  1.1702
   16CHL1    C1 1154   5.308   0.554  10.150  0.5274  0.6831  0.4948
   16CHL1   H1A 1155   5.298   0.455  10.101 -0.8455  1.2605 -0.4584
   16CHL1   H1B 1156   5.418   0.566  10.160  0.9126 -1.6240 -0.4264
   16CHL1    C2 1157   5.241   0.540  10.285 -0.1177 -0.2893 -0.6873
   16CHL1   H2A 1158   5.293   0.457  10.339 -0.6508 -0.7654 -0.8900
   16CHL1   H2B 1159   5.140   0.504  10.257 -0.9837  1.5636 -0.0479
   16CHL1   C20 1160   5.386   0.633   9.369  0.6827 -0.2125 -0.3169
   16CHL1   H20 1161   5.284   0.657   9.333  0.6597 -1.0356 -0.8515
   16CHL1   C21 1162   5.399   0.484   9.398  0.1054 -0.1559  0.4692
   16CHL1  H21A 1163   5.321   0.437   9.462 -1.2206 -0.3372 -1.1989
   16CHL1  H21B 1164   5.498   0.457   9.440  0.7243  0.8424 -0.2952
   16CHL1  H21C 1165   5.394   0.419   9.307 -3.6080 -1.4416  1.3956
   16CHL1   C22 1166   5.479   0.667   9.256 -0.6295  0.0771  0.3733
   16CHL1  H22A 1167   5.479   0.776   9.238  0.6762  0.2583  1.3309
   16CHL1  H22B 1168   5.584   0.649   9.288 -0.7702  2.1482  2.2759
   16CHL1   C23 1169   5.450   0.600   9.119  0.5015  0.2989  0.7764
   16CHL1  H23A 1170   5.476   0.492   9.119  1.4574  0.4714 -1.7265
   16CHL1  H23B 1171   5.340   0.607   9.110  0.4941  0.3248  0.8900
   16CHL1   C24 1172   5.520   0.661   9.003  0.4400 -0.1016 -0.0745
   16CHL1  H24A 1173   5.469   0.756   8.980  2.1462  0.5020 -1.6341
   16CHL1  H24B 1174   5.628   0.683   9.020  0.4185 -1.5470  2.5385
   16CHL1   C25 1175   5.512   0.574   8.883  0.0633  0.2761  0.5322
   16CHL1   H25 1176   5.558   0.476   8.906  2.9846  1.9090  2.1340
   16CHL1   C26 1177   5.367   0.563   8.821 -0.6069 -0.8551  0.2811
   16CHL1  H26A 1178   5.321   0.664   8.816 -0.1692 -0.6777 -0.3278
   16CHL1  H26B 1179   5.363   0.507   8.725 -0.8332 -0.3053 -0.0362
   16CHL1  H26C 1180   5.304   0.501   8.889  0.7835 -1.4063  1.0995
   16CHL1   C27 1181   5.600   0.633   8.771 -0.1660  0.1851  0.5169
   16CHL1  H27A 1182   5.702   0.655   8.810  0.5792  2.3258 -2.2692
   16CHL1  H27B 1183   5.610   0.555   8.692 -1.5956  0.6552 -0.1519
   16CHL1  H27C 1184   5.565   0.729   8.728  1.1805  0.5997  0.2918
   17CHL1    C3 1185   1.469   5.592  10.533 -0.4324  0.2006 -0.0082
   17CHL1    H3 1186   1.384   5.664  10.536 -0.2106  0.4395  0.9419
   17CHL1    O3 1187   1.529   5.560  10.664  0.5036  0.2721 -0.2688
   17CHL1   H3' 1188   1.618   5.528  10.647  0.2618 -0.9414  0.6209
   17CHL1    C4 1189   1.419   5.462  10.469  0.1129  0.4021 -0.1718
   17CHL1   H4A 1190   1.502   5.389  10.463 -0.1964  0.1553 -2.3933
   17CHL1   H4B 1191   1.340   5.406  10.524  0.9811 -0.3177  0.3618
   17CHL1    C5 1192   1.372   5.477  10.329  0.4969  0.4720 -0.1344
   17CHL1    C6 1193   1.248   5.441  10.290  0.6790  0.1081 -0.1985
   17CHL1    H6 1194   1.172   5.409  10.362 -1.4284  3.2248 -0.8287
   17CHL1    C7 1195   1.196   5.460  10.151 -0.1665 -0.6672  0.8832
   17CHL1   H7A 1196   1.144   5.370  10.113  1.4817 -2.8057  3.2854
   17CHL1   H7B 1197   1.120   5.540  10.143 -0.1335 -0.8371 -1.9592
   17CHL1    C8 1198   1.310   5.490  10.057 -0.5096  0.0929  0.4256
   17CHL1    H8 1199   1.364   5.394  10.040 -0.4406 -0.0072  1.2034
   17CHL1   C14 1200   1.253   5.517   9.916 -0.6640 -0.7495  0.4578
   17CHL1   H14 1201   1.192   5.609   9.933  0.1867 -0.5063  2.6212
   17CHL1   C15 1202   1.168   5.411   9.852  0.0540 -0.4157  1.3598
   17CHL1  H15A 1203   1.212   5.314   9.885  3.1831  0.6653  0.7031
   17CHL1  H15B 1204   1.059   5.400   9.870 -0.6723  1.3301 -1.4691
   17CHL1   C16 1205   1.178   5.442   9.695 -0.0617 -0.1201  0.4919
   17CHL1  H16A 1206   1.229   5.357   9.644 -0.8210 -0.3686  0.1257
   17CHL1  H16B 1207   1.079   5.469   9.652 -1.0972 -0.9832  2.2314
   17CHL1   C17 1208   1.282   5.562   9.684  0.2919  0.6539  0.2360
   17CHL1   H17 1209   1.232   5.659   9.704  0.4217  0.4525  1.6650
   17CHL1   C13 1210   1.367   5.544   9.808  0.2768 -0.1484  0.0281
   17CHL1   C18 1211   1.455   5.415   9.791 -0.1797  0.0037 -0.0515
   17CHL1  H18A 1212   1.521   5.400   9.879  1.0716  0.1506 -0.9274
   17CHL1  H18B 1213   1.394   5.323   9.793  0.0732 -0.1499  1.5341
   17CHL1  H18C 1214   1.518   5.418   9.699 -0.2812  0.2856 -0.1139
   17CHL1   C12 1215   1.455   5.662   9.857 -0.1128  0.3789 -0.6131
   17CHL1  H12A 1216   1.537   5.689   9.788  1.4671 -1.3927  0.5013
   17CHL1  H12B 1217   1.379   5.743   9.870 -2.2005 -1.8513  2.7637
   17CHL1   C11 1218   1.509   5.642   9.998  0.2921 -0.6477  0.0151
   17CHL1  H11A 1219   1.598   5.576   9.990  0.6280 -0.1607 -0.3333
   17CHL1  H11B 1220   1.557   5.737  10.031  0.2716 -0.7664  0.3950
   17CHL1    C9 1221   1.408   5.602  10.102  0.3021 -0.2638  0.0716
   17CHL1    H9 1222   1.333   5.682  10.122 -0.0363 -0.3985 -0.6135
   17CHL1   C10 1223   1.473   5.554  10.235  0.3458  0.0817 -0.0334
   17CHL1   C19 1224   1.589   5.459  10.206  0.2996 -0.2348  0.8107
   17CHL1  H19A 1225   1.620   5.411  10.302 -1.7620 -1.6023  0.8417
   17CHL1  H19B 1226   1.557   5.376  10.140 -0.0389  0.2708  0.3402
   17CHL1  H19C 1227   1.669   5.520  10.160 -1.9445  2.3397  0.0862
   17CHL1    C1 1228   1.539   5.679  10.307  0.2992  0.0579 -0.7302
   17CHL1   H1A 1229   1.629   5.722  10.257  1.5256  1.2499  2.2571
   17CHL1   H1B 1230   1.459   5.757  10.307  1.6000  1.5799  2.2777
   17CHL1    C2 1231   1.582   5.657  10.453  0.2032 -0.3735 -0.4708
   17CHL1   H2A 1232   1.617   5.753  10.497 -0.6732  1.5393 -3.5577
   17CHL1   H2B 1233   1.675   5.598  10.443  1.7778  2.2971 -4.0822
   17CHL1   C20 1234   1.348   5.560   9.539 -0.2991 -0.7264 -0.4891
   17CHL1   H20 1235   1.399   5.463   9.524 -1.0551 -1.1220 -0.5370
   17CHL1   C21 1236   1.447   5.675   9.525 -0.8019  0.4044 -0.1339
   17CHL1  H21A 1237   1.392   5.764   9.559 -0.0563 -0.1024  2.6050
   17CHL1  H21B 1238   1.465   5.704   9.419 -4.2871  0.6100 -0.7747
   17CHL1  H21C 1239   1.537   5.664   9.590  0.9342  0.6546 -2.3562
   17CHL1   C22 1240   1.243   5.580   9.431  0.0158 -1.0280  0.4536
   17CHL1  H22A 1241   1.152   5.519   9.448 -1.2602  1.3089  2.6696
   17CHL1  H22B 1242   1.207   5.684   9.438  1.8822 -0.3565  0.5471
   17CHL1   C23 1243   1.300   5.549   9.288  0.1264 -0.2393  0.7844
   17CHL1  H23A 1244   1.398   5.597   9.268 -0.6473  0.7424 -0.8390
   17CHL1  H23B 1245   1.322   5.440   9.288  1.8522  0.0763  1.8721
   17CHL1   C24 1246   1.219   5.594   9.170 -0.1672  0.3851 -0.4677
   17CHL1  H24A 1247   1.118   5.548   9.173  0.5395 -1.2481 -0.6659
   17CHL1  H24B 1248   1.205   5.703   9.186  1.6619  0.6465 -0.4967
   17CHL1   C25 1249   1.292   5.590   9.034  1.1776 -0.2860  0.3155
   17CHL1   H25 1250   1.376   5.662   9.048  0.6466  0.2111  1.0189
   17CHL1   C26 1251   1.348   5.454   8.998  1.0390 -0.1202 -0.6938
   17CHL1  H26A 1252   1.418   5.413   9.073  1.7246  0.5885 -0.9393
   17CHL1  H26B 1253   1.254   5.396   8.982  1.6834 -0.6862 -2.7185
   17CHL1  H26C 1254   1.406   5.445   8.904  1.2814 -2.4565 -0.3960
   17CHL1   C27 1255   1.203   5.643   8.921 -0.4730  0.5264  0.3222
   17CHL1  H27A 1256   1.172   5.749   8.934  0.5681  0.8349  0.3310
   17CHL1  H27B 1257   1.250   5.625   8.822 -2.0980 -0.7411 -0.2563
   17CHL1  H27C 1258   1.111   5.581   8.917  0.1043 -0.3373  0.1394
   18CHL1    C3 1259   3.956   2.530  10.450  0.2611  0.1137 -0.2522
   18CHL1    H3 1260   3.945   2.424  10.479  0.0514 -0.0105 -0.7799
   18CHL1    O3 1261   3.904   2.625  10.543 -0.9128  0.0417  0.1278
   18CHL1   H3' 1262   3.973   2.642  10.608 -0.8363  1.1373 -0.2096
   18CHL1    C4 1263   4.102   2.554  10.406  0.4563 -0.5571 -0.1602
   18CHL1   H4A 1264   4.101   2.661  10.378  1.2734 -0.0600  1.5786
   18CHL1   H4B 1265   4.172   2.548  10.492 -1.3312 -1.1530  1.3083
   18CHL1    C5 1266   4.143   2.463  10.294  0.4192 -0.2400  0.7639
   18CHL1    C6 1267   4.247   2.385  10.305 -0.6306 -0.4616 -0.1089
   18CHL1    H6 1268   4.299   2.394  10.401 -1.1450 -0.9168  0.2173
   18CHL1    C7 1269   4.306   2.301  10.198  0.6923 -0.6757 -0.3489
   18CHL1   H7A 1270   4.415   2.317  10.190  0.3707  1.1097 -1.8458
   18CHL1   H7B 1271   4.288   2.194  10.224  0.8026 -0.3741  1.0419
   18CHL1    C8 1272   4.244   2.339  10.056 -0.5599  0.3417  0.3143
   18CHL1    H8 1273   4.281   2.439  10.025  0.4417  0.2595  1.2081
   18CHL1   C14 1274   4.279   2.241   9.950  0.2350  0.5207  0.5280
   18CHL1   H14 1275   4.231   2.148   9.987  1.5571  0.2638  1.6578
   18CHL1   C15 1276   4.428   2.197   9.929 -0.2088 -0.2778  0.1357
   18CHL1  H15A 1277   4.497   2.278   9.962  0.0213 -0.2854 -0.3134
   18CHL1  H15B 1278   4.435   2.114  10.003 -0.0481 -1.5948 -1.3008
   18CHL1   C16 1279   4.437   2.154   9.788 -0.2257  0.3387 -0.3512
   18CHL1  H16A 1280   4.502   2.228   9.737  4.0513 -1.5405  1.9220
   18CHL1  H16B 1281   4.498   2.062   9.781  0.3546  0.5878  1.1357
   18CHL1   C17 1282   4.296   2.166   9.719  0.4016 -0.5833 -1.0891
   18CHL1   H17 1283   4.244   2.072   9.746  0.0627 -0.3090 -0.7739
   18CHL1   C13 1284   4.232   2.269   9.805 -0.1123 -0.0510 -0.4059
   18CHL1   C18 1285   4.267   2.409   9.746 -0.3646 -0.2352  0.2334
   18CHL1  H18A 1286   4.234   2.487   9.817  0.1336 -1.2188  1.5885
   18CHL1  H18B 1287   4.377   2.414   9.728 -0.6753  0.0628 -1.9130
   18CHL1  H18C 1288   4.231   2.426   9.642 -0.5562  0.9338  0.4830
   18CHL1   C12 1289   4.079   2.257   9.829 -0.6136 -0.7523  0.5311
   18CHL1  H12A 1290   4.015   2.279   9.740 -0.0136  0.0880  0.2971
   18CHL1  H12B 1291   4.061   2.149   9.848  0.7801 -1.2827 -0.9036
   18CHL1   C11 1292   4.024   2.350   9.932 -0.4002 -0.2094  0.0593
   18CHL1  H11A 1293   4.041   2.452   9.890 -0.6012  0.6329  1.8946
   18CHL1  H11B 1294   3.915   2.332   9.946 -0.2284 -0.5928  1.0089
   18CHL1    C9 1295   4.095   2.352  10.074  0.4601  0.0758 -0.2332
   18CHL1    H9 1296   4.062   2.251  10.107  1.8264 -1.1721 -2.4866
   18CHL1   C10 1297   4.059   2.466  10.172 -0.0280 -0.6294  0.0320
   18CHL1   C19 1298   4.073   2.605  10.107 -0.1103 -0.4608  0.2340
   18CHL1  H19A 1299   4.179   2.625  10.083 -0.5776 -0.2284 -1.8768
   18CHL1  H19B 1300   4.016   2.609  10.011  1.7867 -0.1210 -0.9233
   18CHL1  H19C 1301   4.042   2.688  10.174  3.4876 -0.1504  1.7139
   18CHL1    C1 1302   3.916   2.438  10.215  0.4625  0.0398  0.5517
   18CHL1   H1A 1303   3.849   2.454  10.128 -3.0096  0.9252  3.1560
   18CHL1   H1B 1304   3.906   2.334  10.254  0.7024 -0.4795 -0.7047
   18CHL1    C2 1305   3.866   2.535  10.330 -0.2948  0.4257  0.1205
   18CHL1   H2A 1306   3.762   2.499  10.345 -0.3440  0.3174 -0.4672
   18CHL1   H2B 1307   3.863   2.640  10.293 -1.5185 -0.0171 -1.1194
   18CHL1   C20 1308   4.294   2.171   9.562 -0.3705  0.0697  0.0661
   18CHL1   H20 1309   4.331   2.272   9.533  0.6101  0.3517  2.0847
   18CHL1   C21 1310   4.148   2.170   9.520  0.4470 -1.3333  0.4830
   18CHL1  H21A 1311   4.105   2.267   9.553  0.5440 -0.4583 -1.7893
   18CHL1  H21B 1312   4.102   2.084   9.574 -0.4358 -2.9512 -2.6253
   18CHL1  H21C 1313   4.138   2.160   9.410 -0.5026  1.4103  0.2394
   18CHL1   C22 1314   4.375   2.051   9.500 -0.1945  0.1248  0.0039
   18CHL1  H22A 1315   4.481   2.068   9.529 -0.5387  1.1156  0.7060
   18CHL1  H22B 1316   4.331   1.955   9.537  0.4008 -0.2441 -0.2257
   18CHL1   C23 1317   4.362   2.052   9.345 -0.9899  0.3782  0.2645
   18CHL1  H23A 1318   4.262   2.019   9.310 -0.7615  0.3764 -0.3940
   18CHL1  H23B 1319   4.384   2.154   9.307 -0.3744 -0.1992 -1.0014
   18CHL1   C24 1320   4.458   1.958   9.266 -0.1284  0.0652 -0.8330
   18CHL1  H24A 1321   4.563   1.992   9.273 -1.2589  3.9418 -0.2733
   18CHL1  H24B 1322   4.439   1.856   9.306  1.7953  0.4012  1.0750
   18CHL1   C25 1323   4.429   1.954   9.115 -0.2734 -0.1194  0.2240
   18CHL1   H25 1324   4.442   2.054   9.069  2.1310  0.1971  1.3996
   18CHL1   C26 1325   4.533   1.864   9.039  0.6796  0.4188 -1.2022
   18CHL1  H26A 1326   4.636   1.901   9.059  0.4809  1.0644 -1.3433
   18CHL1  H26B 1327   4.527   1.761   9.079  0.6383  0.9678  0.2570
   18CHL1  H26C 1328   4.511   1.862   8.930  1.4997  0.2724 -1.3736
   18CHL1   C27 1329   4.287   1.904   9.075  0.3106 -0.2042  0.4631
   18CHL1  H27A 1330   4.276   1.807   9.128 -0.3110  0.3044  1.2857
   18CHL1  H27B 1331   4.212   1.979   9.110  0.2481  0.0509 -0.1914
   18CHL1  H27C 1332   4.287   1.889   8.965  0.1019 -2.1457  0.6885
   19CHL1    C3 1333   3.351   0.092  10.153  0.1637 -0.0869  0.2941
   19CHL1    H3 1334   3.391   0.194  10.139  1.3182 -0.3482  1.5084
   19CHL1    O3 1335   3.330   0.088  10.292 -0.0455 -0.2749  0.1029
   19CHL1   H3' 1336   3.381   0.162  10.325  1.0866 -0.5354 -0.9666
   19CHL1    C4 1337   3.211   0.079  10.087  0.3628  0.2031 -1.0904
   19CHL1   H4A 1338   3.161  -0.014  10.122  2.1005 -0.3716  0.0253
   19CHL1   H4B 1339   3.152   0.166  10.121 -0.3515 -1.2654  1.7846
   19CHL1    C5 1340   3.220   0.069   9.935 -0.1336 -0.4499 -0.1047
   19CHL1    C6 1341   3.154   0.156   9.860 -0.2535  0.6735  0.3345
   19CHL1    H6 1342   3.082   0.226   9.906 -1.4795  0.1809 -0.7860
   19CHL1    C7 1343   3.141   0.165   9.713 -1.0853 -0.0605 -0.2838
   19CHL1   H7A 1344   3.034   0.174   9.685 -1.2681  1.6713  0.8198
   19CHL1   H7B 1345   3.202   0.255   9.689 -3.3101  1.8954  0.9695
   19CHL1    C8 1346   3.215   0.037   9.647  1.0425 -0.3169 -0.1780
   19CHL1    H8 1347   3.141  -0.045   9.648  1.1910 -0.4748 -1.1233
   19CHL1   C14 1348   3.254   0.064   9.503  0.3194  0.1629 -0.1045
   19CHL1   H14 1349   3.335   0.139   9.510 -0.5485  1.5732 -3.4606
   19CHL1   C15 1350   3.148   0.130   9.426  0.2152  0.5299  0.3336
   19CHL1  H15A 1351   3.052   0.075   9.420  0.2158  0.5548  0.0980
   19CHL1  H15B 1352   3.127   0.239   9.434 -0.6475  0.5838 -1.9689
   19CHL1   C16 1353   3.215   0.127   9.281 -0.4349  0.4053 -0.2855
   19CHL1  H16A 1354   3.133   0.105   9.209 -1.0632  0.2033  0.4658
   19CHL1  H16B 1355   3.261   0.220   9.242  0.1075 -0.3396 -1.4620
   19CHL1   C17 1356   3.333   0.026   9.290 -0.5094  1.3134  0.4848
   19CHL1   H17 1357   3.425   0.086   9.302  0.0162  0.8907 -1.1185
   19CHL1   C13 1358   3.310  -0.048   9.422 -0.2690  0.0135 -0.2964
   19CHL1   C18 1359   3.204  -0.162   9.409  0.6712  0.1082 -0.6943
   19CHL1  H18A 1360   3.107  -0.116   9.378  0.3039  1.7701  2.5149
   19CHL1  H18B 1361   3.235  -0.238   9.334 -1.1289 -1.5189  0.1108
   19CHL1  H18C 1362   3.188  -0.216   9.504 -0.3068 -0.7001 -1.2883
   19CHL1   C12 1363   3.437  -0.090   9.499 -0.5272 -0.0346  0.5193
   19CHL1  H12A 1364   3.479  -0.186   9.464  0.6412  0.1305  1.3792
   19CHL1  H12B 1365   3.515  -0.010   9.493 -0.2664 -0.3095  0.2062
   19CHL1   C11 1366   3.414  -0.120   9.646  0.6156  0.0683 -0.0915
   19CHL1  H11A 1367   3.345  -0.207   9.654 -0.7963  1.2847  2.5337
   19CHL1  H11B 1368   3.509  -0.138   9.700 -1.0026 -0.4173  2.8260
   19CHL1    C9 1369   3.336  -0.010   9.725 -0.2410 -0.0523 -0.1578
   19CHL1    H9 1370   3.395   0.084   9.718 -2.0727  1.0758 -1.1707
   19CHL1   C10 1371   3.316  -0.036   9.877 -0.6450  0.0780  0.1762
   19CHL1   C19 1372   3.251  -0.174   9.895  0.1139 -0.3903 -0.4045
   19CHL1  H19A 1373   3.154  -0.188   9.843  0.0181 -1.7578  0.0989
   19CHL1  H19B 1374   3.314  -0.260   9.862 -0.4826 -0.8084 -0.4646
   19CHL1  H19C 1375   3.233  -0.196  10.002 -1.1293 -1.6973 -0.8537
   19CHL1    C1 1376   3.453  -0.021   9.949  0.1210  0.6226 -0.2029
   19CHL1   H1A 1377   3.520  -0.105   9.922 -0.0212  0.8864 -1.4741
   19CHL1   H1B 1378   3.506   0.072   9.917  0.9227  1.2014  2.5737
   19CHL1    C2 1379   3.444  -0.014  10.102 -0.1070  1.3380  0.3434
   19CHL1   H2A 1380   3.550   0.010  10.123 -0.0482  2.9489 -1.4260
   19CHL1   H2B 1381   3.412  -0.112  10.143 -0.2717  1.6656  1.0018
   19CHL1   C20 1382   3.350  -0.063   9.160  0.5335  0.6314  1.1459
   19CHL1   H20 1383   3.251  -0.112   9.157  0.6318  0.4682  0.5003
   19CHL1   C21 1384   3.476  -0.155   9.163 -0.4849 -0.0009  0.1624
   19CHL1  H21A 1385   3.491  -0.213   9.069  1.7710 -2.7457  2.0410
   19CHL1  H21B 1386   3.473  -0.233   9.243  0.4173  1.0502  1.2589
   19CHL1  H21C 1387   3.571  -0.103   9.184  0.7361 -1.7212 -0.8739
   19CHL1   C22 1388   3.347   0.042   9.038  0.5359  0.1879  0.0423
   19CHL1  H22A 1389   3.354  -0.019   8.945  1.4387  0.3447 -0.0030
   19CHL1  H22B 1390   3.257   0.106   9.028 -0.2198 -1.0311 -1.3503
   19CHL1   C23 1391   3.471   0.133   9.028 -0.2186  0.3991 -0.6985
   19CHL1  H23A 1392   3.459   0.209   9.107  1.2876  0.2639 -0.3116
   19CHL1  H23B 1393   3.570   0.084   9.036  1.2967  2.6781 -3.4591
   19CHL1   C24 1394   3.475   0.199   8.891 -0.0324 -0.5181  0.4112
   19CHL1  H24A 1395   3.498   0.130   8.808  0.8977 -2.3076  2.0809
   19CHL1  H24B 1396   3.376   0.245   8.870  0.4867  1.1142  1.2986
   19CHL1   C25 1397   3.582   0.317   8.885 -0.3977  0.2684  0.1975
   19CHL1   H25 1398   3.560   0.389   8.966  1.5786  0.2316  0.8170
   19CHL1   C26 1399   3.723   0.264   8.908  1.1599  0.2101  0.0586
   19CHL1  H26A 1400   3.755   0.188   8.833  0.4316 -0.2743  0.2300
   19CHL1  H26B 1401   3.781   0.359   8.907  0.2438  0.7886 -1.5811
   19CHL1  H26C 1402   3.731   0.212   9.006 -0.0882  2.1271  1.2443
   19CHL1   C27 1403   3.570   0.371   8.740  0.2134 -0.6341  0.0910
   19CHL1  H27A 1404   3.651   0.442   8.717  0.4266 -0.4729  1.2659
   19CHL1  H27B 1405   3.585   0.287   8.669  0.7712  0.0735 -0.6452
   19CHL1  H27C 1406   3.469   0.417   8.733 -0.7013 -2.3720  0.9702
   20CHL1    C3 1407   5.717   6.631  10.284 -0.4258 -0.3949  0.1714
   20CHL1    H3 1408   5.637   6.708  10.271  0.6622  0.9060  0.9171
   20CHL1    O3 1409   5.761   6.630  10.420 -0.1200 -0.5845 -0.2000
   20CHL1   H3' 1410   5.832   6.565  10.425  0.3179  0.0053  2.2508
   20CHL1    C4 1411   5.658   6.499  10.241  0.2805 -0.4244 -0.7656
   20CHL1   H4A 1412   5.740   6.426  10.258  0.9239  0.4046 -0.2004
   20CHL1   H4B 1413   5.589   6.473  10.324  0.5917 -1.7906 -0.9173
   20CHL1    C5 1414   5.611   6.496  10.099  0.0547 -0.5906 -0.4309
   20CHL1    C6 1415   5.487   6.468  10.070 -0.6183  0.3798  0.1573
   20CHL1    H6 1416   5.418   6.452  10.154  1.1967  1.5109  1.9385
   20CHL1    C7 1417   5.431   6.462   9.929  0.2322 -0.2325 -0.6908
   20CHL1   H7A 1418   5.371   6.369   9.922  0.0469 -0.1673 -0.0204
   20CHL1   H7B 1419   5.361   6.547   9.911 -2.5830 -2.1010  0.6499
   20CHL1    C8 1420   5.547   6.455   9.819  0.0333  0.1429 -0.3282
   20CHL1    H8 1421   5.587   6.351   9.822 -3.1477 -1.1464  1.7472
   20CHL1   C14 1422   5.483   6.483   9.688 -0.1670  1.2901 -0.2034
   20CHL1   H14 1423   5.454   6.590   9.694 -2.4880  0.7429 -0.5901
   20CHL1   C15 1424   5.354   6.406   9.647 -0.1630  0.3074 -0.1113
   20CHL1  H15A 1425   5.349   6.298   9.671 -0.4947  0.0524 -1.2782
   20CHL1  H15B 1426   5.265   6.458   9.689  0.4304  0.5903  0.8246
   20CHL1   C16 1427   5.360   6.412   9.495  0.0687 -0.4411 -0.4046
   20CHL1  H16A 1428   5.354   6.311   9.451 -1.1998 -0.3138 -0.5634
   20CHL1  H16B 1429   5.271   6.465   9.455 -2.0687 -1.5002  2.5546
   20CHL1   C17 1430   5.487   6.490   9.460  0.0127  0.2181 -0.0549
   20CHL1   H17 1431   5.457   6.597   9.452 -1.8259 -0.2047  0.7032
   20CHL1   C13 1432   5.587   6.469   9.573  0.1680 -0.2586  0.0692
   20CHL1   C18 1433   5.639   6.327   9.562 -0.1406 -0.0142 -0.3149
   20CHL1  H18A 1434   5.554   6.260   9.538 -1.0151  1.3422 -1.1678
   20CHL1  H18B 1435   5.705   6.319   9.473 -0.4349  0.8199 -0.6219
   20CHL1  H18C 1436   5.696   6.295   9.652 -0.9828  1.8170  0.9410
   20CHL1   C12 1437   5.707   6.569   9.597  0.8912  1.1066 -0.6970
   20CHL1  H12A 1438   5.776   6.551   9.512  2.7765 -0.9315  1.1287
   20CHL1  H12B 1439   5.669   6.673   9.593 -0.7082  0.6868  1.4922
   20CHL1   C11 1440   5.771   6.543   9.734  0.2535  0.1606 -0.5264
   20CHL1  H11A 1441   5.810   6.439   9.738  0.5645  0.3098  1.1707
   20CHL1  H11B 1442   5.855   6.611   9.758  0.1239  1.0712 -2.4487
   20CHL1    C9 1443   5.663   6.547   9.851 -0.1512  0.0452 -0.0505
   20CHL1    H9 1444   5.615   6.647   9.851  0.6341  0.4328 -0.0732
   20CHL1   C10 1445   5.722   6.533   9.993  0.3658  0.9233 -0.5261
   20CHL1   C19 1446   5.824   6.409   9.991 -0.5269  0.0981 -0.2260
   20CHL1  H19A 1447   5.855   6.389  10.096 -2.4653  1.6537  0.7142
   20CHL1  H19B 1448   5.786   6.315   9.946 -1.3189  0.7313 -0.9071
   20CHL1  H19C 1449   5.917   6.440   9.940 -0.9103  1.9235  0.1233
   20CHL1    C1 1450   5.805   6.658  10.039  0.8190  0.6460 -0.3404
   20CHL1   H1A 1451   5.892   6.658   9.970  1.2105 -1.2509  0.1222
   20CHL1   H1B 1452   5.745   6.751  10.028 -3.4004 -1.6164  1.3441
   20CHL1    C2 1453   5.840   6.661  10.192  0.3759  0.0991 -0.2625
   20CHL1   H2A 1454   5.878   6.760  10.226  0.4061  0.2712 -0.7880
   20CHL1   H2B 1455   5.908   6.576  10.214  0.9254 -0.0216 -2.2064
   20CHL1   C20 1456   5.536   6.449   9.315  0.7397  0.8773  0.0773
   20CHL1   H20 1457   5.563   6.341   9.310 -0.5795  0.4322  1.6076
   20CHL1   C21 1458   5.657   6.527   9.272 -0.4266 -0.8298 -0.1634
   20CHL1  H21A 1459   5.753   6.490   9.315  0.1801 -0.2836 -1.0100
   20CHL1  H21B 1460   5.632   6.630   9.305  2.5400 -0.5992  1.7195
   20CHL1  H21C 1461   5.668   6.542   9.163 -1.6816  1.4654 -0.0414
   20CHL1   C22 1462   5.426   6.479   9.205 -0.4417 -0.2509  0.4105
   20CHL1  H22A 1463   5.360   6.561   9.238 -1.0086 -0.5601  0.0638
   20CHL1  H22B 1464   5.472   6.511   9.108 -0.4286 -0.1822  0.4396
   20CHL1   C23 1465   5.322   6.368   9.176 -0.3111  0.7695 -0.3519
   20CHL1  H23A 1466   5.369   6.268   9.173  2.0380  1.8416 -2.3114
   20CHL1  H23B 1467   5.238   6.378   9.250 -1.3524  1.9280 -1.6357
   20CHL1   C24 1468   5.262   6.379   9.031  0.3586  0.9604  0.4263
   20CHL1  H24A 1469   5.216   6.480   9.022  0.8514  1.3935  2.2844
   20CHL1  H24B 1470   5.347   6.398   8.962  0.7188  2.1753  1.1891
   20CHL1   C25 1471   5.164   6.272   8.992  0.7744 -0.4085 -0.3978
   20CHL1   H25 1472   5.218   6.176   8.982  1.1995 -0.4646  1.8229
   20CHL1   C26 1473   5.057   6.250   9.113 -0.7074 -0.4598  0.1784
   20CHL1  H26A 1474   5.104   6.229   9.212  0.2318 -0.0901 -0.1806
   20CHL1  H26B 1475   4.996   6.339   9.138  0.1245  0.4688 -1.0055
   20CHL1  H26C 1476   4.990   6.167   9.083 -1.7914  0.7563 -0.8851
   20CHL1   C27 1477   5.080   6.297   8.867 -0.9893  0.3153 -0.1780
   20CHL1  H27A 1478   5.153   6.285   8.785  0.3464 -0.2906  1.0664
   20CHL1  H27B 1479   4.987   6.236   8.859 -0.9367 -0.0389  1.5398
   20CHL1  H27C 1480   5.047   6.403   8.856 -0.2248  0.6255  0.4753
   21CHL1    C3 1481   4.564   3.976  10.252  0.0396  0.3456  0.0233
   21CHL1    H3 1482   4.588   4.084  10.237  0.7244  0.0137 -1.4355
   21CHL1    O3 1483   4.569   3.949  10.395  0.1379 -0.3815  0.1867
   21CHL1   H3' 1484   4.654   3.969  10.434 -1.2756  0.4076  3.1045
   21CHL1    C4 1485   4.428   3.940  10.196  0.1821 -0.5588  0.4084
   21CHL1   H4A 1486   4.404   3.837  10.231 -0.7051 -0.1185  1.1264
   21CHL1   H4B 1487   4.356   4.008  10.245  0.8185 -0.3000  1.0064
   21CHL1    C5 1488   4.413   3.949  10.044 -0.3592 -0.1166  0.2178
   21CHL1    C6 1489   4.323   4.025   9.982  0.8312  0.1195  0.4289
   21CHL1    H6 1490   4.250   4.071  10.049 -1.3620  0.4125 -2.0372
   21CHL1    C7 1491   4.304   4.031   9.828  0.0634  0.3297 -0.3104
   21CHL1   H7A 1492   4.198   4.019   9.799  0.8360 -2.0006 -2.6168
   21CHL1   H7B 1493   4.329   4.131   9.786  1.4757  0.3217  0.4463
   21CHL1    C8 1494   4.378   3.921   9.758  0.4731  0.0852 -0.6189
   21CHL1    H8 1495   4.322   3.826   9.773  0.4533 -0.2590 -2.5572
   21CHL1   C14 1496   4.393   3.956   9.606  0.4536 -0.4725  0.1892
   21CHL1   H14 1497   4.460   4.045   9.606 -0.1627  0.0005 -0.7312
   21CHL1   C15 1498   4.270   4.000   9.532 -0.2843 -0.7192 -0.4174
   21CHL1  H15A 1499   4.187   3.927   9.542 -0.1601 -1.2552 -2.6554
   21CHL1  H15B 1500   4.244   4.103   9.565  3.5292  0.0977  0.5037
   21CHL1   C16 1501   4.319   4.008   9.384 -0.7297  0.1234 -0.2879
   21CHL1  H16A 1502   4.246   3.956   9.320  0.6357  0.7233 -2.4340
   21CHL1  H16B 1503   4.321   4.110   9.341  1.5914  0.3956  0.2886
   21CHL1   C17 1504   4.459   3.929   9.370  0.5764  1.0005 -0.9679
   21CHL1   H17 1505   4.543   4.002   9.366  1.8318 -0.2535  0.9865
   21CHL1   C13 1506   4.465   3.854   9.510  0.1502 -0.3061  0.6136
   21CHL1   C18 1507   4.375   3.722   9.495 -0.1895  0.0188  0.1037
   21CHL1  H18A 1508   4.411   3.649   9.420 -2.2908 -0.9494 -0.0488
   21CHL1  H18B 1509   4.376   3.676   9.597 -0.9121  0.4519  0.3167
   21CHL1  H18C 1510   4.268   3.744   9.476 -1.5424  0.0330  5.8210
   21CHL1   C12 1511   4.607   3.842   9.558 -0.3587 -0.4341  0.7826
   21CHL1  H12A 1512   4.647   3.747   9.516 -0.0423  0.6424 -1.5249
   21CHL1  H12B 1513   4.677   3.927   9.538 -0.7237  0.1026  1.7243
   21CHL1   C11 1514   4.603   3.812   9.711  0.2483  0.4888 -0.5409
   21CHL1  H11A 1515   4.565   3.708   9.704 -2.7689  1.5336 -1.3517
   21CHL1  H11B 1516   4.711   3.806   9.739 -0.3416  0.4309  1.9108
   21CHL1    C9 1517   4.518   3.903   9.805 -0.8579 -0.1956  0.3671
   21CHL1    H9 1518   4.576   3.995   9.784 -1.9289 -0.0728 -2.5128
   21CHL1   C10 1519   4.524   3.870   9.960 -0.0904 -0.2469  0.2957
   21CHL1   C19 1520   4.496   3.721   9.972 -0.5522 -0.3781 -0.1767
   21CHL1  H19A 1521   4.580   3.667   9.923  0.0156 -0.3354  0.7236
   21CHL1  H19B 1522   4.493   3.689  10.078 -2.4016 -1.6981 -0.5765
   21CHL1  H19C 1523   4.401   3.694   9.922 -1.6439  2.9854 -0.1281
   21CHL1    C1 1524   4.664   3.906  10.026  0.2540  0.6218  0.1375
   21CHL1   H1A 1525   4.747   3.844   9.987  0.1846  1.1898 -0.9662
   21CHL1   H1B 1526   4.698   4.010  10.005  2.1036  0.0369  0.0578
   21CHL1    C2 1527   4.667   3.887  10.184 -0.2506  0.6032  0.5000
   21CHL1   H2A 1528   4.771   3.915  10.211  0.0444 -2.1608  2.6125
   21CHL1   H2B 1529   4.642   3.783  10.210 -0.9055  0.5253 -0.3915
   21CHL1   C20 1530   4.471   3.854   9.238 -0.1604 -0.9523 -0.0298
   21CHL1   H20 1531   4.401   3.769   9.231 -0.2227 -0.8310 -1.1333
   21CHL1   C21 1532   4.616   3.790   9.222  0.3772 -0.5306 -0.4184
   21CHL1  H21A 1533   4.676   3.876   9.186  0.6741 -1.1433 -1.4199
   21CHL1  H21B 1534   4.615   3.714   9.141  1.1834 -0.8657 -0.1161
   21CHL1  H21C 1535   4.662   3.749   9.315  0.8783  0.5280 -0.1872
   21CHL1   C22 1536   4.446   3.949   9.114 -0.4028  0.7562 -0.3636
   21CHL1  H22A 1537   4.336   3.967   9.109 -0.3059  1.0873 -1.5497
   21CHL1  H22B 1538   4.496   4.048   9.123  0.3741  0.6298 -2.7121
   21CHL1   C23 1539   4.506   3.884   8.979  0.5707  0.1140 -0.2220
   21CHL1  H23A 1540   4.610   3.922   8.973 -0.0297  2.3038  1.9088
   21CHL1  H23B 1541   4.499   3.773   8.975 -0.4705  0.0665  1.8154
   21CHL1   C24 1542   4.443   3.933   8.848  0.4689  0.1868  0.6483
   21CHL1  H24A 1543   4.405   4.036   8.864  2.2684  0.6344  2.5442
   21CHL1  H24B 1544   4.522   3.925   8.770  0.8208  1.6847  0.8064
   21CHL1   C25 1545   4.321   3.849   8.806  0.3031  0.2037 -0.1497
   21CHL1   H25 1546   4.255   3.839   8.895 -0.8913 -0.9513 -1.1259
   21CHL1   C26 1547   4.238   3.917   8.694 -0.4194  0.1931 -0.4649
   21CHL1  H26A 1548   4.296   3.940   8.601 -3.7156  1.2509 -2.4297
   21CHL1  H26B 1549   4.157   3.847   8.666  1.9808 -2.2299 -1.8915
   21CHL1  H26C 1550   4.189   4.008   8.734  0.8840  0.3313  0.9014
   21CHL1   C27 1551   4.361   3.704   8.763  0.5510  0.1165 -0.3495
   21CHL1  H27A 1552   4.273   3.654   8.719  1.5884 -0.6693 -1.6155
   21CHL1  H27B 1553   4.435   3.715   8.681  1.6704  1.2583  0.7643
   21CHL1  H27C 1554   4.406   3.637   8.839  1.7136  0.3175 -0.8210
   22CHL1    C3 1555   6.697   4.971  10.076  0.5736 -1.2935 -0.6599
   22CHL1    H3 1556   6.803   4.986  10.048  0.2354  1.8915 -0.5345
   22CHL1    O3 1557   6.684   4.944  10.218 -0.6914 -0.5965  0.3749
   22CHL1   H3' 1558   6.730   5.016  10.262 -2.2924  0.4589  0.4395
   22CHL1    C4 1559   6.629   5.106  10.045  0.2391  0.1020 -0.7442
   22CHL1   H4A 1560   6.525   5.113  10.085 -0.7700  1.0624 -3.3418
   22CHL1   H4B 1561   6.675   5.186  10.108 -1.8499  0.4953  0.3948
   22CHL1    C5 1562   6.638   5.134   9.899  1.4411 -0.2347  0.5166
   22CHL1    C6 1563   6.698   5.247   9.856  0.2030  0.0658 -0.5423
   22CHL1    H6 1564   6.738   5.315   9.933 -0.4830 -1.2385  1.0110
   22CHL1    C7 1565   6.708   5.292   9.714  0.8985  0.6431  0.0835
   22CHL1   H7A 1566   6.671   5.394   9.691  0.2964  0.2783 -0.6115
   22CHL1   H7B 1567   6.812   5.282   9.675  0.8643 -0.4833  0.2600
   22CHL1    C8 1568   6.626   5.199   9.620 -0.3527 -0.2255 -0.4039
   22CHL1    H8 1569   6.520   5.232   9.627  0.5372  2.6828  1.4326
   22CHL1   C14 1570   6.667   5.222   9.478 -0.8575 -0.5148  0.6226
   22CHL1   H14 1571   6.771   5.183   9.480 -0.5053  0.3245 -0.2989
   22CHL1   C15 1572   6.679   5.360   9.419 -0.1166 -0.3880  0.2094
   22CHL1  H15A 1573   6.596   5.426   9.450  0.1501  0.6344 -1.1564
   22CHL1  H15B 1574   6.769   5.410   9.461 -1.0884  0.3418  1.5098
   22CHL1   C16 1575   6.675   5.341   9.271  0.0126 -0.1241  0.0278
   22CHL1  H16A 1576   6.597   5.411   9.234 -1.6555 -1.0888  1.5960
   22CHL1  H16B 1577   6.772   5.385   9.237 -0.3063  0.8902  0.3943
   22CHL1   C17 1578   6.661   5.192   9.242  0.6831  0.5718  0.2542
   22CHL1   H17 1579   6.763   5.151   9.237  1.1210  1.5038  1.1193
   22CHL1   C13 1580   6.591   5.145   9.370  0.4582  0.5377  0.4814
   22CHL1   C18 1581   6.435   5.176   9.368 -0.5674  0.6219  0.3049
   22CHL1  H18A 1582   6.394   5.166   9.471 -2.4161 -1.2462 -0.5470
   22CHL1  H18B 1583   6.435   5.284   9.340  1.9011  0.3429 -1.0625
   22CHL1  H18C 1584   6.373   5.112   9.302  0.7650 -0.5892  0.1865
   22CHL1   C12 1585   6.595   4.996   9.402 -0.0421 -0.0345  0.0484
   22CHL1  H12A 1586   6.525   4.935   9.341 -1.5770  1.5398  0.1764
   22CHL1  H12B 1587   6.697   4.953   9.389  0.0753  0.2108  0.1477
   22CHL1   C11 1588   6.554   4.968   9.550  0.1886  0.9586 -0.6762
   22CHL1  H11A 1589   6.445   4.992   9.558  0.2051  1.1212 -0.9146
   22CHL1  H11B 1590   6.574   4.860   9.563 -0.4084  0.9306  0.1621
   22CHL1    C9 1591   6.628   5.048   9.658  0.1788  0.4662  0.7833
   22CHL1    H9 1592   6.735   5.020   9.643  0.1875  1.0932 -0.4860
   22CHL1   C10 1593   6.586   5.027   9.803 -0.0573  0.7533 -0.1377
   22CHL1   C19 1594   6.429   5.014   9.815  0.0479 -0.6114 -0.2892
   22CHL1  H19A 1595   6.387   5.099   9.756  0.8862 -1.1718 -1.7311
   22CHL1  H19B 1596   6.406   4.910   9.782  1.3527 -1.1083  0.3301
   22CHL1  H19C 1597   6.392   5.003   9.920 -1.8157 -2.3078 -1.0566
   22CHL1    C1 1598   6.643   4.887   9.853 -0.5464  0.5493 -0.6067
   22CHL1   H1A 1599   6.585   4.813   9.794 -3.2658  2.2690 -0.2487
   22CHL1   H1B 1600   6.751   4.875   9.829 -0.0663 -1.9400  2.1453
   22CHL1    C2 1601   6.629   4.854  10.002 -0.5944  0.8743  0.3809
   22CHL1   H2A 1602   6.694   4.766  10.017 -0.1824  0.5408 -2.7245
   22CHL1   H2B 1603   6.526   4.826  10.030 -0.2335 -4.8846 -2.6166
   22CHL1   C20 1604   6.598   5.174   9.096  0.3661  0.0549 -0.0680
   22CHL1   H20 1605   6.490   5.198   9.102  0.2338 -0.6696  0.6894
   22CHL1   C21 1606   6.603   5.023   9.067 -0.6110 -0.6260  0.2496
   22CHL1  H21A 1607   6.709   4.988   9.071 -1.0042 -1.9745 -0.4606
   22CHL1  H21B 1608   6.575   5.007   8.960 -0.9935 -1.5076  0.4706
   22CHL1  H21C 1609   6.542   4.962   9.137 -2.5288 -0.9113 -1.5675
   22CHL1   C22 1610   6.660   5.255   8.985  0.5875  0.5044  0.3225
   22CHL1  H22A 1611   6.619   5.226   8.886  1.5234 -0.7166  0.2632
   22CHL1  H22B 1612   6.635   5.363   8.987 -0.7528  0.2308 -0.4755
   22CHL1   C23 1613   6.812   5.242   8.971 -0.9827 -1.1298 -0.6135
   22CHL1  H23A 1614   6.858   5.279   9.066  0.2623 -2.7050 -0.5539
   22CHL1  H23B 1615   6.847   5.136   8.965  0.4976 -1.2315  4.4802
   22CHL1   C24 1616   6.882   5.329   8.863  0.8846 -0.0022  0.6244
   22CHL1  H24A 1617   6.826   5.299   8.771  0.7444  0.6821  0.4817
   22CHL1  H24B 1618   6.863   5.436   8.885 -1.9504 -0.0920 -0.8437
   22CHL1   C25 1619   7.030   5.301   8.836  0.2948  0.7467  0.1909
   22CHL1   H25 1620   7.038   5.190   8.832  3.2012  0.7694  2.4307
   22CHL1   C26 1621   7.085   5.360   8.708 -0.2820 -0.3955 -0.3073
   22CHL1  H26A 1622   7.193   5.340   8.698 -0.5692 -1.0285 -2.8073
   22CHL1  H26B 1623   7.042   5.315   8.615 -2.0644  2.6019 -1.0738
   22CHL1  H26C 1624   7.055   5.466   8.698 -1.7418 -0.7958 -0.4872
   22CHL1   C27 1625   7.117   5.357   8.951  0.1474 -0.1363 -0.4722
   22CHL1  H27A 1626   7.092   5.466   8.944 -0.4173 -0.3218 -1.5549
   22CHL1  H27B 1627   7.080   5.323   9.050 -0.8276  0.2096 -0.7059
   22CHL1  H27C 1628   7.222   5.323   8.945 -0.5584 -2.1883 -2.4887
   23CHL1    C3 1629   1.115   6.151  10.260 -0.7348  0.3619 -0.5720
   23CHL1    H3 1630   1.111   6.253  10.216  0.8673  0.9368  0.5474
   23CHL1    O3 1631   1.159   6.157  10.396 -0.2915 -0.2669 -0.3682
   23CHL1   H3' 1632   1.218   6.230  10.414  0.0461 -0.3099 -1.2286
   23CHL1    C4 1633   0.979   6.089  10.258 -0.6573 -0.3062 -0.3119
   23CHL1   H4A 1634   0.988   5.998  10.321 -1.1177  0.7133  1.3005
   23CHL1   H4B 1635   0.912   6.159  10.312  1.0926  0.5834  0.7915
   23CHL1    C5 1636   0.922   6.075  10.121 -0.4444  0.4246  0.4338
   23CHL1    C6 1637   0.808   6.136  10.086  0.0108 -0.1774 -0.6037
   23CHL1    H6 1638   0.751   6.194  10.160 -2.4400 -2.3946 -0.5832
   23CHL1    C7 1639   0.749   6.126   9.951  0.4256  0.0960 -0.3140
   23CHL1   H7A 1640   0.638   6.123   9.955  0.4273 -1.1793 -0.8345
   23CHL1   H7B 1641   0.771   6.222   9.899 -3.1147  0.3624 -1.6198
   23CHL1    C8 1642   0.804   6.001   9.876  0.1212  0.3867 -0.6692
   23CHL1    H8 1643   0.762   5.909   9.922 -0.5020 -0.1079 -2.2006
   23CHL1   C14 1644   0.760   6.008   9.726 -0.2832 -0.1275  0.5271
   23CHL1   H14 1645   0.817   6.094   9.686  0.8302 -1.0077  0.1686
   23CHL1   C15 1646   0.613   6.028   9.696 -0.1732  0.1178 -0.4651
   23CHL1  H15A 1647   0.549   5.973   9.768  1.0233  0.1338  0.6341
   23CHL1  H15B 1648   0.595   6.137   9.701  1.3228  0.3569  0.0656
   23CHL1   C16 1649   0.595   5.958   9.564 -0.3746  0.5655 -0.1878
   23CHL1  H16A 1650   0.535   5.865   9.569  1.9527 -0.9886  0.2230
   23CHL1  H16B 1651   0.551   6.033   9.495 -0.1321 -0.6340 -1.7076
   23CHL1   C17 1652   0.733   5.916   9.512 -0.6995  0.4803 -0.4951
   23CHL1   H17 1653   0.766   6.006   9.457 -0.8110  0.6767 -0.2422
   23CHL1   C13 1654   0.813   5.890   9.643 -0.1837  0.3336 -0.6276
   23CHL1   C18 1655   0.751   5.760   9.713 -0.4063  0.1015 -0.0270
   23CHL1  H18A 1656   0.641   5.747   9.727  0.0230 -3.1465  1.1925
   23CHL1  H18B 1657   0.769   5.669   9.651  0.0317 -1.0075  1.6755
   23CHL1  H18C 1658   0.806   5.740   9.807  0.3748  0.7697 -0.3322
   23CHL1   C12 1659   0.970   5.898   9.638 -0.1513  0.1967  0.0665
   23CHL1  H12A 1660   1.010   5.819   9.572 -0.9454  0.1580 -0.3747
   23CHL1  H12B 1661   0.996   5.999   9.598  1.5104  0.0973  0.8072
   23CHL1   C11 1662   1.024   5.893   9.774  0.2201 -0.4344 -0.0600
   23CHL1  H11A 1663   1.008   5.790   9.815 -0.2487  0.2411  1.5379
   23CHL1  H11B 1664   1.134   5.907   9.766 -0.0253  0.4541 -2.4438
   23CHL1    C9 1665   0.962   6.001   9.875 -0.5632  0.4440 -0.2629
   23CHL1    H9 1666   0.998   6.095   9.828 -1.2608  0.3614 -0.9926
   23CHL1   C10 1667   1.012   5.997  10.021  0.0427  0.3884 -0.0744
   23CHL1   C19 1668   1.001   5.853  10.074  0.0430  0.3663 -0.0051
   23CHL1  H19A 1669   1.030   5.843  10.181  1.8058 -1.0147 -0.5583
   23CHL1  H19B 1670   0.900   5.824  10.041  0.6773  0.0209 -1.7196
   23CHL1  H19C 1671   1.072   5.795  10.012  2.0671  1.3557  1.2505
   23CHL1    C1 1672   1.162   6.041  10.038  0.3375 -0.0295  0.1631
   23CHL1   H1A 1673   1.219   5.958   9.991 -3.4798 -3.3515  0.8525
   23CHL1   H1B 1674   1.185   6.136   9.987  3.3726  0.5051  2.3064
   23CHL1    C2 1675   1.209   6.057  10.183 -0.0660  1.1618  0.6140
   23CHL1   H2A 1676   1.309   6.105  10.176 -1.0380  3.1287 -0.7666
   23CHL1   H2B 1677   1.221   5.959  10.234  1.9659  0.6175 -0.7687
   23CHL1   C20 1678   0.725   5.805   9.407 -0.3329  0.0994  0.4562
   23CHL1   H20 1679   0.671   5.722   9.457  1.3349  0.1719  2.5458
   23CHL1   C21 1680   0.864   5.759   9.372  0.2943 -0.0604  0.4081
   23CHL1  H21A 1681   0.900   5.711   9.466  0.3913  0.2149  0.5132
   23CHL1  H21B 1682   0.927   5.849   9.358  0.0519  0.3870  1.9960
   23CHL1  H21C 1683   0.878   5.680   9.295  0.3731  0.9983 -0.7005
   23CHL1   C22 1684   0.646   5.854   9.280 -0.5323 -0.6583 -0.5626
   23CHL1  H22A 1685   0.545   5.893   9.305  0.0342 -1.2477  3.2247
   23CHL1  H22B 1686   0.707   5.941   9.247  0.1266 -0.2803  1.5144
   23CHL1   C23 1687   0.640   5.748   9.168  0.2035  0.5146 -0.7695
   23CHL1  H23A 1688   0.747   5.734   9.140  1.0914 -0.1537  2.5320
   23CHL1  H23B 1689   0.609   5.650   9.209 -1.6903  1.8841  1.2453
   23CHL1   C24 1690   0.564   5.797   9.047 -0.3864 -0.0944 -0.2909
   23CHL1  H24A 1691   0.458   5.819   9.072 -0.6990 -0.9379 -0.8165
   23CHL1  H24B 1692   0.613   5.894   9.024  1.2300 -0.1256  2.5086
   23CHL1   C25 1693   0.560   5.691   8.929  0.3541 -0.3612 -0.3059
   23CHL1   H25 1694   0.522   5.594   8.966  2.2966 -0.6506  1.0595
   23CHL1   C26 1695   0.456   5.729   8.826 -0.0067 -0.8847  0.0192
   23CHL1  H26A 1696   0.432   5.652   8.750 -0.0334  0.9172 -1.8849
   23CHL1  H26B 1697   0.358   5.766   8.863  0.2860 -0.0725 -0.0064
   23CHL1  H26C 1698   0.485   5.829   8.788 -0.2114 -0.1331  1.7459
   23CHL1   C27 1699   0.695   5.667   8.862  0.0181  0.2301 -0.2548
   23CHL1  H27A 1700   0.690   5.600   8.773  0.8664 -0.1053 -0.0557
   23CHL1  H27B 1701   0.726   5.766   8.825  1.2029 -0.0272  0.0124
   23CHL1  H27C 1702   0.769   5.636   8.938 -1.7801 -1.0744  1.0770
   24CHL1    C3 1703   4.162   1.777  10.264  0.3583 -0.2850  0.6993
   24CHL1    H3 1704   4.088   1.694  10.255 -1.8723  1.6726 -0.1780
   24CHL1    O3 1705   4.147   1.852  10.389 -0.4675  0.0461  0.6141
   24CHL1   H3' 1706   4.231   1.897  10.394  0.8161 -2.0501 -0.5886
   24CHL1    C4 1707   4.300   1.705  10.261 -0.3341 -0.7831 -0.2963
   24CHL1   H4A 1708   4.384   1.777  10.271  1.1337 -2.3454 -0.8360
   24CHL1   H4B 1709   4.294   1.638  10.349 -0.9650  1.2934  1.3259
   24CHL1    C5 1710   4.325   1.631  10.129 -0.1997  0.2788 -0.5143
   24CHL1    C6 1711   4.346   1.496  10.126  0.2077 -1.1331  0.7244
   24CHL1    H6 1712   4.364   1.438  10.217  1.6765 -2.6491 -0.4483
   24CHL1    C7 1713   4.360   1.426   9.998  0.5652 -0.8546  0.8037
   24CHL1   H7A 1714   4.447   1.357   9.991  1.9388  0.7375  1.4237
   24CHL1   H7B 1715   4.258   1.386   9.981 -0.7368  2.5187 -0.0614
   24CHL1    C8 1716   4.380   1.517   9.872 -0.2198 -0.4078  0.2246
   24CHL1    H8 1717   4.487   1.549   9.879 -0.7988  2.6406 -2.6617
   24CHL1   C14 1718   4.353   1.439   9.737  0.4607  0.2595  0.1497
   24CHL1   H14 1719   4.247   1.408   9.740  0.8438 -1.2776 -0.8279
   24CHL1   C15 1720   4.423   1.298   9.718 -0.1860 -0.7051 -0.2397
   24CHL1  H15A 1721   4.524   1.326   9.753 -1.7107  3.3239  1.6304
   24CHL1  H15B 1722   4.401   1.211   9.783  3.7927 -1.4787  0.2872
   24CHL1   C16 1723   4.411   1.275   9.568 -0.1943  0.4630 -0.3494
   24CHL1  H16A 1724   4.504   1.224   9.537  1.0684  1.1972  1.9632
   24CHL1  H16B 1725   4.327   1.204   9.553  0.3959 -0.6040  1.1571
   24CHL1   C17 1726   4.368   1.408   9.502  0.8757  0.4240  0.0426
   24CHL1   H17 1727   4.258   1.416   9.492  0.6861  0.6971  2.0313
   24CHL1   C13 1728   4.384   1.515   9.609 -0.0954  0.7902  0.1333
   24CHL1   C18 1729   4.528   1.570   9.618  0.0332 -0.3138  1.0284
   24CHL1  H18A 1730   4.601   1.489   9.637  0.1302 -0.5386 -0.2078
   24CHL1  H18B 1731   4.559   1.639   9.536  1.8322  0.2825  2.1593
   24CHL1  H18C 1732   4.530   1.645   9.700 -0.4776  1.4200 -0.4559
   24CHL1   C12 1733   4.284   1.637   9.600 -0.4207 -0.0502 -0.3637
   24CHL1  H12A 1734   4.318   1.704   9.519  0.1194 -2.1566 -1.9532
   24CHL1  H12B 1735   4.182   1.597   9.576 -0.6582  0.8057 -0.8072
   24CHL1   C11 1736   4.291   1.716   9.735 -0.0278 -0.3116 -0.9289
   24CHL1  H11A 1737   4.385   1.773   9.726  0.7661 -1.1809  1.1238
   24CHL1  H11B 1738   4.203   1.784   9.743 -0.6717 -0.9615 -2.2095
   24CHL1    C9 1739   4.283   1.630   9.871  0.1782 -0.2862 -0.1447
   24CHL1    H9 1740   4.179   1.592   9.870 -0.3779  1.0419  1.8896
   24CHL1   C10 1741   4.302   1.715  10.000 -0.4292 -0.0672 -0.5432
   24CHL1   C19 1742   4.425   1.810   9.986 -0.3297  0.1144 -0.5838
   24CHL1  H19A 1743   4.414   1.878   9.898  0.0382 -0.7236 -1.2907
   24CHL1  H19B 1744   4.449   1.858  10.083 -1.1287 -0.1316 -0.2605
   24CHL1  H19C 1745   4.510   1.746   9.955 -0.5689 -0.0945 -0.8224
   24CHL1    C1 1746   4.174   1.806  10.016 -0.0120 -0.2331  0.4363
   24CHL1   H1A 1747   4.167   1.874   9.928 -0.8086 -0.1839  0.5294
   24CHL1   H1B 1748   4.099   1.723  10.012 -0.6158  0.3359 -1.6374
   24CHL1    C2 1749   4.152   1.880  10.145 -0.3344  0.5964 -0.1479
   24CHL1   H2A 1750   4.053   1.928  10.155 -0.1456  1.1776 -1.0000
   24CHL1   H2B 1751   4.227   1.961  10.152  0.7156 -0.4721  2.0423
   24CHL1   C20 1752   4.434   1.431   9.364 -0.0371  0.2191 -0.1129
   24CHL1   H20 1753   4.419   1.538   9.338  1.4022  0.3882 -0.3179
   24CHL1   C21 1754   4.367   1.339   9.264  0.7387  0.7305  0.2799
   24CHL1  H21A 1755   4.398   1.346   9.157 -0.7881  1.5495 -0.1374
   24CHL1  H21B 1756   4.258   1.359   9.257  0.2856 -1.4977 -0.0499
   24CHL1  H21C 1757   4.374   1.232   9.293  2.7116  0.7725  0.1337
   24CHL1   C22 1758   4.586   1.399   9.355  0.0396  0.5231  0.2636
   24CHL1  H22A 1759   4.639   1.398   9.453 -0.0963 -0.1093  0.3342
   24CHL1  H22B 1760   4.599   1.293   9.326 -0.8870  0.6382 -0.6215
   24CHL1   C23 1761   4.661   1.476   9.249  0.4154 -0.4036  0.2046
   24CHL1  H23A 1762   4.594   1.473   9.160 -0.2266  1.4895  0.5787
   24CHL1  H23B 1763   4.660   1.585   9.272 -0.8657 -0.5458  0.9285
   24CHL1   C24 1764   4.800   1.414   9.219  0.0972  0.0298  0.3082
   24CHL1  H24A 1765   4.853   1.420   9.317  0.9230 -2.2688  0.0680
   24CHL1  H24B 1766   4.790   1.306   9.194 -0.4369  0.3271 -0.8149
   24CHL1   C25 1767   4.870   1.488   9.105  0.2998 -0.0464 -0.2728
   24CHL1   H25 1768   4.798   1.481   9.021 -0.9133  1.3055  0.6194
   24CHL1   C26 1769   4.897   1.640   9.138 -0.1489 -0.1822  0.1738
   24CHL1  H26A 1770   4.946   1.644   9.238  1.4381  0.3813 -0.5963
   24CHL1  H26B 1771   4.955   1.687   9.057 -2.3032 -1.3479 -2.1792
   24CHL1  H26C 1772   4.803   1.698   9.138 -0.4540 -0.6606 -1.0039
   24CHL1   C27 1773   4.997   1.416   9.066 -0.3627  0.4453 -0.6227
   24CHL1  H27A 1774   4.969   1.317   9.025 -1.7751  0.3608  0.4808
   24CHL1  H27B 1775   5.060   1.477   8.997  2.0157 -1.0077  0.1575
   24CHL1  H27C 1776   5.061   1.403   9.156  1.1445  1.8851 -1.4249
   25CHL1    C3 1777   4.989   1.118  10.325 -0.6224 -1.1300 -0.1222
   25CHL1    H3 1778   5.078   1.052  10.316  0.0728 -0.2163 -0.1562
   25CHL1    O3 1779   4.986   1.153  10.463  0.3432  0.0528 -0.3872
   25CHL1   H3' 1780   4.996   1.249  10.463 -1.0597  0.2297 -0.3039
   25CHL1    C4 1781   4.991   1.243  10.236  1.2231  0.4470  0.9123
   25CHL1   H4A 1782   4.897   1.297  10.259  0.3303 -1.4043  1.8557
   25CHL1   H4B 1783   5.074   1.302  10.281  2.4678  0.0049 -0.7163
   25CHL1    C5 1784   4.996   1.218  10.085 -0.0544 -1.4420  0.3541
   25CHL1    C6 1785   5.082   1.290  10.013  0.4608 -0.4763  0.1431
   25CHL1    H6 1786   5.143   1.369  10.059  1.5867 -1.7856  0.9717
   25CHL1    C7 1787   5.094   1.270   9.868  0.5057  0.3711 -0.2582
   25CHL1   H7A 1788   5.101   1.367   9.815 -1.1422 -0.2988 -1.8242
   25CHL1   H7B 1789   5.187   1.212   9.851 -0.2020 -0.5186 -1.2096
   25CHL1    C8 1790   4.971   1.190   9.805  0.5356 -0.1839  0.1053
   25CHL1    H8 1791   4.883   1.256   9.791  0.7659  0.2424  0.5872
   25CHL1   C14 1792   5.014   1.137   9.669 -0.6968 -0.0277  0.5101
   25CHL1   H14 1793   5.105   1.077   9.690 -1.0285 -0.2773  1.2660
   25CHL1   C15 1794   5.053   1.244   9.560  0.0405 -0.0030  0.6065
   25CHL1  H15A 1795   4.971   1.318   9.548 -1.3479 -1.4783  0.6486
   25CHL1  H15B 1796   5.148   1.297   9.583  0.3678  0.2096 -1.0771
   25CHL1   C16 1797   5.045   1.160   9.427 -0.3008 -0.3075  0.4701
   25CHL1  H16A 1798   4.977   1.218   9.361 -1.2479 -0.3582  1.3842
   25CHL1  H16B 1799   5.147   1.149   9.382 -0.7623  0.1132 -0.7149
   25CHL1   C17 1800   4.983   1.023   9.464  0.2378  0.3826 -0.0275
   25CHL1   H17 1801   5.067   0.951   9.477  0.3605  0.6518  0.7232
   25CHL1   C13 1802   4.914   1.047   9.598 -0.0263 -0.4206  0.4743
   25CHL1   C18 1803   4.783   1.123   9.576 -0.1318  0.2677  0.0058
   25CHL1  H18A 1804   4.742   1.159   9.673  3.0812 -0.5180  1.8088
   25CHL1  H18B 1805   4.783   1.202   9.498 -1.4987  1.3239  1.0087
   25CHL1  H18C 1806   4.708   1.049   9.542 -0.4796  0.4730  0.3107
   25CHL1   C12 1807   4.880   0.922   9.695  0.3470  0.1880  0.5442
   25CHL1  H12A 1808   4.799   0.858   9.653 -0.0158  0.4123  0.9025
   25CHL1  H12B 1809   4.982   0.878   9.697 -0.0450 -1.0505 -2.1247
   25CHL1   C11 1810   4.834   0.966   9.833 -1.0402  0.0085  0.2504
   25CHL1  H11A 1811   4.727   0.993   9.829 -0.4402  2.8581  1.0461
   25CHL1  H11B 1812   4.830   0.871   9.891 -2.0233 -0.4842 -0.5870
   25CHL1    C9 1813   4.932   1.072   9.888  0.2135 -0.0463 -0.2167
   25CHL1    H9 1814   5.030   1.019   9.895  0.5285  0.3939 -1.1759
   25CHL1   C10 1815   4.893   1.110  10.037  0.8052  0.2067 -0.2376
   25CHL1   C19 1816   4.742   1.158  10.034  0.1641  0.6779 -0.5024
   25CHL1  H19A 1817   4.734   1.240  10.109  3.0798  0.1883  0.5066
   25CHL1  H19B 1818   4.720   1.197   9.933  2.3838  0.8903 -0.9671
   25CHL1  H19C 1819   4.675   1.076  10.069  0.2202  1.0081  0.4102
   25CHL1    C1 1820   4.902   0.983  10.131 -0.4804 -0.4988  0.2522
   25CHL1   H1A 1821   4.826   0.905  10.109  1.2086 -1.7573 -1.6409
   25CHL1   H1B 1822   5.003   0.939  10.116  0.3812  0.9196  1.5980
   25CHL1    C2 1823   4.879   1.023  10.280 -0.1250  0.1724  0.2486
   25CHL1   H2A 1824   4.887   0.930  10.340 -0.5136 -0.5115 -0.7508
   25CHL1   H2B 1825   4.774   1.060  10.292 -1.0313 -1.4724 -1.9360
   25CHL1   C20 1826   4.893   0.960   9.353  0.0023  0.1366 -1.6003
   25CHL1   H20 1827   4.813   1.032   9.323 -1.2192 -0.3462  0.3396
   25CHL1   C21 1828   4.817   0.834   9.399  0.4935  0.2072 -0.0994
   25CHL1  H21A 1829   4.886   0.763   9.449 -1.0817 -1.8199 -0.6806
   25CHL1  H21B 1830   4.783   0.774   9.312 -0.5665 -1.1434  1.2008
   25CHL1  H21C 1831   4.722   0.845   9.456 -0.4966  0.0858 -1.6677
   25CHL1   C22 1832   4.965   0.928   9.220  0.4651 -0.8407  0.2580
   25CHL1  H22A 1833   5.026   1.014   9.187  0.1165 -0.9407 -0.6942
   25CHL1  H22B 1834   5.033   0.843   9.244  1.9692  0.1694 -0.2531
   25CHL1   C23 1835   4.876   0.899   9.098  0.2037 -0.3282 -0.3649
   25CHL1  H23A 1836   4.826   0.801   9.112 -0.2575  0.0579  0.8518
   25CHL1  H23B 1837   4.791   0.971   9.106  0.6909  0.1372  1.0557
   25CHL1   C24 1838   4.960   0.899   8.974 -0.3110  0.0857  0.0144
   25CHL1  H24A 1839   5.010   0.998   8.964 -1.4723  0.6283 -0.5557
   25CHL1  H24B 1840   5.045   0.828   8.988  0.2222  0.9878  1.6965
   25CHL1   C25 1841   4.884   0.888   8.838 -1.3301  0.6694 -0.3286
   25CHL1   H25 1842   4.805   0.810   8.842 -1.8499  1.2513  1.3484
   25CHL1   C26 1843   4.818   1.024   8.814 -0.4948 -0.1428 -0.2434
   25CHL1  H26A 1844   4.738   1.034   8.890  0.8204 -0.4270  1.2254
   25CHL1  H26B 1845   4.894   1.105   8.823 -1.0898  0.3570  0.3958
   25CHL1  H26C 1846   4.774   1.031   8.712 -1.9997 -2.2603  0.1814
   25CHL1   C27 1847   4.979   0.854   8.726  0.5927 -0.4829 -0.1251
   25CHL1  H27A 1848   5.060   0.929   8.715  0.1859 -0.2904 -2.2879
   25CHL1  H27B 1849   5.029   0.760   8.757 -0.0107 -0.7940 -0.0787
   25CHL1  H27C 1850   4.922   0.857   8.630 -2.0464  1.9275  1.3758
   26CHL1    C3 1851   5.526   4.759  10.198 -0.1296  0.0656 -0.0657
   26CHL1    H3 1852   5.575   4.858  10.214 -0.8944  0.3937  0.2984
   26CHL1    O3 1853   5.507   4.715  10.330 -0.6003 -0.1667 -0.0180
   26CHL1   H3' 1854   5.591   4.729  10.375 -0.1820 -2.7905  0.1644
   26CHL1    C4 1855   5.398   4.783  10.131 -0.3911  0.2165  0.0134
   26CHL1   H4A 1856   5.333   4.703  10.174  1.6628  0.0982  3.1891
   26CHL1   H4B 1857   5.350   4.873  10.175  0.1640  0.6601 -0.2884
   26CHL1    C5 1858   5.402   4.786   9.980 -0.3523  0.1460  0.2668
   26CHL1    C6 1859   5.331   4.887   9.917 -0.0006  0.6710 -0.4155
   26CHL1    H6 1860   5.279   4.963   9.976 -0.6504 -0.2367  0.2146
   26CHL1    C7 1861   5.306   4.881   9.768 -0.3516 -0.0671 -0.7364
   26CHL1   H7A 1862   5.198   4.885   9.742 -0.5590 -4.2597 -1.1894
   26CHL1   H7B 1863   5.356   4.973   9.731 -1.0757  0.3739 -0.6491
   26CHL1    C8 1864   5.366   4.757   9.698 -0.1267  1.2291 -1.1018
   26CHL1    H8 1865   5.291   4.675   9.704 -0.0671  1.1553 -1.3410
   26CHL1   C14 1866   5.388   4.793   9.548 -0.7517 -0.5278 -0.3170
   26CHL1   H14 1867   5.469   4.869   9.541 -1.0416 -0.3740 -2.9844
   26CHL1   C15 1868   5.274   4.861   9.478  0.6544  0.3057  0.6471
   26CHL1  H15A 1869   5.180   4.809   9.508  0.3357  0.8008  0.5171
   26CHL1  H15B 1870   5.249   4.968   9.497 -0.8765  0.8801 -3.6621
   26CHL1   C16 1871   5.300   4.849   9.330  0.3570 -0.6670  0.0232
   26CHL1  H16A 1872   5.214   4.801   9.279 -1.2390  0.7672  1.2823
   26CHL1  H16B 1873   5.328   4.940   9.273  1.3879 -0.2151  1.2201
   26CHL1   C17 1874   5.428   4.755   9.321  0.0977  0.1867  0.9500
   26CHL1   H17 1875   5.520   4.818   9.317  2.7113 -3.3723 -1.4242
   26CHL1   C13 1876   5.437   4.688   9.454 -0.7378  0.2687 -0.3600
   26CHL1   C18 1877   5.334   4.572   9.456  0.3625  0.5257  0.7406
   26CHL1  H18A 1878   5.230   4.604   9.432  0.2043 -1.3330 -1.5070
   26CHL1  H18B 1879   5.350   4.497   9.375  0.5040  1.0455  0.2853
   26CHL1  H18C 1880   5.336   4.513   9.550  1.0470 -1.6044 -0.5198
   26CHL1   C12 1881   5.579   4.656   9.510 -0.6038 -0.2804 -0.1250
   26CHL1  H12A 1882   5.614   4.572   9.447  0.3637  0.0144  0.0019
   26CHL1  H12B 1883   5.655   4.736   9.497  0.3571 -1.4674 -2.3887
   26CHL1   C11 1884   5.572   4.619   9.656 -0.3114  0.4957  0.1337
   26CHL1  H11A 1885   5.512   4.526   9.663 -1.4189  1.1308 -0.7130
   26CHL1  H11B 1886   5.667   4.601   9.711  0.1801  1.5720 -0.3214
   26CHL1    C9 1887   5.504   4.724   9.752 -0.1879 -0.2706  0.4284
   26CHL1    H9 1888   5.563   4.818   9.742 -2.3318  1.1838  0.7086
   26CHL1   C10 1889   5.491   4.681   9.910  0.0760  0.0103 -0.1376
   26CHL1   C19 1890   5.448   4.533   9.921 -0.4412 -0.1701  0.1896
   26CHL1  H19A 1891   5.363   4.510   9.854 -1.4465  1.2653  0.9411
   26CHL1  H19B 1892   5.529   4.462   9.891 -0.6632 -0.5946  0.5770
   26CHL1  H19C 1893   5.415   4.512  10.025  1.1128  1.0347  0.9612
   26CHL1    C1 1894   5.639   4.685   9.979  0.9455  0.2798 -0.5744
   26CHL1   H1A 1895   5.693   4.598   9.936 -2.0522 -2.2203  0.3904
   26CHL1   H1B 1896   5.696   4.779   9.961  1.2740  0.0795 -0.5893
   26CHL1    C2 1897   5.620   4.662  10.136  0.3790  0.0431 -0.1739
   26CHL1   H2A 1898   5.723   4.661  10.179  0.5336  1.5361 -0.4549
   26CHL1   H2B 1899   5.581   4.558  10.135  0.8672 -0.2081  2.1783
   26CHL1   C20 1900   5.440   4.686   9.183  0.4361  0.4968  0.1460
   26CHL1   H20 1901   5.387   4.588   9.178 -1.4262  1.4143  0.9761
   26CHL1   C21 1902   5.590   4.661   9.145 -0.8582  0.3646  0.8756
   26CHL1  H21A 1903   5.638   4.605   9.229 -0.1646 -0.5552 -0.1081
   26CHL1  H21B 1904   5.650   4.754   9.148  0.2564 -0.3320  0.5207
   26CHL1  H21C 1905   5.588   4.581   9.068  0.7596 -0.4507  1.6496
   26CHL1   C22 1906   5.384   4.765   9.068  0.7747  0.6941 -0.4706
   26CHL1  H22A 1907   5.275   4.747   9.082  1.2265 -0.9577  1.2812
   26CHL1  H22B 1908   5.414   4.868   9.094 -1.0824  0.4585  3.1429
   26CHL1   C23 1909   5.425   4.724   8.928 -0.9208 -0.4474 -0.1656
   26CHL1  H23A 1910   5.528   4.760   8.904 -0.3019 -2.2047 -0.2632
   26CHL1  H23B 1911   5.435   4.614   8.922 -0.7568 -0.5071  1.0889
   26CHL1   C24 1912   5.321   4.773   8.824  0.2539  0.8294  0.6567
   26CHL1  H24A 1913   5.226   4.729   8.860  0.4248  0.5070  0.7191
   26CHL1  H24B 1914   5.307   4.883   8.833  0.4762  1.0014 -0.8589
   26CHL1   C25 1915   5.347   4.743   8.678 -0.4441  0.3854  1.1294
   26CHL1   H25 1916   5.367   4.635   8.660 -1.0153  0.3858  0.4824
   26CHL1   C26 1917   5.227   4.781   8.597  0.5872  0.2532  0.8119
   26CHL1  H26A 1918   5.262   4.815   8.497  1.8762  0.4177  1.3035
   26CHL1  H26B 1919   5.154   4.697   8.596  0.3807  0.3278  3.4862
   26CHL1  H26C 1920   5.168   4.860   8.649 -0.4826  2.1048 -2.8457
   26CHL1   C27 1921   5.467   4.833   8.638  1.0896 -0.1510  0.3138
   26CHL1  H27A 1922   5.491   4.824   8.530 -1.6899  1.0988 -0.5085
   26CHL1  H27B 1923   5.449   4.941   8.657  2.4361  0.0165  0.6979
   26CHL1  H27C 1924   5.561   4.804   8.689  1.4212  0.1118 -0.1394
   27CHL1    C3 1925   5.765   2.017  10.458 -0.1856  1.1479  0.0249
   27CHL1    H3 1926   5.831   2.103  10.434  0.4733  0.2262 -1.6417
   27CHL1    O3 1927   5.732   2.031  10.593 -0.2732 -0.2028 -1.0869
   27CHL1   H3' 1928   5.640   2.004  10.596  0.2500 -2.0093  0.6321
   27CHL1    C4 1929   5.644   2.025  10.371  0.0406  0.5155  0.1718
   27CHL1   H4A 1930   5.561   1.958  10.401  0.6007 -0.2732 -0.0014
   27CHL1   H4B 1931   5.614   2.130  10.393  0.8953  0.6589  0.6991
   27CHL1    C5 1932   5.677   2.006  10.227  0.5592  1.2661 -0.2894
   27CHL1    C6 1933   5.647   2.097  10.137  0.5178  1.2812  0.8446
   27CHL1    H6 1934   5.568   2.166  10.171 -0.6454  0.0754  0.6690
   27CHL1    C7 1935   5.685   2.095   9.991 -0.1942  0.2477 -0.3976
   27CHL1   H7A 1936   5.610   2.132   9.917  0.5502  1.9591 -0.3471
   27CHL1   H7B 1937   5.774   2.161   9.982 -0.6739  0.9196 -0.2794
   27CHL1    C8 1938   5.730   1.955   9.947 -0.1381 -0.4323 -0.3157
   27CHL1    H8 1939   5.639   1.891   9.940  0.2355 -1.1316  0.8672
   27CHL1   C14 1940   5.806   1.973   9.811 -0.2342 -0.2889  0.1865
   27CHL1   H14 1941   5.899   2.025   9.841 -1.7628  2.3340  0.7310
   27CHL1   C15 1942   5.740   2.046   9.692 -0.3481 -0.6608  0.0175
   27CHL1  H15A 1943   5.630   2.033   9.680  0.0486 -3.0835 -1.6213
   27CHL1  H15B 1944   5.765   2.154   9.694  0.6449 -0.8470 -1.0176
   27CHL1   C16 1945   5.800   1.981   9.561 -0.0085 -0.1235 -0.7910
   27CHL1  H16A 1946   5.713   1.926   9.517 -2.4841  2.3431  0.6881
   27CHL1  H16B 1947   5.846   2.054   9.491  2.3348 -2.3238 -1.7139
   27CHL1   C17 1948   5.911   1.880   9.619 -0.0941 -0.6300  1.3762
   27CHL1   H17 1949   6.004   1.938   9.639 -0.0644 -1.1210  2.7076
   27CHL1   C13 1950   5.852   1.841   9.755 -0.3600 -0.2060 -0.4181
   27CHL1   C18 1951   5.728   1.738   9.731 -0.4657 -0.7006 -0.3132
   27CHL1  H18A 1952   5.675   1.722   9.827  0.0566  0.7222  0.2473
   27CHL1  H18B 1953   5.644   1.777   9.669 -0.4715 -0.4764 -0.1649
   27CHL1  H18C 1954   5.774   1.647   9.688 -0.3268  0.2610 -2.3335
   27CHL1   C12 1955   5.950   1.773   9.859 -0.0479  0.1413  0.5811
   27CHL1  H12A 1956   5.976   1.671   9.826  0.5829  1.0649 -2.0064
   27CHL1  H12B 1957   6.041   1.836   9.855  2.9544 -3.8602 -0.6393
   27CHL1   C11 1958   5.898   1.762   9.999  0.4844  0.1650 -0.0644
   27CHL1  H11A 1959   5.824   1.680   9.999  1.1525 -0.4470  0.4977
   27CHL1  H11B 1960   5.980   1.729  10.065  2.1417  1.1561 -1.5335
   27CHL1    C9 1961   5.828   1.898  10.049  0.0471 -0.0817  0.7801
   27CHL1    H9 1962   5.912   1.970  10.051  0.1921 -0.2659  1.4591
   27CHL1   C10 1963   5.767   1.889  10.195 -1.0677 -0.3168 -0.6151
   27CHL1   C19 1964   5.691   1.754  10.220  0.2758  0.3512 -0.2999
   27CHL1  H19A 1965   5.755   1.663  10.220  2.2546  1.6582  1.4329
   27CHL1  H19B 1966   5.646   1.749  10.322 -3.9849  1.7230 -1.8855
   27CHL1  H19C 1967   5.624   1.742  10.132 -0.5833 -1.4844  0.5441
   27CHL1    C1 1968   5.890   1.879  10.293 -0.5924  0.4590 -0.4161
   27CHL1   H1A 1969   5.938   1.780  10.282 -0.2793  0.6730 -0.9845
   27CHL1   H1B 1970   5.960   1.963  10.274 -0.0503  0.3548  0.9642
   27CHL1    C2 1971   5.855   1.889  10.446 -0.4155  0.5566 -0.0854
   27CHL1   H2A 1972   5.943   1.908  10.511  0.3049  0.6912 -1.0813
   27CHL1   H2B 1973   5.792   1.807  10.487 -0.7599  1.9379  2.3623
   27CHL1   C20 1974   5.957   1.765   9.522  0.4977  0.3310  0.3171
   27CHL1   H20 1975   5.892   1.676   9.533 -0.3972  0.9647  0.2570
   27CHL1   C21 1976   6.106   1.722   9.552 -0.7572  0.2642  0.7861
   27CHL1  H21A 1977   6.131   1.636   9.486 -1.6526  2.2081 -2.3637
   27CHL1  H21B 1978   6.116   1.696   9.659  1.9201 -1.7064  0.1648
   27CHL1  H21C 1979   6.183   1.795   9.518  0.1514 -0.7280  0.6426
   27CHL1   C22 1980   5.943   1.803   9.369 -0.3554 -0.5744  0.2704
   27CHL1  H22A 1981   5.837   1.826   9.345 -0.9974 -2.9449  0.5544
   27CHL1  H22B 1982   5.995   1.901   9.355 -0.7282 -0.6355 -1.9445
   27CHL1   C23 1983   6.011   1.722   9.257 -1.0028 -0.1328 -0.8108
   27CHL1  H23A 1984   6.121   1.730   9.272 -1.1060 -0.3848  0.1947
   27CHL1  H23B 1985   5.991   1.613   9.251 -0.2208 -0.4856  1.6631
   27CHL1   C24 1986   5.995   1.791   9.117  0.4702 -0.4267 -0.6245
   27CHL1  H24A 1987   5.887   1.815   9.121  0.3449 -1.0785  2.1344
   27CHL1  H24B 1988   6.056   1.884   9.122  1.4834 -1.0683 -0.7532
   27CHL1   C25 1989   6.037   1.708   9.004  0.5874 -0.0376 -0.0418
   27CHL1   H25 1990   6.139   1.678   9.034  0.7645  2.1072  1.7215
   27CHL1   C26 1991   5.947   1.582   8.992  0.6256 -0.2026 -0.1011
   27CHL1  H26A 1992   5.933   1.541   8.890 -0.6678 -0.4516  0.1671
   27CHL1  H26B 1993   5.993   1.502   9.053 -1.9259 -2.7830 -1.3366
   27CHL1  H26C 1994   5.843   1.612   9.017  0.6844  0.5902 -0.7527
   27CHL1   C27 1995   6.048   1.781   8.872  0.1297 -0.3948  0.4123
   27CHL1  H27A 1996   6.104   1.718   8.800  1.3710  0.1822  0.8279
   27CHL1  H27B 1997   5.949   1.802   8.826 -0.9699 -2.8077  1.4974
   27CHL1  H27C 1998   6.108   1.872   8.896  1.0393 -1.5651  2.9460
   28CHL1    C3 1999   3.555   0.553  10.126  0.2976 -0.0787 -0.5679
   28CHL1    H3 2000   3.452   0.590  10.109  1.4360  2.6159 -2.2913
   28CHL1    O3 2001   3.578   0.520  10.262  0.1163 -0.0755  0.3843
   28CHL1   H3' 2002   3.512   0.452  10.277 -0.8082  1.0214  1.5494
   28CHL1    C4 2003   3.587   0.429  10.038  0.1987  0.1300  0.4820
   28CHL1   H4A 2004   3.685   0.378  10.054  0.0105 -0.8051 -1.0697
   28CHL1   H4B 2005   3.529   0.349  10.089 -1.5534  1.1341  0.1142
   28CHL1    C5 2006   3.561   0.447   9.895 -0.2160 -0.7701 -0.1659
   28CHL1    C6 2007   3.477   0.378   9.818  0.3930 -0.8271 -0.2760
   28CHL1    H6 2008   3.433   0.286   9.859 -1.6868  0.5666  0.8035
   28CHL1    C7 2009   3.465   0.398   9.669  0.5400  0.5509 -0.8731
   28CHL1   H7A 2010   3.468   0.297   9.625 -0.0106 -0.2195  0.7702
   28CHL1   H7B 2011   3.369   0.440   9.631 -0.0255 -1.1554 -1.4137
   28CHL1    C8 2012   3.571   0.489   9.607 -0.0770 -0.1851  0.9117
   28CHL1    H8 2013   3.663   0.428   9.593 -0.2793 -0.1466 -0.7539
   28CHL1   C14 2014   3.523   0.536   9.466 -0.1877 -0.1622 -0.3573
   28CHL1   H14 2015   3.433   0.598   9.483 -1.7427 -2.3434 -0.2546
   28CHL1   C15 2016   3.483   0.429   9.364  0.0070  0.6305 -0.3538
   28CHL1  H15A 2017   3.545   0.336   9.361 -3.9526 -2.2912 -0.6117
   28CHL1  H15B 2018   3.379   0.404   9.392  0.8087 -1.3071  1.1660
   28CHL1   C16 2019   3.496   0.497   9.233  0.2949 -0.6452 -0.0788
   28CHL1  H16A 2020   3.557   0.433   9.167 -1.1891 -2.4455  0.2137
   28CHL1  H16B 2021   3.406   0.516   9.171  1.6559  2.2220 -1.3763
   28CHL1   C17 2022   3.554   0.639   9.262 -0.3972  0.3451  0.7924
   28CHL1   H17 2023   3.468   0.709   9.266  0.4562  1.9385 -3.3707
   28CHL1   C13 2024   3.627   0.628   9.394 -0.6872  0.3519  0.3322
   28CHL1   C18 2025   3.767   0.552   9.376  0.0969  0.0708  0.6040
   28CHL1  H18A 2026   3.744   0.463   9.314  1.3185  1.6976 -2.4248
   28CHL1  H18B 2027   3.835   0.608   9.308 -0.9787  0.0460 -0.5193
   28CHL1  H18C 2028   3.813   0.522   9.473  2.1145 -1.7082 -0.8090
   28CHL1   C12 2029   3.642   0.754   9.479  0.2814 -0.4655  0.3200
   28CHL1  H12A 2030   3.713   0.825   9.432  1.5082 -0.9910  1.3322
   28CHL1  H12B 2031   3.545   0.806   9.498  1.8990  2.3726  1.3525
   28CHL1   C11 2032   3.688   0.716   9.623  0.3105 -0.0906  0.5771
   28CHL1  H11A 2033   3.796   0.690   9.614  0.1766 -0.0673 -1.8416
   28CHL1  H11B 2034   3.679   0.813   9.675 -1.2851 -0.6623  1.4260
   28CHL1    C9 2035   3.594   0.610   9.696  0.6699  0.0558  0.1621
   28CHL1    H9 2036   3.493   0.653   9.714  1.2036  0.6779  1.8811
   28CHL1   C10 2037   3.636   0.576   9.836 -1.0133 -0.2008 -1.1825
   28CHL1   C19 2038   3.784   0.532   9.837 -1.0677 -0.0268 -0.6325
   28CHL1  H19A 2039   3.818   0.493   9.936 -2.9115 -0.4919 -0.1416
   28CHL1  H19B 2040   3.800   0.437   9.782 -2.5086 -1.5981  1.4872
   28CHL1  H19C 2041   3.859   0.609   9.808  1.5915 -1.5681  1.5554
   28CHL1    C1 2042   3.618   0.694   9.932  0.1351  0.2700  0.0959
   28CHL1   H1A 2043   3.691   0.775   9.909  1.1530 -0.3366  1.0703
   28CHL1   H1B 2044   3.515   0.731   9.915  0.0482  1.7178  3.1933
   28CHL1    C2 2045   3.637   0.671  10.079 -0.0702 -0.3294  0.2754
   28CHL1   H2A 2046   3.598   0.758  10.137 -0.8250  1.4156 -2.6631
   28CHL1   H2B 2047   3.745   0.658  10.102 -0.1636 -0.1077  0.8491
   28CHL1   C20 2048   3.644   0.689   9.141  0.2318 -0.1240  0.3302
   28CHL1   H20 2049   3.717   0.608   9.117  0.1957  0.1322 -0.6852
   28CHL1   C21 2050   3.715   0.828   9.173 -0.5528 -0.1193 -0.1074
   28CHL1  H21A 2051   3.648   0.892   9.235  0.1570 -0.0247  0.5689
   28CHL1  H21B 2052   3.746   0.875   9.077 -1.1601 -1.3484 -0.9317
   28CHL1  H21C 2053   3.806   0.808   9.233 -0.7188  0.6120  0.3993
   28CHL1   C22 2054   3.574   0.691   9.004 -0.3347 -0.4950  0.6462
   28CHL1  H22A 2055   3.662   0.706   8.937  0.6015  2.2442  2.3351
   28CHL1  H22B 2056   3.516   0.598   8.985 -0.9788  0.0032  0.0826
   28CHL1   C23 2057   3.461   0.796   8.986 -0.1837 -0.0521 -0.3470
   28CHL1  H23A 2058   3.384   0.792   9.066  0.1206  1.8295  0.0917
   28CHL1  H23B 2059   3.513   0.893   9.000 -0.3432  0.1500 -1.0982
   28CHL1   C24 2060   3.388   0.792   8.854  0.5560  0.1363  0.7506
   28CHL1  H24A 2061   3.384   0.689   8.811  0.7375  0.1302  0.7464
   28CHL1  H24B 2062   3.281   0.820   8.862  1.0231  1.9946  0.9698
   28CHL1   C25 2063   3.452   0.877   8.732 -0.0301  0.7956 -0.4112
   28CHL1   H25 2064   3.437   0.984   8.760 -3.1091  1.1095 -2.8303
   28CHL1   C26 2065   3.594   0.864   8.681  0.1433  0.4716 -0.4412
   28CHL1  H26A 2066   3.627   0.760   8.660  2.3812  0.7845  1.2711
   28CHL1  H26B 2067   3.609   0.929   8.592 -1.8976  0.9569 -0.4922
   28CHL1  H26C 2068   3.672   0.898   8.752  1.7732  2.7991 -3.1233
   28CHL1   C27 2069   3.355   0.876   8.621  1.0700  0.5168  0.3486
   28CHL1  H27A 2070   3.384   0.947   8.541  0.0722  0.8262  0.2499
   28CHL1  H27B 2071   3.343   0.773   8.582  0.3176  0.3619  0.9579
   28CHL1  H27C 2072   3.253   0.901   8.655  0.1938  2.1456 -3.1608
   29CHL1    C3 2073   2.282   0.395   6.681 -0.1432 -0.3660 -0.6375
   29CHL1    H3 2074   2.315   0.289   6.683  3.2670  0.4917 -2.3939
   29CHL1    O3 2075   2.291   0.448   6.552  0.3208  0.1290 -0.4422
   29CHL1   H3' 2076   2.234   0.390   6.502 -0.2867 -0.3417  0.7671
   29CHL1    C4 2077   2.133   0.400   6.729 -0.0435  0.6646  0.1076
   29CHL1   H4A 2078   2.107   0.508   6.724 -0.4868  0.5349 -0.5730
   29CHL1   H4B 2079   2.076   0.345   6.651 -1.4338  0.1739  1.4112
   29CHL1    C5 2080   2.100   0.342   6.864  0.1332  0.0535  0.2739
   29CHL1    C6 2081   2.019   0.236   6.880 -0.5712  0.2532  0.0814
   29CHL1    H6 2082   1.983   0.183   6.790  0.3234 -1.0514  0.4740
   29CHL1    C7 2083   2.000   0.176   7.017  0.1327 -0.1575 -0.9764
   29CHL1   H7A 2084   1.896   0.138   7.026  0.5064 -1.0735 -0.4153
   29CHL1   H7B 2085   2.073   0.091   7.016  0.9724  0.5498 -0.6679
   29CHL1    C8 2086   2.023   0.277   7.136  0.4984 -0.0606  0.4448
   29CHL1    H8 2087   1.949   0.359   7.136  1.3900  0.9206  4.0391
   29CHL1   C14 2088   2.011   0.203   7.269  0.3255  0.7381 -0.2585
   29CHL1   H14 2089   2.080   0.116   7.273  0.0422  0.5818  2.2911
   29CHL1   C15 2090   1.874   0.139   7.309  0.1073  0.2250  0.0828
   29CHL1  H15A 2091   1.791   0.208   7.286  1.1884  1.4466 -0.2675
   29CHL1  H15B 2092   1.865   0.038   7.264 -0.6458  0.3109  0.0314
   29CHL1   C16 2093   1.891   0.117   7.465 -0.8200 -0.3965  0.2834
   29CHL1  H16A 2094   1.820   0.179   7.523  0.9620  1.0203  1.0406
   29CHL1  H16B 2095   1.875   0.012   7.498  0.5874 -0.3470  1.1821
   29CHL1   C17 2096   2.024   0.180   7.507  0.4069  0.2913  0.5707
   29CHL1   H17 2097   2.093   0.094   7.496 -0.0691  0.1074 -1.3101
   29CHL1   C13 2098   2.051   0.285   7.394 -1.4021 -0.0964 -0.6906
   29CHL1   C18 2099   1.972   0.411   7.423  0.2923 -0.0503  0.1935
   29CHL1  H18A 2100   2.027   0.464   7.504 -1.4485  0.9928  0.7355
   29CHL1  H18B 2101   1.966   0.467   7.327 -0.3562  0.8795  0.7595
   29CHL1  H18C 2102   1.867   0.393   7.453 -0.0500 -0.1209 -0.9980
   29CHL1   C12 2103   2.196   0.329   7.374 -0.0802 -0.0687 -0.1487
   29CHL1  H12A 2104   2.228   0.406   7.448  2.6677 -0.5190 -0.7321
   29CHL1  H12B 2105   2.272   0.250   7.393  1.0337  0.3581 -2.4720
   29CHL1   C11 2106   2.214   0.409   7.240 -0.0010  0.1436 -0.4291
   29CHL1  H11A 2107   2.160   0.506   7.246 -1.4278 -0.2516 -4.0284
   29CHL1  H11B 2108   2.323   0.427   7.228 -0.0971  0.7474 -0.4180
   29CHL1    C9 2109   2.162   0.338   7.110  0.1533 -0.7222 -0.3449
   29CHL1    H9 2110   2.230   0.251   7.103  2.8912  1.2775 -0.3356
   29CHL1   C10 2111   2.176   0.416   6.980 -0.1118 -0.3563 -0.3911
   29CHL1   C19 2112   2.103   0.551   6.999 -0.4619  0.2397 -0.0135
   29CHL1  H19A 2113   2.010   0.536   7.057  0.4533 -1.5062  1.0752
   29CHL1  H19B 2114   2.167   0.615   7.063  0.0905 -0.2573 -0.0630
   29CHL1  H19C 2115   2.092   0.606   6.902  0.7291 -1.7296 -1.3277
   29CHL1    C1 2116   2.327   0.430   6.933  0.0228 -0.0181 -0.3751
   29CHL1   H1A 2117   2.389   0.496   6.998  0.0326 -2.4592  2.2805
   29CHL1   H1B 2118   2.374   0.329   6.940  0.2010  0.0409 -0.6959
   29CHL1    C2 2119   2.361   0.475   6.782 -0.1270 -0.2153 -0.2361
   29CHL1   H2A 2120   2.470   0.457   6.774 -0.4710 -2.7144  0.1266
   29CHL1   H2B 2121   2.334   0.582   6.768 -0.2285 -0.2965 -0.6872
   29CHL1   C20 2122   2.033   0.225   7.651  0.4428 -0.0356  0.1825
   29CHL1   H20 2123   1.965   0.313   7.649 -0.7367 -0.9183 -1.9570
   29CHL1   C21 2124   2.167   0.275   7.692 -0.6578 -0.7722  0.3544
   29CHL1  H21A 2125   2.249   0.200   7.694  0.4200  0.3428  3.1637
   29CHL1  H21B 2126   2.165   0.315   7.796  3.2118 -0.3480  0.4101
   29CHL1  H21C 2127   2.208   0.362   7.635  0.9230 -2.3889 -1.0996
   29CHL1   C22 2128   1.985   0.121   7.759  0.6559  1.0274 -1.2592
   29CHL1  H22A 2129   1.904   0.059   7.714 -1.5079  0.9138  2.4117
   29CHL1  H22B 2130   2.071   0.054   7.782 -0.9750 -1.2426 -1.4214
   29CHL1   C23 2131   1.939   0.170   7.902 -0.4420  0.2108 -0.7941
   29CHL1  H23A 2132   1.932   0.086   7.974 -0.5341 -0.1247 -1.1943
   29CHL1  H23B 2133   2.024   0.230   7.942 -0.3674 -1.1839  1.2835
   29CHL1   C24 2134   1.824   0.262   7.894  0.0725 -0.0273  0.2730
   29CHL1  H24A 2135   1.850   0.337   7.817  1.0790 -0.4154  0.2235
   29CHL1  H24B 2136   1.730   0.206   7.871  0.2151 -0.0919 -0.1536
   29CHL1   C25 2137   1.801   0.337   8.022  0.1294 -0.5085 -0.6394
   29CHL1   H25 2138   1.819   0.270   8.109 -0.1510  1.2445  0.8128
   29CHL1   C26 2139   1.895   0.459   8.036 -0.0034 -0.3830 -0.2490
   29CHL1  H26A 2140   1.860   0.538   7.966  0.8803  2.7937  2.6084
   29CHL1  H26B 2141   1.878   0.509   8.134 -0.0894 -0.6600 -0.1246
   29CHL1  H26C 2142   2.001   0.426   8.033  0.1576 -0.0905  1.3699
   29CHL1   C27 2143   1.657   0.391   8.031 -0.4176 -0.1263  0.1971
   29CHL1  H27A 2144   1.579   0.312   8.032  0.3630 -1.0795 -2.8806
   29CHL1  H27B 2145   1.648   0.449   8.125 -0.4840 -1.7575  1.2423
   29CHL1  H27C 2146   1.636   0.453   7.942  0.6791 -0.3901 -0.2720
   30CHL1    C3 2147   3.665   5.024   7.190  0.4721 -1.0166  0.6637
   30CHL1    H3 2148   3.724   5.117   7.176  1.9438 -2.1482 -1.2824
   30CHL1    O3 2149   3.574   5.014   7.088  0.8545 -0.4623 -0.6194
   30CHL1   H3' 2150   3.534   4.928   7.103 -1.6887  0.6326 -0.5630
   30CHL1    C4 2151   3.769   4.905   7.178 -0.7449  0.0982 -0.0301
   30CHL1   H4A 2152   3.707   4.813   7.172 -0.3874 -0.2559  1.3764
   30CHL1   H4B 2153   3.823   4.918   7.082 -0.2722 -0.5048  0.1492
   30CHL1    C5 2154   3.863   4.896   7.297 -0.6545  0.1578 -0.0304
   30CHL1    C6 2155   3.989   4.905   7.280  0.1227 -0.1277  0.3855
   30CHL1    H6 2156   4.042   4.913   7.184 -0.0095  1.0889  0.3990
   30CHL1    C7 2157   4.094   4.895   7.384  0.5406  0.0773 -0.2488
   30CHL1   H7A 2158   4.178   4.829   7.352  1.8127 -0.0086  2.8962
   30CHL1   H7B 2159   4.132   4.993   7.420  0.3056  0.1350 -0.1561
   30CHL1    C8 2160   4.035   4.842   7.518 -0.1382  0.5697  0.8607
   30CHL1    H8 2161   4.004   4.736   7.514 -0.2006  0.5752  1.1691
   30CHL1   C14 2162   4.134   4.862   7.637 -0.0058 -0.3565  0.2508
   30CHL1   H14 2163   4.146   4.972   7.642 -2.5301  0.0377 -0.9457
   30CHL1   C15 2164   4.278   4.792   7.634 -0.2294 -0.2518 -0.4744
   30CHL1  H15A 2165   4.284   4.695   7.580  0.9744 -0.4389 -0.0324
   30CHL1  H15B 2166   4.342   4.859   7.573 -2.0722  0.4870 -1.6716
   30CHL1   C16 2167   4.325   4.796   7.784 -0.3776 -0.1639  0.5536
   30CHL1  H16A 2168   4.368   4.697   7.810 -1.1942 -0.4479  0.8467
   30CHL1  H16B 2169   4.412   4.863   7.802  0.0709 -0.0956 -1.5507
   30CHL1   C17 2170   4.202   4.843   7.858  0.2481 -0.1881  0.0485
   30CHL1   H17 2171   4.202   4.954   7.852  0.2649 -0.1887  0.0403
   30CHL1   C13 2172   4.079   4.818   7.767 -0.3767  0.0867 -0.1413
   30CHL1   C18 2173   4.040   4.667   7.771  0.0056  0.1135 -0.7426
   30CHL1  H18A 2174   3.985   4.637   7.679  1.6566 -2.5570 -0.9703
   30CHL1  H18B 2175   4.126   4.596   7.774 -0.3521 -0.3744  3.1100
   30CHL1  H18C 2176   3.979   4.650   7.863  1.2028 -0.4928 -0.0371
   30CHL1   C12 2177   3.959   4.908   7.802  0.0231 -0.0197  0.1161
   30CHL1  H12A 2178   3.921   4.889   7.905 -2.8316 -0.5249 -0.9549
   30CHL1  H12B 2179   3.993   5.014   7.799  1.3298 -0.3078  2.2838
   30CHL1   C11 2180   3.854   4.893   7.694  0.3350  0.1627 -0.2200
   30CHL1  H11A 2181   3.806   4.793   7.709  2.0488 -0.6989 -0.2684
   30CHL1  H11B 2182   3.782   4.972   7.723 -1.4424 -1.2347 -0.6124
   30CHL1    C9 2183   3.906   4.924   7.550 -0.1131  0.3549 -0.0971
   30CHL1    H9 2184   3.955   5.024   7.544  1.7695 -0.4860  0.6774
   30CHL1   C10 2185   3.793   4.907   7.435  0.0998  0.6222 -1.3112
   30CHL1   C19 2186   3.721   4.773   7.456  0.5235 -0.1960 -0.0899
   30CHL1  H19A 2187   3.668   4.769   7.554 -0.5067 -1.4051 -0.6640
   30CHL1  H19B 2188   3.655   4.749   7.370 -0.3496  0.4888  0.3672
   30CHL1  H19C 2189   3.794   4.690   7.466  1.1080  0.2887 -0.2697
   30CHL1    C1 2190   3.693   5.025   7.440 -0.1563  0.4539 -0.3507
   30CHL1   H1A 2191   3.630   5.018   7.532 -1.3514  0.9502 -1.1056
   30CHL1   H1B 2192   3.753   5.116   7.457  0.3364  0.1104 -0.2354
   30CHL1    C2 2193   3.593   5.031   7.322 -0.2432  0.3997  0.2737
   30CHL1   H2A 2194   3.526   5.120   7.325  1.3838  1.6763  0.3031
   30CHL1   H2B 2195   3.528   4.942   7.340  0.1388  0.5041  2.3469
   30CHL1   C20 2196   4.187   4.796   8.001 -1.0224  0.8133 -0.0765
   30CHL1   H20 2197   4.081   4.804   8.036 -0.5481 -0.2518  1.6859
   30CHL1   C21 2198   4.265   4.899   8.080 -0.0535  0.1155 -0.2922
   30CHL1  H21A 2199   4.370   4.894   8.044  0.0069 -1.3675  0.0450
   30CHL1  H21B 2200   4.269   4.865   8.186  2.8877 -0.3895 -0.4856
   30CHL1  H21C 2201   4.228   5.003   8.067 -0.3715  0.1833  0.9566
   30CHL1   C22 2202   4.247   4.657   8.036  0.1508 -0.2114  0.3679
   30CHL1  H22A 2203   4.235   4.584   7.953  0.8212 -1.2466  1.1608
   30CHL1  H22B 2204   4.353   4.670   8.063 -0.4021  1.0816  2.0852
   30CHL1   C23 2205   4.175   4.596   8.160 -0.3995  0.7331  0.3105
   30CHL1  H23A 2206   4.189   4.651   8.256 -1.7430  0.7679  0.5026
   30CHL1  H23B 2207   4.066   4.610   8.144 -0.3734 -0.1451 -0.7756
   30CHL1   C24 2208   4.200   4.448   8.172 -0.7185  0.6548 -0.1652
   30CHL1  H24A 2209   4.144   4.405   8.257  2.4831 -3.6994  0.1044
   30CHL1  H24B 2210   4.166   4.395   8.081 -0.8273  1.3343 -0.5257
   30CHL1   C25 2211   4.351   4.405   8.191 -0.0906 -0.2183 -0.3661
   30CHL1   H25 2212   4.398   4.462   8.108  1.0333 -3.1671 -1.9124
   30CHL1   C26 2213   4.409   4.463   8.331  0.1199  0.2178  0.3271
   30CHL1  H26A 2214   4.366   4.403   8.415  1.2685 -0.5230  0.4005
   30CHL1  H26B 2215   4.519   4.452   8.331  0.0613 -0.7758  1.7711
   30CHL1  H26C 2216   4.380   4.570   8.339 -0.7936 -0.0936  1.5672
   30CHL1   C27 2217   4.360   4.249   8.176  0.0389 -0.0603  0.4011
   30CHL1  H27A 2218   4.468   4.231   8.158  0.0795  1.5831 -1.3014
   30CHL1  H27B 2219   4.329   4.194   8.268 -1.1090 -3.2274 -1.6973
   30CHL1  H27C 2220   4.293   4.222   8.091 -0.1689 -1.2800  0.9344
   31CHL1    C3 2221   5.803   6.065   6.766  0.4033  0.4962 -1.0466
   31CHL1    H3 2222   5.895   6.126   6.780  0.4579  0.2419 -0.2728
   31CHL1    O3 2223   5.773   6.065   6.626  1.0754  0.1397 -0.2972
   31CHL1   H3' 2224   5.683   6.033   6.627  1.1504 -0.2183 -2.0360
   31CHL1    C4 2225   5.843   5.920   6.808  0.5234  0.2905  0.0490
   31CHL1   H4A 2226   5.773   5.838   6.780 -2.5416  2.6890  0.1974
   31CHL1   H4B 2227   5.935   5.900   6.749  0.0404 -0.5128 -0.4485
   31CHL1    C5 2228   5.874   5.926   6.954 -0.9494  0.6734  0.2115
   31CHL1    C6 2229   5.994   5.883   6.996 -0.9230 -0.8159 -0.1412
   31CHL1    H6 2230   6.069   5.858   6.920 -0.3011 -0.7492  0.4376
   31CHL1    C7 2231   6.037   5.868   7.139  0.1227 -0.4790  0.2522
   31CHL1   H7A 2232   6.089   5.772   7.155  1.6243  0.0885 -0.9937
   31CHL1   H7B 2233   6.096   5.957   7.169  1.4595 -0.2685 -2.6538
   31CHL1    C8 2234   5.911   5.863   7.231 -0.3666  0.0901 -0.0454
   31CHL1    H8 2235   5.855   5.768   7.232  0.5284 -0.4957  2.4343
   31CHL1   C14 2236   5.962   5.881   7.379 -0.0529 -1.0401  0.1005
   31CHL1   H14 2237   6.030   5.969   7.382 -3.4197  1.7919  0.8051
   31CHL1   C15 2238   6.051   5.770   7.439  0.1520 -0.1401 -0.3375
   31CHL1  H15A 2239   6.007   5.669   7.430  1.7373 -0.8224 -0.7620
   31CHL1  H15B 2240   6.157   5.773   7.404  0.9412 -1.3154  1.7893
   31CHL1   C16 2241   6.050   5.803   7.593 -0.1206  0.9898  0.0827
   31CHL1  H16A 2242   6.036   5.712   7.654 -1.4353  0.3827 -1.0804
   31CHL1  H16B 2243   6.141   5.861   7.621 -0.0605  1.1163 -0.3575
   31CHL1   C17 2244   5.932   5.903   7.617 -0.4449  0.1957  0.4986
   31CHL1   H17 2245   5.976   6.005   7.619  0.0735  0.0143 -0.6931
   31CHL1   C13 2246   5.848   5.897   7.483 -0.3640  0.1738 -0.0345
   31CHL1   C18 2247   5.763   5.766   7.490  0.8728 -0.6987 -0.1535
   31CHL1  H18A 2248   5.810   5.692   7.558  1.1710 -1.4165 -1.1152
   31CHL1  H18B 2249   5.666   5.795   7.536  1.4545  0.4663  0.3628
   31CHL1  H18C 2250   5.747   5.719   7.391  1.9837 -0.0370 -0.6653
   31CHL1   C12 2251   5.772   6.016   7.444 -0.0084  0.1989  0.0478
   31CHL1  H12A 2252   5.696   6.054   7.515  0.5947  5.3138 -1.6219
   31CHL1  H12B 2253   5.840   6.105   7.446  1.3709 -0.7934 -0.9331
   31CHL1   C11 2254   5.708   6.017   7.302 -0.2113 -0.0564 -0.4351
   31CHL1  H11A 2255   5.633   5.936   7.313  2.9369 -2.9385  2.1630
   31CHL1  H11B 2256   5.675   6.121   7.287  2.3182  0.8189 -0.4671
   31CHL1    C9 2257   5.816   5.986   7.199  0.1727  0.2477  0.8400
   31CHL1    H9 2258   5.891   6.067   7.209  1.2004 -0.5397 -0.1680
   31CHL1   C10 2259   5.762   5.981   7.050 -0.4768  0.7303 -0.6593
   31CHL1   C19 2260   5.649   5.875   7.051  0.0258  0.0928  0.6667
   31CHL1  H19A 2261   5.609   5.864   6.948  0.3148  0.3013  0.5297
   31CHL1  H19B 2262   5.683   5.774   7.083  0.1825 -0.7351 -1.8567
   31CHL1  H19C 2263   5.565   5.904   7.117  1.2223  0.0054  2.2939
   31CHL1    C1 2264   5.724   6.129   7.001  0.5578  0.0214 -0.6779
   31CHL1   H1A 2265   5.632   6.158   7.056  0.9270 -0.5491  0.2914
   31CHL1   H1B 2266   5.809   6.198   7.019 -0.5645  1.3649 -0.3683
   31CHL1    C2 2267   5.683   6.121   6.854  0.3564 -0.6737  0.5695
   31CHL1   H2A 2268   5.656   6.221   6.814  0.3609 -1.7931 -2.4824
   31CHL1   H2B 2269   5.602   6.047   6.838  1.6737 -1.9539 -0.5033
   31CHL1   C20 2270   5.856   5.869   7.745 -0.1427 -0.4061 -0.1231
   31CHL1   H20 2271   5.803   5.772   7.745  0.8865 -1.0276  2.1474
   31CHL1   C21 2272   5.739   5.970   7.756 -0.3742 -0.1900 -0.9327
   31CHL1  H21A 2273   5.665   5.955   7.675 -0.2597 -2.9694 -0.6399
   31CHL1  H21B 2274   5.787   6.069   7.739 -0.1469 -0.5839 -2.6988
   31CHL1  H21C 2275   5.687   5.952   7.853  3.1879  1.1553  1.4418
   31CHL1   C22 2276   5.946   5.877   7.868 -0.2519  0.2884 -0.3767
   31CHL1  H22A 2277   6.028   5.805   7.848 -0.2495  0.1801  0.0265
   31CHL1  H22B 2278   5.995   5.976   7.880 -1.2188  0.9173 -1.3871
   31CHL1   C23 2279   5.883   5.830   8.001  0.2262  0.0442  0.3321
   31CHL1  H23A 2280   5.778   5.860   8.023  0.8319  1.9246  0.8336
   31CHL1  H23B 2281   5.890   5.721   7.984  0.2711  0.3838 -2.2443
   31CHL1   C24 2282   5.970   5.877   8.113  0.0677 -0.1177  0.7544
   31CHL1  H24A 2283   6.071   5.846   8.079 -0.7560  0.1981 -2.2164
   31CHL1  H24B 2284   5.965   5.987   8.103 -2.6305 -0.3350 -1.2920
   31CHL1   C25 2285   5.930   5.829   8.254  0.0888  0.4015 -0.0572
   31CHL1   H25 2286   5.826   5.862   8.270 -1.2779 -1.9697 -2.9313
   31CHL1   C26 2287   5.944   5.683   8.269 -0.0117 -0.5946  1.0123
   31CHL1  H26A 2288   5.940   5.666   8.378  1.5707  0.5773  1.2828
   31CHL1  H26B 2289   5.857   5.634   8.220  0.1290 -0.0273  0.1702
   31CHL1  H26C 2290   6.047   5.649   8.244  0.0001 -0.5279  0.9670
   31CHL1   C27 2291   6.014   5.892   8.368  0.2935 -0.4608 -0.1540
   31CHL1  H27A 2292   5.983   5.999   8.374 -0.4924 -0.6221 -1.0326
   31CHL1  H27B 2293   6.118   5.875   8.333  0.1460 -1.9579  0.0567
   31CHL1  H27C 2294   5.997   5.847   8.468 -1.2925  1.4765  0.5130
   32CHL1    C3 2295   4.466   6.413   6.988 -0.4903 -0.0377  0.3487
   32CHL1    H3 2296   4.371   6.470   6.987 -1.1752 -1.1316 -0.8713
   32CHL1    O3 2297   4.475   6.357   6.859 -0.5120 -0.4356 -0.3568
   32CHL1   H3' 2298   4.386   6.320   6.857  0.0216 -1.8581  0.5912
   32CHL1    C4 2299   4.596   6.482   7.020  0.3211 -0.0742  0.5608
   32CHL1   H4A 2300   4.682   6.416   6.996  0.6267  0.4179  0.2918
   32CHL1   H4B 2301   4.597   6.570   6.952 -0.9349 -0.5710 -0.1296
   32CHL1    C5 2302   4.612   6.537   7.161 -0.2493 -0.4645  0.0715
   32CHL1    C6 2303   4.629   6.667   7.196  0.3752  0.2054 -0.4966
   32CHL1    H6 2304   4.618   6.750   7.123  1.2514  1.7266  1.0196
   32CHL1    C7 2305   4.639   6.715   7.340 -0.2040  0.0022  0.7334
   32CHL1   H7A 2306   4.726   6.784   7.350  0.0322 -0.2599  0.5081
   32CHL1   H7B 2307   4.546   6.766   7.370  1.7045  3.4097  1.4206
   32CHL1    C8 2308   4.669   6.597   7.436 -0.1794  0.4487  0.3349
   32CHL1    H8 2309   4.773   6.567   7.411 -0.5894  1.5092 -3.2672
   32CHL1   C14 2310   4.651   6.650   7.580  0.6940 -0.1105  0.2311
   32CHL1   H14 2311   4.552   6.700   7.590  0.3953 -0.8560  1.0863
   32CHL1   C15 2312   4.738   6.769   7.620  0.2768  0.3409 -0.0349
   32CHL1  H15A 2313   4.842   6.751   7.585 -0.0613 -4.4541  0.8177
   32CHL1  H15B 2314   4.693   6.863   7.580 -0.7210  0.2885  0.9114
   32CHL1   C16 2315   4.734   6.768   7.772  0.2341 -0.3033  0.3207
   32CHL1  H16A 2316   4.833   6.776   7.823  0.4883  1.5835 -0.3773
   32CHL1  H16B 2317   4.656   6.844   7.795 -1.6390 -1.6665 -1.2383
   32CHL1   C17 2318   4.671   6.630   7.818  0.7039  0.2052  0.2044
   32CHL1   H17 2319   4.564   6.658   7.831  0.3250 -0.9285 -0.3254
   32CHL1   C13 2320   4.669   6.543   7.686 -0.1970 -0.4737 -0.2109
   32CHL1   C18 2321   4.809   6.470   7.668 -0.2972  0.2796 -0.0458
   32CHL1  H18A 2322   4.829   6.388   7.741  3.7660  1.5314  0.4796
   32CHL1  H18B 2323   4.816   6.418   7.570  0.7898 -0.3485  0.3527
   32CHL1  H18C 2324   4.894   6.541   7.676  0.4499 -0.5881 -0.1453
   32CHL1   C12 2325   4.551   6.449   7.663 -0.4932 -0.0168  0.5146
   32CHL1  H12A 2326   4.536   6.368   7.737  1.5384 -1.5561 -0.6466
   32CHL1  H12B 2327   4.461   6.513   7.669  0.2346  1.2293 -1.0585
   32CHL1   C11 2328   4.568   6.382   7.522  0.3976 -0.1200  0.6202
   32CHL1  H11A 2329   4.660   6.319   7.525  0.4108 -0.1685 -0.6139
   32CHL1  H11B 2330   4.475   6.322   7.514  1.0481 -1.3825  1.9467
   32CHL1    C9 2331   4.572   6.486   7.401  0.1320 -0.0186 -0.4826
   32CHL1    H9 2332   4.472   6.534   7.399  0.6638  1.1497  0.1549
   32CHL1   C10 2333   4.581   6.421   7.264 -0.9997  0.1339  0.4161
   32CHL1   C19 2334   4.707   6.324   7.263 -0.0457 -0.3843 -0.5447
   32CHL1  H19A 2335   4.736   6.310   7.157 -1.6718  0.6621 -1.1795
   32CHL1  H19B 2336   4.792   6.371   7.318 -1.2049  0.5251  0.5337
   32CHL1  H19C 2337   4.683   6.227   7.311 -0.1280  0.3189  0.9129
   32CHL1    C1 2338   4.449   6.347   7.229  0.1615  0.8405  0.2822
   32CHL1   H1A 2339   4.436   6.258   7.293 -3.6915  0.7317 -0.4331
   32CHL1   H1B 2340   4.363   6.417   7.240 -0.1183  0.7068 -0.9046
   32CHL1    C2 2341   4.448   6.296   7.081  0.3745  0.1190  0.3374
   32CHL1   H2A 2342   4.353   6.247   7.051 -0.2923 -0.4628  3.1429
   32CHL1   H2B 2343   4.527   6.220   7.059 -2.5170 -2.6851 -1.1886
   32CHL1   C20 2344   4.732   6.581   7.946 -0.7381  1.0769 -0.3961
   32CHL1   H20 2345   4.837   6.550   7.929 -1.0706  1.3834 -3.6473
   32CHL1   C21 2346   4.648   6.457   7.987  0.5937  0.5815  0.5075
   32CHL1  H21A 2347   4.543   6.493   7.979 -0.6893 -2.9286 -0.7569
   32CHL1  H21B 2348   4.663   6.417   8.090 -1.6685  0.0274  0.6864
   32CHL1  H21C 2349   4.660   6.373   7.915  0.3864  0.5016  0.5641
   32CHL1   C22 2350   4.716   6.689   8.057  0.1236  0.3031 -0.2331
   32CHL1  H22A 2351   4.778   6.775   8.023  0.1604  0.7420  0.8787
   32CHL1  H22B 2352   4.612   6.718   8.084  0.3381 -0.1261  1.1087
   32CHL1   C23 2353   4.792   6.652   8.186 -0.1780 -0.5383 -0.7277
   32CHL1  H23A 2354   4.744   6.570   8.244  0.3271 -0.1163  0.2973
   32CHL1  H23B 2355   4.894   6.618   8.160  1.2258  2.6684  0.1092
   32CHL1   C24 2356   4.799   6.777   8.273 -0.1361 -0.0898  0.2371
   32CHL1  H24A 2357   4.849   6.862   8.222 -0.4350 -0.4699 -0.7076
   32CHL1  H24B 2358   4.695   6.812   8.288  0.3771  3.0539 -2.5090
   32CHL1   C25 2359   4.876   6.759   8.404 -0.3227  0.9828 -0.4484
   32CHL1   H25 2360   4.981   6.730   8.384 -0.3849  0.2869  0.2009
   32CHL1   C26 2361   4.856   6.892   8.487  0.0143 -0.0767  0.3544
   32CHL1  H26A 2362   4.869   6.980   8.421 -0.8084  0.3142  0.7020
   32CHL1  H26B 2363   4.747   6.888   8.508  0.4560 -0.2262  2.8827
   32CHL1  H26C 2364   4.926   6.904   8.572  0.1377  1.1424  0.0921
   32CHL1   C27 2365   4.811   6.646   8.487  0.1481 -0.4624  0.4243
   32CHL1  H27A 2366   4.702   6.657   8.468  0.1772 -1.1697 -0.1786
   32CHL1  H27B 2367   4.837   6.548   8.442 -1.2612 -1.1789  1.1090
   32CHL1  H27C 2368   4.846   6.652   8.593 -0.8896  1.5077  0.6969
   33CHL1    C3 2369   5.479   2.385   6.797 -0.0715  0.4775  0.3639
   33CHL1    H3 2370   5.586   2.369   6.773 -0.1125 -2.5414  1.7432
   33CHL1    O3 2371   5.419   2.379   6.667 -0.2031  0.6415 -0.1011
   33CHL1   H3' 2372   5.324   2.375   6.681 -0.1412  2.1089  0.9698
   33CHL1    C4 2373   5.425   2.265   6.877 -0.2873  0.7146  0.1290
   33CHL1   H4A 2374   5.316   2.274   6.893 -0.3714 -1.9539  1.5329
   33CHL1   H4B 2375   5.424   2.169   6.822 -1.8475 -1.4715  3.6480
   33CHL1    C5 2376   5.488   2.264   7.015 -0.0782  0.5487 -0.2626
   33CHL1    C6 2377   5.554   2.155   7.055 -0.2120 -0.6560  0.2160
   33CHL1    H6 2378   5.571   2.078   6.978 -0.6259 -0.5111 -0.0235
   33CHL1    C7 2379   5.610   2.138   7.196  0.3137  0.5469 -0.0558
   33CHL1   H7A 2380   5.568   2.043   7.236 -1.1250  1.0875 -0.2116
   33CHL1   H7B 2381   5.719   2.117   7.195 -0.2604 -3.1757 -1.2323
   33CHL1    C8 2382   5.571   2.250   7.293  0.2657 -0.1504  0.3743
   33CHL1    H8 2383   5.466   2.228   7.324  0.6644 -0.6374  1.4364
   33CHL1   C14 2384   5.658   2.251   7.416 -0.1358 -0.2538  0.2959
   33CHL1   H14 2385   5.764   2.265   7.387 -0.4975  3.7518  0.3395
   33CHL1   C15 2386   5.651   2.116   7.494  0.4782  0.4072  0.7850
   33CHL1  H15A 2387   5.544   2.086   7.506  1.1714 -2.4206  0.6038
   33CHL1  H15B 2388   5.703   2.032   7.444 -1.9492 -0.4247 -0.5410
   33CHL1   C16 2389   5.711   2.159   7.625  0.6550 -0.1612 -1.0012
   33CHL1  H16A 2390   5.634   2.128   7.699  1.1155  0.1526 -0.3872
   33CHL1  H16B 2391   5.808   2.115   7.656  0.2258  0.8644  2.1359
   33CHL1   C17 2392   5.730   2.313   7.621 -0.0373 -0.5710  0.4874
   33CHL1   H17 2393   5.834   2.332   7.585 -0.6901 -1.7168 -2.2374
   33CHL1   C13 2394   5.634   2.363   7.514 -0.1682 -0.6192 -0.3301
   33CHL1   C18 2395   5.488   2.368   7.576  0.5719 -0.2925 -0.2284
   33CHL1  H18A 2396   5.478   2.450   7.650 -1.9376 -1.6294  1.0429
   33CHL1  H18B 2397   5.406   2.382   7.503  0.0327  3.3550  0.8666
   33CHL1  H18C 2398   5.467   2.278   7.638  0.2723  0.5512  0.9447
   33CHL1   C12 2399   5.665   2.495   7.437 -0.2407  0.3060  0.9452
   33CHL1  H12A 2400   5.651   2.581   7.507 -1.6013 -0.0666  1.1596
   33CHL1  H12B 2401   5.768   2.491   7.394 -0.2782  0.7018  0.8068
   33CHL1   C11 2402   5.566   2.513   7.311 -0.0785  0.2961 -0.9600
   33CHL1  H11A 2403   5.461   2.529   7.342 -0.0681  2.3535 -1.8066
   33CHL1  H11B 2404   5.607   2.598   7.252 -0.6540 -0.2521 -2.1994
   33CHL1    C9 2405   5.570   2.383   7.218  0.3424 -0.6299 -0.3175
   33CHL1    H9 2406   5.680   2.384   7.198  0.6545 -0.0835  1.3232
   33CHL1   C10 2407   5.482   2.393   7.097 -0.0803  0.6611  0.0038
   33CHL1   C19 2408   5.337   2.416   7.152  1.0799 -0.2254  0.1292
   33CHL1  H19A 2409   5.325   2.513   7.204 -0.6441  0.0673 -0.7237
   33CHL1  H19B 2410   5.259   2.426   7.073 -1.5494 -1.5849  2.3810
   33CHL1  H19C 2411   5.303   2.334   7.219  0.9513  0.0505  0.4019
   33CHL1    C1 2412   5.524   2.511   7.016 -0.3309 -0.1855  0.3929
   33CHL1   H1A 2413   5.485   2.599   7.071 -1.3800 -1.0027  1.0189
   33CHL1   H1B 2414   5.632   2.529   7.030 -0.0326 -0.3842 -1.3974
   33CHL1    C2 2415   5.458   2.513   6.873 -0.4463  0.2160 -0.4233
   33CHL1   H2A 2416   5.518   2.590   6.821 -2.0335  1.0953 -1.0315
   33CHL1   H2B 2417   5.354   2.551   6.877 -0.3492  0.5230 -0.8561
   33CHL1   C20 2418   5.724   2.375   7.756  0.0510  0.0465 -0.4655
   33CHL1   H20 2419   5.621   2.389   7.795  0.4879 -0.3762  0.9146
   33CHL1   C21 2420   5.789   2.515   7.749  0.7094  0.5573 -0.3193
   33CHL1  H21A 2421   5.714   2.575   7.693 -0.1849 -1.0745 -0.9198
   33CHL1  H21B 2422   5.887   2.523   7.696  0.3505 -2.9793 -1.7627
   33CHL1  H21C 2423   5.799   2.561   7.849  1.0474 -0.2208  0.0163
   33CHL1   C22 2424   5.788   2.286   7.869  0.3684  0.1024 -0.3844
   33CHL1  H22A 2425   5.741   2.185   7.866 -0.9421  0.5235  2.1700
   33CHL1  H22B 2426   5.897   2.273   7.855  0.0464  0.3274 -3.8100
   33CHL1   C23 2427   5.764   2.337   8.009  0.2014  0.3774  0.5316
   33CHL1  H23A 2428   5.818   2.273   8.082 -2.0954 -1.2555  0.9217
   33CHL1  H23B 2429   5.800   2.441   8.021  1.9081 -0.2267  0.9278
   33CHL1   C24 2430   5.623   2.321   8.057 -0.3092 -0.6024 -0.3239
   33CHL1  H24A 2431   5.552   2.374   7.991 -0.2295  0.6067  0.5213
   33CHL1  H24B 2432   5.598   2.213   8.051 -0.7961 -0.4434 -1.3101
   33CHL1   C25 2433   5.590   2.387   8.189  0.0384 -0.0702  0.8660
   33CHL1   H25 2434   5.648   2.482   8.189 -0.8187  0.4758  2.3168
   33CHL1   C26 2435   5.439   2.417   8.200  0.1027 -0.3225 -0.5822
   33CHL1  H26A 2436   5.414   2.464   8.298 -0.2644  1.4620 -1.4908
   33CHL1  H26B 2437   5.427   2.497   8.124  2.6976  1.7369  0.9922
   33CHL1  H26C 2438   5.378   2.326   8.183 -1.6413  0.8892 -1.0943
   33CHL1   C27 2439   5.643   2.296   8.304  0.2532 -0.3974 -0.0026
   33CHL1  H27A 2440   5.754   2.303   8.308  0.2235 -0.2995  2.2399
   33CHL1  H27B 2441   5.607   2.339   8.400 -0.4825 -2.8563  0.8914
   33CHL1  H27C 2442   5.614   2.189   8.301 -0.1319 -0.2689 -1.4214
   34CHL1    C3 2443   6.161   0.742   7.254  0.3953 -0.2031 -0.0962
   34CHL1    H3 2444   6.166   0.631   7.266  0.7241 -0.2369 -0.5219
   34CHL1    O3 2445   6.137   0.767   7.119 -0.6383  0.4776  0.0529
   34CHL1   H3' 2446   6.041   0.768   7.107 -0.4419 -0.0778 -1.7856
   34CHL1    C4 2447   6.041   0.792   7.336 -0.1193 -0.1099 -0.0829
   34CHL1   H4A 2448   6.022   0.898   7.310 -0.3387  0.0111  0.5459
   34CHL1   H4B 2449   5.951   0.735   7.306 -0.9701  0.5619  1.0917
   34CHL1    C5 2450   6.068   0.772   7.481 -0.1434 -0.4456  0.0064
   34CHL1    C6 2451   5.982   0.704   7.558 -0.7072  0.1533 -0.2669
   34CHL1    H6 2452   5.886   0.665   7.519 -1.5226  2.4172 -0.6302
   34CHL1    C7 2453   6.005   0.682   7.711  0.4655 -0.8681  0.3117
   34CHL1   H7A 2454   5.908   0.696   7.764 -0.1584 -0.9872 -0.7499
   34CHL1   H7B 2455   6.041   0.577   7.718 -0.4321 -1.2924 -0.9687
   34CHL1    C8 2456   6.103   0.788   7.771 -0.3305 -0.6504 -0.3016
   34CHL1    H8 2457   6.058   0.888   7.755  1.1679 -0.1490 -1.6954
   34CHL1   C14 2458   6.136   0.763   7.917 -0.0174 -0.3063 -0.7190
   34CHL1   H14 2459   6.178   0.661   7.926 -0.7797 -0.4247  3.7982
   34CHL1   C15 2460   6.021   0.764   8.020  0.1878 -0.2584 -0.4824
   34CHL1  H15A 2461   5.950   0.850   8.011  0.4256 -0.1944 -2.1103
   34CHL1  H15B 2462   5.959   0.672   8.011 -0.6081  0.1476  0.6766
   34CHL1   C16 2463   6.092   0.778   8.154  0.5314 -0.5174  0.5869
   34CHL1  H16A 2464   6.040   0.857   8.213  1.4401  1.7083 -1.4317
   34CHL1  H16B 2465   6.102   0.683   8.212  0.8570 -1.4231 -0.8986
   34CHL1   C17 2466   6.234   0.828   8.131  0.0592 -0.7086 -0.5314
   34CHL1   H17 2467   6.289   0.732   8.143 -1.7483 -1.7972 -0.5704
   34CHL1   C13 2468   6.236   0.864   7.978  0.9017 -0.9679  0.1357
   34CHL1   C18 2469   6.190   1.012   7.962 -0.0790  0.0114  0.2058
   34CHL1  H18A 2470   6.089   1.020   8.008  0.9616 -0.5938  2.7404
   34CHL1  H18B 2471   6.257   1.086   8.009 -1.4805  0.8869  0.9041
   34CHL1  H18C 2472   6.169   1.034   7.855  1.2286 -0.4486 -0.1643
   34CHL1   C12 2473   6.368   0.834   7.906  0.4806  0.0079 -0.1717
   34CHL1  H12A 2474   6.454   0.902   7.926  3.2932 -2.8277 -1.6645
   34CHL1  H12B 2475   6.404   0.730   7.916  0.9775  0.2899  1.2122
   34CHL1   C11 2476   6.354   0.843   7.752 -0.1393 -0.7826 -0.6628
   34CHL1  H11A 2477   6.352   0.950   7.721 -1.5346 -0.1250  1.4861
   34CHL1  H11B 2478   6.449   0.803   7.712  0.4936  0.5088 -0.5165
   34CHL1    C9 2479   6.229   0.783   7.677  0.7812 -0.6105 -0.2007
   34CHL1    H9 2480   6.257   0.675   7.670  0.7434 -0.6091 -0.3842
   34CHL1   C10 2481   6.206   0.827   7.527  0.0017 -0.5434  0.0107
   34CHL1   C19 2482   6.182   0.984   7.518 -0.9148 -0.1774  0.0008
   34CHL1  H19A 2483   6.154   1.026   7.419  1.7208 -1.8381 -1.6006
   34CHL1  H19B 2484   6.106   1.000   7.598  0.7257 -0.8128  1.7797
   34CHL1  H19C 2485   6.281   1.032   7.534 -1.1099  0.0508  0.5696
   34CHL1    C1 2486   6.316   0.774   7.434  0.0522  0.0639 -0.9242
   34CHL1   H1A 2487   6.413   0.818   7.466 -0.6251  1.1145 -0.2503
   34CHL1   H1B 2488   6.313   0.664   7.451 -3.0610  0.4065  1.7867
   34CHL1    C2 2489   6.294   0.801   7.290  0.2179 -0.2297 -0.6231
   34CHL1   H2A 2490   6.374   0.751   7.232 -0.2991 -1.6228 -0.1888
   34CHL1   H2B 2491   6.297   0.910   7.270  0.6968 -0.2662 -0.7671
   34CHL1   C20 2492   6.283   0.930   8.238 -0.5529  0.0258  0.6069
   34CHL1   H20 2493   6.212   1.015   8.231 -2.1072 -1.2776  0.1463
   34CHL1   C21 2494   6.425   0.978   8.209 -0.0759  0.1147  0.1188
   34CHL1  H21A 2495   6.497   0.899   8.239 -1.8855 -1.5651  0.1774
   34CHL1  H21B 2496   6.441   1.075   8.263  1.7424 -1.1095  1.9209
   34CHL1  H21C 2497   6.436   0.999   8.100  0.4335  1.1754  0.3516
   34CHL1   C22 2498   6.274   0.891   8.388 -0.5300 -0.6574 -0.6351
   34CHL1  H22A 2499   6.168   0.860   8.403 -1.0135 -0.0938 -2.6608
   34CHL1  H22B 2500   6.345   0.809   8.413 -0.5244 -0.6681 -0.6872
   34CHL1   C23 2501   6.288   1.008   8.481  0.1744  0.4203 -0.5748
   34CHL1  H23A 2502   6.393   1.044   8.486  1.7653 -3.2660 -2.6040
   34CHL1  H23B 2503   6.235   1.092   8.431 -1.8162 -0.9137 -0.8273
   34CHL1   C24 2504   6.217   0.985   8.614 -0.2729  0.6426 -1.0647
   34CHL1  H24A 2505   6.108   0.971   8.595 -0.6721 -0.1049  1.4242
   34CHL1  H24B 2506   6.265   0.903   8.672  0.3387  1.7523  0.0476
   34CHL1   C25 2507   6.235   1.097   8.718 -0.2689 -0.0371 -0.1100
   34CHL1   H25 2508   6.196   1.057   8.814  1.2588 -2.8279 -0.5563
   34CHL1   C26 2509   6.384   1.122   8.755 -0.1753  0.1654 -0.3129
   34CHL1  H26A 2510   6.442   1.030   8.779  2.2492  1.3382 -1.2813
   34CHL1  H26B 2511   6.436   1.168   8.668 -0.3267  1.4042  0.2362
   34CHL1  H26C 2512   6.384   1.196   8.838 -1.9314  1.7659 -1.6516
   34CHL1   C27 2513   6.165   1.232   8.680  0.3991  0.5398 -0.7722
   34CHL1  H27A 2514   6.222   1.299   8.611 -0.2414  1.2060 -0.6587
   34CHL1  H27B 2515   6.065   1.219   8.635  1.3978 -1.2903 -2.6694
   34CHL1  H27C 2516   6.155   1.284   8.778  3.0797 -1.6460  0.8299
   35CHL1    C3 2517   4.126   2.676   7.217  0.0346 -0.9104 -0.1002
   35CHL1    H3 2518   4.183   2.594   7.267  1.5716 -0.2881 -0.7546
   35CHL1    O3 2519   4.117   2.657   7.075  0.2772 -0.3766  0.2229
   35CHL1   H3' 2520   4.209   2.665   7.048  1.2762  0.1307  3.3859
   35CHL1    C4 2521   3.984   2.678   7.267  0.3406  0.1491 -0.1654
   35CHL1   H4A 2522   3.940   2.765   7.215  1.2338  0.5425 -0.2851
   35CHL1   H4B 2523   3.927   2.589   7.234 -1.4732  1.4874 -0.7707
   35CHL1    C5 2524   3.983   2.699   7.420 -0.7059 -0.0867 -0.1271
   35CHL1    C6 2525   3.932   2.609   7.500 -0.3024 -0.1156 -0.1913
   35CHL1    H6 2526   3.884   2.520   7.457 -2.1231  0.2545  0.9928
   35CHL1    C7 2527   3.920   2.627   7.651  0.3756 -0.0827 -0.1322
   35CHL1   H7A 2528   3.819   2.590   7.680  0.0282  1.8623  1.3975
   35CHL1   H7B 2529   3.990   2.566   7.712  0.4631 -1.7165 -1.7897
   35CHL1    C8 2530   3.947   2.774   7.702  0.2794  0.2310  0.2175
   35CHL1    H8 2531   3.856   2.830   7.669 -0.0045 -0.8938 -1.0084
   35CHL1   C14 2532   3.961   2.776   7.855 -0.9201 -0.6342 -0.1900
   35CHL1   H14 2533   4.048   2.713   7.879 -0.1735  0.1693 -0.7092
   35CHL1   C15 2534   3.842   2.724   7.937 -0.5882 -0.1634 -0.6582
   35CHL1  H15A 2535   3.746   2.757   7.893 -0.1978  0.5089 -1.0221
   35CHL1  H15B 2536   3.840   2.613   7.928 -1.7735 -0.1210 -1.0157
   35CHL1   C16 2537   3.862   2.777   8.082 -0.6458 -0.7124  0.0042
   35CHL1  H16A 2538   3.772   2.829   8.118 -1.5566 -3.5401  2.2538
   35CHL1  H16B 2539   3.879   2.703   8.163  2.2880 -1.0175 -0.7518
   35CHL1   C17 2540   3.983   2.879   8.068  0.7246  0.7998 -0.6972
   35CHL1   H17 2541   4.073   2.815   8.086 -0.4029 -0.7480 -0.3883
   35CHL1   C13 2542   3.985   2.916   7.917  0.2841 -0.2538  0.3238
   35CHL1   C18 2543   3.874   3.014   7.891  0.3509  0.1404  0.0092
   35CHL1  H18A 2544   3.898   3.121   7.912 -1.5898  0.5373  0.3573
   35CHL1  H18B 2545   3.862   3.011   7.780  4.6962  0.0084 -0.6442
   35CHL1  H18C 2546   3.774   2.998   7.936 -0.2059 -1.1189 -1.5691
   35CHL1   C12 2547   4.115   2.965   7.851 -0.5281 -0.4239  0.0650
   35CHL1  H12A 2548   4.142   3.068   7.881 -1.3247 -0.6333  1.5626
   35CHL1  H12B 2549   4.200   2.897   7.875 -0.8629 -1.2632 -1.0168
   35CHL1   C11 2550   4.125   2.962   7.693  0.1237 -0.1648 -0.9137
   35CHL1  H11A 2551   4.064   3.049   7.662 -1.3020 -0.0503  1.8889
   35CHL1  H11B 2552   4.231   2.989   7.672  0.4378  0.6645  1.4278
   35CHL1    C9 2553   4.070   2.829   7.625  0.3106 -0.6824 -0.2503
   35CHL1    H9 2554   4.153   2.757   7.644  1.7280  0.0270 -3.1655
   35CHL1   C10 2555   4.048   2.828   7.470 -0.3443 -0.3053 -0.5547
   35CHL1   C19 2556   3.958   2.942   7.430  0.0044 -0.3459  0.2591
   35CHL1  H19A 2557   3.869   2.943   7.497  1.2006 -0.6030  1.9153
   35CHL1  H19B 2558   3.998   3.041   7.461  0.9688 -0.4306 -0.6685
   35CHL1  H19C 2559   3.938   2.944   7.321 -1.3047  0.0854  0.4840
   35CHL1    C1 2560   4.190   2.846   7.400  0.2810 -0.1997  0.0434
   35CHL1   H1A 2561   4.223   2.951   7.415 -1.2726  0.2040  0.9357
   35CHL1   H1B 2562   4.263   2.784   7.457 -0.3810 -0.2094  0.9101
   35CHL1    C2 2563   4.192   2.808   7.247 -0.0137 -1.5574 -0.4841
   35CHL1   H2A 2564   4.301   2.803   7.228  0.1808  0.6975 -0.1762
   35CHL1   H2B 2565   4.125   2.881   7.199 -0.6184  0.2682  2.8054
   35CHL1   C20 2566   3.989   2.988   8.172  0.2414  0.2758  0.4125
   35CHL1   H20 2567   3.924   3.070   8.132 -1.6511 -2.2169 -2.0575
   35CHL1   C21 2568   4.131   3.031   8.188 -0.7085 -0.8264  0.8767
   35CHL1  H21A 2569   4.181   3.072   8.097 -0.6953  0.1235  1.2982
   35CHL1  H21B 2570   4.190   2.940   8.211 -0.9815 -1.9159 -2.2127
   35CHL1  H21C 2571   4.151   3.110   8.264 -0.5940 -0.3851  0.3959
   35CHL1   C22 2572   3.930   2.941   8.300 -1.1045 -0.0125 -0.5503
   35CHL1  H22A 2573   3.824   2.912   8.282 -1.0165  0.1413 -1.3326
   35CHL1  H22B 2574   3.984   2.851   8.339 -0.8059 -0.2930 -1.5795
   35CHL1   C23 2575   3.921   3.057   8.410  0.1276  1.2056 -1.0063
   35CHL1  H23A 2576   4.021   3.089   8.446 -0.6014  0.9677  1.4308
   35CHL1  H23B 2577   3.876   3.147   8.362 -2.1174  0.8338  0.2294
   35CHL1   C24 2578   3.824   3.025   8.533  0.5969 -0.4300  0.6888
   35CHL1  H24A 2579   3.733   2.973   8.494  1.2348  0.2930 -2.0059
   35CHL1  H24B 2580   3.864   2.941   8.594 -1.4516 -0.4890  2.0667
   35CHL1   C25 2581   3.807   3.144   8.632  0.1371  0.1033  0.1339
   35CHL1   H25 2582   3.903   3.200   8.640  0.0059  0.1111  2.0679
   35CHL1   C26 2583   3.696   3.235   8.570 -0.4060  0.4817 -0.1137
   35CHL1  H26A 2584   3.596   3.188   8.581  0.9254 -2.2625  1.2683
   35CHL1  H26B 2585   3.698   3.335   8.617  3.9714  1.6017 -2.0946
   35CHL1  H26C 2586   3.733   3.254   8.467  0.6903  0.6938  0.3072
   35CHL1   C27 2587   3.780   3.097   8.778  0.0370  0.3378 -0.0414
   35CHL1  H27A 2588   3.857   3.039   8.832 -0.2752  0.3839  0.4541
   35CHL1  H27B 2589   3.683   3.043   8.777  0.3406 -0.2152 -0.4367
   35CHL1  H27C 2590   3.756   3.181   8.847 -0.5181 -1.4949  2.1023
   36CHL1    C3 2591   5.024   4.478   7.070 -0.1111 -1.0775 -0.0781
   36CHL1    H3 2592   5.016   4.589   7.063 -1.5714 -1.1622 -0.0729
   36CHL1    O3 2593   4.990   4.430   6.943  0.3997 -1.0242 -0.0606
   36CHL1   H3' 2594   4.894   4.428   6.940  0.3736 -1.1497  0.7354
   36CHL1    C4 2595   5.170   4.449   7.113 -0.7638 -0.0272 -0.2062
   36CHL1   H4A 2596   5.190   4.341   7.098  0.6432  0.5117 -2.9422
   36CHL1   H4B 2597   5.237   4.489   7.034  0.4229 -3.3313 -1.0047
   36CHL1    C5 2598   5.187   4.499   7.256 -0.1738  0.4894  0.3045
   36CHL1    C6 2599   5.281   4.586   7.284 -0.0493 -0.1178 -0.3174
   36CHL1    H6 2600   5.339   4.616   7.195  0.3783 -2.4265 -0.8862
   36CHL1    C7 2601   5.329   4.625   7.423  0.6061  0.3772 -0.7667
   36CHL1   H7A 2602   5.440   4.630   7.429  0.7069 -1.7564  4.2836
   36CHL1   H7B 2603   5.296   4.729   7.444  0.2736  0.4779 -1.7555
   36CHL1    C8 2604   5.265   4.524   7.522 -0.1016  0.2080 -0.2459
   36CHL1    H8 2605   5.328   4.433   7.521  0.8577  0.8623 -0.9779
   36CHL1   C14 2606   5.276   4.582   7.656 -0.7532 -1.0991  0.2409
   36CHL1   H14 2607   5.209   4.670   7.642 -0.5574 -0.8733  0.7052
   36CHL1   C15 2608   5.416   4.644   7.699 -0.3839 -0.2356 -0.3117
   36CHL1  H15A 2609   5.507   4.579   7.696 -0.7940 -0.9994  1.7831
   36CHL1  H15B 2610   5.430   4.744   7.653 -0.4449 -0.5704 -1.0572
   36CHL1   C16 2611   5.407   4.653   7.856  0.3093 -0.3523 -0.2045
   36CHL1  H16A 2612   5.485   4.594   7.908 -0.0658 -0.4336  0.2756
   36CHL1  H16B 2613   5.409   4.760   7.887  2.2084 -0.6134  0.7312
   36CHL1   C17 2614   5.267   4.585   7.893  0.2297  0.1458  0.4376
   36CHL1   H17 2615   5.186   4.660   7.907  1.2328  1.2189  0.5690
   36CHL1   C13 2616   5.228   4.498   7.773 -0.8791 -0.3330  0.7673
   36CHL1   C18 2617   5.312   4.367   7.782 -0.5231 -0.0167 -0.0051
   36CHL1  H18A 2618   5.277   4.307   7.869 -1.0003  0.4497  0.1241
   36CHL1  H18B 2619   5.298   4.304   7.691 -1.4528 -0.8502  0.6889
   36CHL1  H18C 2620   5.419   4.395   7.798 -0.9546  0.8713  1.5136
   36CHL1   C12 2621   5.084   4.467   7.749  1.0162  0.2374  0.1745
   36CHL1  H12A 2622   5.060   4.391   7.827  2.9624  0.3073  0.9030
   36CHL1  H12B 2623   5.019   4.556   7.755  1.8288  0.9510 -1.2712
   36CHL1   C11 2624   5.056   4.408   7.608 -0.2114 -0.2356 -0.1845
   36CHL1  H11A 2625   5.093   4.304   7.607  1.3465  0.2960 -0.7665
   36CHL1  H11B 2626   4.946   4.398   7.590 -0.7902  1.8468  1.7184
   36CHL1    C9 2627   5.121   4.497   7.495 -0.1092  0.9116  0.0706
   36CHL1    H9 2628   5.066   4.594   7.494 -1.5297  0.1271 -0.1279
   36CHL1   C10 2629   5.098   4.430   7.361  0.1496 -0.2920  0.3021
   36CHL1   C19 2630   5.135   4.278   7.362  0.4696  0.1317 -0.7511
   36CHL1  H19A 2631   5.079   4.207   7.426 -0.2365  1.2201 -0.1317
   36CHL1  H19B 2632   5.131   4.234   7.260 -0.0568 -1.7298  0.0468
   36CHL1  H19C 2633   5.243   4.270   7.387  0.8114  1.1057 -1.7846
   36CHL1    C1 2634   4.953   4.465   7.317  0.3131  0.3648  1.0004
   36CHL1   H1A 2635   4.883   4.407   7.381 -0.3383 -0.5398 -0.4812
   36CHL1   H1B 2636   4.925   4.572   7.311  1.0139  0.5385  0.7276
   36CHL1    C2 2637   4.925   4.426   7.170 -0.1776  0.2104  0.6307
   36CHL1   H2A 2638   4.823   4.460   7.141 -0.1833 -2.7011 -3.5304
   36CHL1   H2B 2639   4.910   4.317   7.159  0.8902  0.1800 -0.7994
   36CHL1   C20 2640   5.286   4.525   8.035  0.3121 -0.5827  0.0073
   36CHL1   H20 2641   5.363   4.445   8.030  0.6717 -0.1954 -1.0749
   36CHL1   C21 2642   5.161   4.445   8.081 -0.0067  0.5423 -0.4742
   36CHL1  H21A 2643   5.131   4.357   8.021 -1.5871 -0.0105  1.0565
   36CHL1  H21B 2644   5.072   4.511   8.085 -1.6054 -1.5691  0.1678
   36CHL1  H21C 2645   5.188   4.402   8.179  1.2381  0.2763 -0.9151
   36CHL1   C22 2646   5.325   4.624   8.151 -0.1201 -0.5040  0.1864
   36CHL1  H22A 2647   5.412   4.687   8.125 -1.1150  0.7394 -0.2039
   36CHL1  H22B 2648   5.240   4.694   8.167 -1.0698 -1.1366 -1.6620
   36CHL1   C23 2649   5.358   4.563   8.288 -0.1006  0.2871  0.3217
   36CHL1  H23A 2650   5.372   4.652   8.354 -0.1141 -0.7352  1.7689
   36CHL1  H23B 2651   5.270   4.514   8.336  1.1576 -0.6401  1.8161
   36CHL1   C24 2652   5.483   4.476   8.304 -0.9019  0.5788  0.0138
   36CHL1  H24A 2653   5.465   4.376   8.259 -1.2678  0.7465 -0.2243
   36CHL1  H24B 2654   5.570   4.518   8.250  0.5211 -0.1219  1.6671
   36CHL1   C25 2655   5.528   4.456   8.442 -0.3146 -0.1973  0.0673
   36CHL1   H25 2656   5.527   4.553   8.496 -0.3938 -1.3153  2.1693
   36CHL1   C26 2657   5.434   4.371   8.531 -0.7501 -0.4977 -0.6610
   36CHL1  H26A 2658   5.425   4.269   8.488 -0.8279 -0.2007 -1.3672
   36CHL1  H26B 2659   5.475   4.368   8.635 -2.6789  0.3429  0.1787
   36CHL1  H26C 2660   5.333   4.415   8.546 -0.9293 -1.2018  0.2743
   36CHL1   C27 2661   5.665   4.392   8.453 -0.5688 -0.2608  0.8584
   36CHL1  H27A 2662   5.667   4.285   8.423 -0.1460  0.1584 -0.7526
   36CHL1  H27B 2663   5.738   4.445   8.387 -1.1799  3.4243  2.8608
   36CHL1  H27C 2664   5.710   4.401   8.554  0.5610  2.0597  0.2135
   37CHL1    C3 2665   1.690   6.175   6.970  0.1258 -0.4028 -0.6888
   37CHL1    H3 2666   1.730   6.072   6.956  1.9971 -0.0823  1.5862
   37CHL1    O3 2667   1.720   6.238   6.847  0.5835 -0.0692 -0.6270
   37CHL1   H3' 2668   1.805   6.211   6.813  1.1492  0.0193  0.6593
   37CHL1    C4 2669   1.541   6.183   7.004  0.2063  0.7294  0.4824
   37CHL1   H4A 2670   1.511   6.290   6.992 -0.0306  0.8536  1.9816
   37CHL1   H4B 2671   1.484   6.129   6.926  1.4107 -0.0152  0.0962
   37CHL1    C5 2672   1.505   6.136   7.141 -0.5892 -0.2750  0.6489
   37CHL1    C6 2673   1.404   6.051   7.164  0.0935 -0.5355 -0.0480
   37CHL1    H6 2674   1.335   6.017   7.085  1.6631  1.4435 -2.4494
   37CHL1    C7 2675   1.364   6.018   7.304 -0.3194  0.0252 -0.0581
   37CHL1   H7A 2676   1.253   6.022   7.317 -0.2249 -0.7041  1.1506
   37CHL1   H7B 2677   1.397   5.914   7.323  0.3653  0.1160 -0.7414
   37CHL1    C8 2678   1.418   6.120   7.414 -0.2626  1.0467 -0.4588
   37CHL1    H8 2679   1.361   6.213   7.394 -0.2127  1.5941  1.7571
   37CHL1   C14 2680   1.396   6.052   7.551  0.1027 -0.9428 -0.2445
   37CHL1   H14 2681   1.461   5.963   7.553  1.5260  0.0685  0.1999
   37CHL1   C15 2682   1.261   6.002   7.588  0.6548  0.3746  0.3270
   37CHL1  H15A 2683   1.190   6.079   7.551 -0.5645 -2.3114 -3.5692
   37CHL1  H15B 2684   1.233   5.909   7.535  1.1365  1.2550 -1.5670
   37CHL1   C16 2685   1.268   5.986   7.737 -0.2359  0.2795  0.1167
   37CHL1  H16A 2686   1.188   6.042   7.789  1.4280  1.7586  1.2283
   37CHL1  H16B 2687   1.270   5.882   7.777 -0.0406  0.4169  0.4708
   37CHL1   C17 2688   1.397   6.061   7.787  0.9198 -0.2531 -0.4453
   37CHL1   H17 2689   1.481   5.989   7.804  0.7359 -0.0530  1.4440
   37CHL1   C13 2690   1.435   6.149   7.667 -0.3452  0.1427  1.0672
   37CHL1   C18 2691   1.341   6.272   7.656  0.0427 -0.5297  0.2365
   37CHL1  H18A 2692   1.361   6.354   7.729 -0.0254  0.6158 -0.9982
   37CHL1  H18B 2693   1.350   6.329   7.561 -3.3408  0.3786  0.3279
   37CHL1  H18C 2694   1.236   6.239   7.672 -0.0982 -0.4361 -0.4872
   37CHL1   C12 2695   1.585   6.173   7.648  0.1963 -0.5132 -0.2838
   37CHL1  H12A 2696   1.617   6.243   7.727  1.9779 -1.0252 -0.5143
   37CHL1  H12B 2697   1.636   6.074   7.645  0.7923 -0.1852 -1.6795
   37CHL1   C11 2698   1.615   6.239   7.507  0.5041  0.1115  0.1720
   37CHL1  H11A 2699   1.565   6.338   7.520 -0.3737 -0.4338  1.1083
   37CHL1  H11B 2700   1.724   6.261   7.510  0.5862 -0.3731  1.8100
   37CHL1    C9 2701   1.563   6.154   7.388  0.3945  0.2872 -0.4343
   37CHL1    H9 2702   1.624   6.062   7.400  1.2430  0.9832  0.8402
   37CHL1   C10 2703   1.590   6.212   7.243  0.7073  0.2426 -0.4603
   37CHL1   C19 2704   1.556   6.358   7.254  0.3284  0.1642 -0.1977
   37CHL1  H19A 2705   1.450   6.368   7.286  0.4985 -1.5612  1.0149
   37CHL1  H19B 2706   1.628   6.404   7.325  1.6311  1.5407 -2.2887
   37CHL1  H19C 2707   1.567   6.413   7.158  1.7670  0.9350  0.3717
   37CHL1    C1 2708   1.744   6.189   7.214 -0.0792  0.2544  0.4297
   37CHL1   H1A 2709   1.811   6.251   7.278  1.8106 -1.0498 -0.1707
   37CHL1   H1B 2710   1.769   6.081   7.216 -1.9174 -0.2580 -1.2792
   37CHL1    C2 2711   1.779   6.237   7.073 -0.5725 -0.1311 -0.2290
   37CHL1   H2A 2712   1.882   6.218   7.038 -0.4621  1.1938 -0.6781
   37CHL1   H2B 2713   1.767   6.347   7.064  2.2810  0.2014 -0.8605
   37CHL1   C20 2714   1.382   6.127   7.925 -0.4727 -0.1902  0.1150
   37CHL1   H20 2715   1.308   6.207   7.909 -0.4358 -0.0891  0.4454
   37CHL1   C21 2716   1.515   6.188   7.965 -0.1974 -0.7611 -1.2564
   37CHL1  H21A 2717   1.505   6.236   8.065  0.5098  0.5179 -1.7742
   37CHL1  H21B 2718   1.550   6.276   7.907 -1.5340 -0.0148 -0.9919
   37CHL1  H21C 2719   1.595   6.112   7.966  0.6253  0.0440  1.0347
   37CHL1   C22 2720   1.339   6.023   8.038 -0.3710 -0.1301  0.8559
   37CHL1  H22A 2721   1.342   6.087   8.129 -0.0759  0.3298  0.5237
   37CHL1  H22B 2722   1.237   5.982   8.019 -0.2862 -1.1694  2.4178
   37CHL1   C23 2723   1.435   5.899   8.055 -0.7061 -0.4806 -0.4826
   37CHL1  H23A 2724   1.439   5.834   7.964  2.1567 -2.5588  0.9823
   37CHL1  H23B 2725   1.539   5.937   8.056 -0.7315 -0.4129 -0.4226
   37CHL1   C24 2726   1.406   5.813   8.174 -0.2195 -0.3851  1.0441
   37CHL1  H24A 2727   1.302   5.773   8.165 -0.4069  0.1896  0.6186
   37CHL1  H24B 2728   1.475   5.726   8.177  0.4666  0.1083  0.1163
   37CHL1   C25 2729   1.414   5.871   8.317  0.0790  0.0610 -0.4590
   37CHL1   H25 2730   1.367   5.972   8.314 -0.1237 -0.0542 -1.6584
   37CHL1   C26 2731   1.333   5.781   8.414  0.0015 -0.5423  1.0414
   37CHL1  H26A 2732   1.232   5.780   8.369  0.6916  0.2591 -0.6212
   37CHL1  H26B 2733   1.387   5.684   8.410  2.7161  0.9229 -0.9359
   37CHL1  H26C 2734   1.304   5.829   8.510  0.0156  0.9769  0.3114
   37CHL1   C27 2735   1.561   5.892   8.362  0.0921  0.0654  0.1748
   37CHL1  H27A 2736   1.565   5.931   8.466 -1.4955 -1.3150  0.8053
   37CHL1  H27B 2737   1.627   5.802   8.367  0.0343  0.0539  4.5591
   37CHL1  H27C 2738   1.609   5.964   8.293 -1.5309  0.7577 -0.2872
   38CHL1    C3 2739   5.779   0.532   6.586  0.4009  0.3098  0.4840
   38CHL1    H3 2740   5.673   0.533   6.617 -0.0597  0.9623 -1.0276
   38CHL1    O3 2741   5.804   0.596   6.460  0.1631 -0.1844 -0.7335
   38CHL1   H3' 2742   5.790   0.689   6.476  0.2158  0.0609 -2.0045
   38CHL1    C4 2743   5.855   0.619   6.685 -0.2755  0.5396 -0.5377
   38CHL1   H4A 2744   5.959   0.624   6.646 -1.2290 -0.6477 -3.5239
   38CHL1   H4B 2745   5.821   0.725   6.689 -1.9790  0.0820 -1.7697
   38CHL1    C5 2746   5.849   0.551   6.824  0.3811  0.3486 -0.1304
   38CHL1    C6 2747   5.770   0.602   6.919 -0.3306  0.0896 -0.6242
   38CHL1    H6 2748   5.725   0.699   6.898 -1.1401 -0.1240  0.0394
   38CHL1    C7 2749   5.754   0.542   7.057  1.0342 -0.0250  0.2716
   38CHL1   H7A 2750   5.779   0.617   7.135  2.0804 -0.9447  0.8568
   38CHL1   H7B 2751   5.648   0.508   7.056  0.5889  1.2201 -1.7946
   38CHL1    C8 2752   5.858   0.432   7.073  0.0165  0.3051 -0.6990
   38CHL1    H8 2753   5.959   0.476   7.087  0.4643 -0.5722 -1.0976
   38CHL1   C14 2754   5.822   0.356   7.202  0.2866 -0.3728 -0.1595
   38CHL1   H14 2755   5.724   0.307   7.182  0.5703 -1.7707  1.6071
   38CHL1   C15 2756   5.801   0.437   7.325 -0.1063 -0.0712 -0.2155
   38CHL1  H15A 2757   5.861   0.530   7.334 -1.2258  0.6057  0.5693
   38CHL1  H15B 2758   5.698   0.469   7.350 -0.8331 -2.4422  0.1416
   38CHL1   C16 2759   5.839   0.345   7.444  0.6826  1.0970 -0.2889
   38CHL1  H16A 2760   5.930   0.385   7.493  0.6947 -0.4768  1.0779
   38CHL1  H16B 2761   5.749   0.332   7.508 -0.3510  1.5659 -1.5904
   38CHL1   C17 2762   5.873   0.207   7.381  0.1918 -0.0096 -0.1390
   38CHL1   H17 2763   5.778   0.150   7.373 -1.8134  2.5904  2.7228
   38CHL1   C13 2764   5.917   0.240   7.237  0.4151  0.0188  0.4391
   38CHL1   C18 2765   6.063   0.297   7.248  0.0430  0.0662 -0.0467
   38CHL1  H18A 2766   6.138   0.219   7.273 -1.4894 -0.5330  3.2949
   38CHL1  H18B 2767   6.100   0.346   7.156  3.4903  1.4071  1.8545
   38CHL1  H18C 2768   6.066   0.373   7.330 -0.5959 -0.4152  0.4331
   38CHL1   C12 2769   5.889   0.135   7.129  0.1023 -0.1811 -0.0859
   38CHL1  H12A 2770   5.959   0.050   7.146 -0.6688 -1.1400 -1.5137
   38CHL1  H12B 2771   5.788   0.089   7.128  0.5294 -1.1944  0.6738
   38CHL1   C11 2772   5.921   0.196   6.993 -0.3034 -0.4555  0.1221
   38CHL1  H11A 2773   6.032   0.205   6.998 -0.3199  0.3630 -0.6107
   38CHL1  H11B 2774   5.893   0.129   6.909  0.3110  1.2314 -1.5192
   38CHL1    C9 2775   5.856   0.334   6.961 -0.0486  0.5738  1.8306
   38CHL1    H9 2776   5.752   0.306   6.935 -0.0448  2.2560 -0.2225
   38CHL1   C10 2777   5.900   0.399   6.831 -0.8646  0.1583 -0.2207
   38CHL1   C19 2778   6.057   0.409   6.834 -0.0691  0.6992 -0.3877
   38CHL1  H19A 2779   6.091   0.456   6.739 -0.9874  1.0438 -0.5633
   38CHL1  H19B 2780   6.109   0.472   6.909 -1.6424  1.2554  0.2842
   38CHL1  H19C 2781   6.097   0.305   6.830 -0.1886  0.6300  0.1913
   38CHL1    C1 2782   5.852   0.316   6.709 -0.2541  0.4973  0.1533
   38CHL1   H1A 2783   5.916   0.226   6.703  0.5607  1.0435  0.5763
   38CHL1   H1B 2784   5.747   0.289   6.735  0.0387 -1.0315 -0.1372
   38CHL1    C2 2785   5.842   0.389   6.576  0.6003  0.0707 -0.0232
   38CHL1   H2A 2786   5.782   0.324   6.509  0.0285  0.4752  0.0904
   38CHL1   H2B 2787   5.943   0.415   6.538  0.4429  0.7060 -0.0343
   38CHL1   C20 2788   5.966   0.125   7.471 -0.2411 -0.5368 -0.2909
   38CHL1   H20 2789   6.057   0.187   7.482 -0.4784 -0.2342 -0.0017
   38CHL1   C21 2790   6.000  -0.008   7.398 -0.3854  0.1539  0.6531
   38CHL1  H21A 2791   6.055  -0.085   7.457  0.1906  0.7384  0.8881
   38CHL1  H21B 2792   6.063   0.025   7.313 -2.7738  0.0912 -1.2233
   38CHL1  H21C 2793   5.910  -0.061   7.360 -1.0985 -0.7754  3.4161
   38CHL1   C22 2794   5.912   0.095   7.611  0.5655  0.1653  0.0963
   38CHL1  H22A 2795   5.904   0.188   7.671  0.1649 -0.0032  0.3105
   38CHL1  H22B 2796   5.812   0.048   7.596  0.2739  0.0047  2.2531
   38CHL1   C23 2797   5.996   0.013   7.712 -0.5545  0.3765  0.1522
   38CHL1  H23A 2798   5.999  -0.095   7.686  1.0251  0.3451  0.3964
   38CHL1  H23B 2799   6.097   0.055   7.727 -0.4706  0.6417 -1.0344
   38CHL1   C24 2800   5.930   0.015   7.851  0.8036 -0.7113  0.0594
   38CHL1  H24A 2801   5.940   0.115   7.898  0.3057 -0.7400  0.2246
   38CHL1  H24B 2802   5.822  -0.007   7.844  1.0177 -1.8331 -0.0722
   38CHL1   C25 2803   5.985  -0.096   7.938 -0.1981  0.6114  0.2396
   38CHL1   H25 2804   5.975  -0.194   7.887 -2.3542  0.2631  1.2158
   38CHL1   C26 2805   6.135  -0.074   7.973 -0.3565  0.3164 -0.6288
   38CHL1  H26A 2806   6.171  -0.155   8.039 -0.9362  1.5791  1.3250
   38CHL1  H26B 2807   6.194  -0.068   7.879  2.6720  0.3553  1.1544
   38CHL1  H26C 2808   6.151   0.027   8.016 -1.3854 -0.2596  1.2315
   38CHL1   C27 2809   5.903  -0.106   8.071 -0.7222 -0.1653 -0.2619
   38CHL1  H27A 2810   5.925  -0.012   8.125  0.7814 -0.9053  0.4557
   38CHL1  H27B 2811   5.797  -0.122   8.042 -0.2470  0.0467 -2.2689
   38CHL1  H27C 2812   5.931  -0.192   8.135  0.2185  0.3419  0.0236
   39CHL1    C3 2813   4.228   5.810   7.204  0.4653 -0.3441 -0.3891
   39CHL1    H3 2814   4.163   5.895   7.235  2.2041  1.7808 -2.2722
   39CHL1    O3 2815   4.194   5.774   7.065 -0.4572 -0.1342 -0.6575
   39CHL1   H3' 2816   4.272   5.725   7.041  1.1470  0.6882  2.3391
   39CHL1    C4 2817   4.382   5.844   7.210  0.4251 -0.0346  0.4511
   39CHL1   H4A 2818   4.429   5.748   7.181 -1.9725 -1.7343  1.8625
   39CHL1   H4B 2819   4.408   5.927   7.140 -0.0911 -0.7683 -0.6288
   39CHL1    C5 2820   4.412   5.879   7.361  0.4251  0.5780 -0.4810
   39CHL1    C6 2821   4.478   5.990   7.391 -0.6406  1.0761 -0.5253
   39CHL1    H6 2822   4.499   6.053   7.303 -2.2928 -0.1359 -1.8543
   39CHL1    C7 2823   4.525   6.029   7.534 -0.7869  0.4517 -0.3595
   39CHL1   H7A 2824   4.625   6.076   7.544  0.1845 -1.6493  0.5579
   39CHL1   H7B 2825   4.453   6.106   7.569 -1.6573 -0.7545  0.5962
   39CHL1    C8 2826   4.511   5.904   7.638  0.4213  0.2519  0.2398
   39CHL1    H8 2827   4.603   5.842   7.637  0.4089  0.2214  0.6586
   39CHL1   C14 2828   4.519   5.957   7.778  0.4692  0.3274  0.1362
   39CHL1   H14 2829   4.433   6.026   7.792 -0.4693 -0.6437 -0.7366
   39CHL1   C15 2830   4.635   6.042   7.815 -0.0346 -0.3786  0.6870
   39CHL1  H15A 2831   4.730   6.001   7.773 -0.3564 -1.4736  0.9936
   39CHL1  H15B 2832   4.626   6.146   7.779 -1.5121 -0.5344  0.5219
   39CHL1   C16 2833   4.638   6.035   7.968 -0.4192  0.8403  0.2908
   39CHL1  H16A 2834   4.743   6.009   7.996  0.2511  0.2048 -2.4929
   39CHL1  H16B 2835   4.620   6.133   8.017  0.0498 -0.1390  2.5774
   39CHL1   C17 2836   4.516   5.943   8.008  0.1558  0.0280  0.7072
   39CHL1   H17 2837   4.427   6.010   8.001 -0.1363 -0.5623 -3.4079
   39CHL1   C13 2838   4.500   5.857   7.888  0.6067 -0.0406  0.3391
   39CHL1   C18 2839   4.609   5.749   7.886  0.0221 -0.1772  0.4865
   39CHL1  H18A 2840   4.712   5.788   7.903 -0.1662  0.5229  0.0531
   39CHL1  H18B 2841   4.570   5.679   7.963  0.9413  0.5420  1.6399
   39CHL1  H18C 2842   4.602   5.695   7.789 -0.8519  1.2049 -0.2541
   39CHL1   C12 2843   4.359   5.785   7.870  0.1142  0.0691  0.0353
   39CHL1  H12A 2844   4.347   5.707   7.947  1.1723 -1.1486 -0.9863
   39CHL1  H12B 2845   4.283   5.865   7.884  0.1348  0.1392 -0.2301
   39CHL1   C11 2846   4.343   5.730   7.730  0.4109  0.0812 -0.0480
   39CHL1  H11A 2847   4.417   5.648   7.720  0.0682 -0.1686 -0.5515
   39CHL1  H11B 2848   4.242   5.684   7.726  0.4434  0.1009 -1.4680
   39CHL1    C9 2849   4.377   5.829   7.615 -0.8783  0.1889  0.5072
   39CHL1    H9 2850   4.296   5.905   7.625 -0.7598  0.5871 -1.3662
   39CHL1   C10 2851   4.368   5.775   7.462  0.0997 -0.2627 -0.1620
   39CHL1   C19 2852   4.460   5.654   7.444 -0.3520 -0.6912 -0.3542
   39CHL1  H19A 2853   4.474   5.625   7.338  3.1656 -0.6155 -0.0193
   39CHL1  H19B 2854   4.561   5.671   7.487 -0.5958 -0.0568 -0.0028
   39CHL1  H19C 2855   4.410   5.573   7.501 -1.2265  0.4273  0.5460
   39CHL1    C1 2856   4.217   5.725   7.440  0.3767  0.5747  0.4126
   39CHL1   H1A 2857   4.199   5.641   7.511  0.0815  0.0606 -0.2710
   39CHL1   H1B 2858   4.146   5.807   7.462  0.1981  1.1645 -2.1307
   39CHL1    C2 2859   4.193   5.685   7.290 -0.1337  0.4252  0.4659
   39CHL1   H2A 2860   4.087   5.655   7.280 -0.3692  1.8317 -2.1132
   39CHL1   H2B 2861   4.264   5.603   7.266  0.6156  1.7404 -2.2100
   39CHL1   C20 2862   4.509   5.885   8.151 -0.0989  0.0825  0.9171
   39CHL1   H20 2863   4.443   5.796   8.142  0.1083  0.0667 -0.8588
   39CHL1   C21 2864   4.434   5.990   8.244 -0.2993  0.0044  0.3581
   39CHL1  H21A 2865   4.506   6.057   8.297  1.8409 -1.8520 -0.0741
   39CHL1  H21B 2866   4.390   5.933   8.328 -0.2946 -1.5583 -0.6641
   39CHL1  H21C 2867   4.346   6.033   8.192 -1.0384 -3.5681 -1.6662
   39CHL1   C22 2868   4.639   5.834   8.218 -0.7795 -1.2381 -0.1812
   39CHL1  H22A 2869   4.701   5.804   8.130 -0.0254  1.6689 -0.7524
   39CHL1  H22B 2870   4.694   5.921   8.260 -0.7549 -0.8370 -1.0262
   39CHL1   C23 2871   4.630   5.731   8.329 -0.1263  1.1351  0.4238
   39CHL1  H23A 2872   4.724   5.728   8.387 -0.1318  1.0103  0.4267
   39CHL1  H23B 2873   4.556   5.764   8.405 -0.2664 -1.6490  1.6251
   39CHL1   C24 2874   4.603   5.582   8.289  0.2525  0.3134 -1.0142
   39CHL1  H24A 2875   4.507   5.569   8.236 -0.7026 -1.8418  1.0516
   39CHL1  H24B 2876   4.685   5.549   8.221 -0.9417 -1.6636 -1.5641
   39CHL1   C25 2877   4.600   5.493   8.421  0.2896  0.2524 -0.1710
   39CHL1   H25 2878   4.544   5.553   8.496  1.8374  2.0627 -0.3632
   39CHL1   C26 2879   4.531   5.358   8.393  0.4955 -0.3182 -1.1523
   39CHL1  H26A 2880   4.427   5.373   8.355  0.2528  0.4809 -0.1970
   39CHL1  H26B 2881   4.596   5.296   8.328  1.6534 -0.8154  0.4250
   39CHL1  H26C 2882   4.532   5.299   8.487  0.8393 -1.9274 -2.1212
   39CHL1   C27 2883   4.745   5.464   8.459 -0.5831 -0.9257 -0.0635
   39CHL1  H27A 2884   4.792   5.409   8.374  1.4249  0.7652 -0.1394
   39CHL1  H27B 2885   4.807   5.555   8.473 -1.4457 -0.5293  1.2736
   39CHL1  H27C 2886   4.744   5.394   8.545 -0.0093 -0.1724  0.5677
   40CHL1    C3 2887   5.220   5.013   6.858 -0.3853  0.3370 -0.3676
   40CHL1    H3 2888   5.246   4.907   6.879  0.3343  0.7033  0.6856
   40CHL1    O3 2889   5.188   5.019   6.721  0.0267 -0.0583 -0.7807
   40CHL1   H3' 2890   5.156   5.109   6.710  3.1291  1.4729  1.2815
   40CHL1    C4 2891   5.091   5.039   6.942  0.5541  0.1186 -0.3075
   40CHL1   H4A 2892   5.047   5.136   6.911  0.8834  0.3224 -0.1500
   40CHL1   H4B 2893   5.025   4.951   6.927  2.4794 -1.3450 -0.6169
   40CHL1    C5 2894   5.118   5.037   7.095 -1.1120 -0.4004  0.4041
   40CHL1    C6 2895   5.055   4.957   7.179  0.7820  0.0285  0.0458
   40CHL1    H6 2896   4.989   4.884   7.129  0.1310  1.1479 -0.7714
   40CHL1    C7 2897   5.081   4.957   7.326  0.3388 -0.0762 -0.3778
   40CHL1   H7A 2898   4.985   4.959   7.381  0.8672  1.0983  0.5316
   40CHL1   H7B 2899   5.118   4.857   7.357 -2.5125 -0.1893  3.3370
   40CHL1    C8 2900   5.164   5.081   7.375  0.0668  0.0674 -0.0310
   40CHL1    H8 2901   5.096   5.168   7.387  1.2810  1.1590 -0.8643
   40CHL1   C14 2902   5.225   5.048   7.513  0.0998 -0.5188 -0.6775
   40CHL1   H14 2903   5.300   4.966   7.501 -0.1917 -0.9393  0.2506
   40CHL1   C15 2904   5.128   4.997   7.615 -0.1149 -0.3511 -0.7709
   40CHL1  H15A 2905   5.029   5.047   7.617  0.9817  1.9401 -0.5212
   40CHL1  H15B 2906   5.112   4.888   7.603  1.2207 -0.4953 -1.3993
   40CHL1   C16 2907   5.207   5.030   7.744  0.0859  0.4458 -0.1193
   40CHL1  H16A 2908   5.138   5.090   7.809  0.1092  0.7866 -0.4051
   40CHL1  H16B 2909   5.238   4.937   7.795  0.1925  0.4925 -0.0987
   40CHL1   C17 2910   5.338   5.105   7.708  0.7287 -0.0365 -0.5903
   40CHL1   H17 2911   5.410   5.023   7.690  1.7789  0.5437  0.7455
   40CHL1   C13 2912   5.302   5.166   7.574  0.3625 -0.6954 -0.6837
   40CHL1   C18 2913   5.206   5.285   7.604 -0.1796  0.1335  0.2271
   40CHL1  H18A 2914   5.177   5.331   7.507 -0.3205 -0.1578  0.1306
   40CHL1  H18B 2915   5.117   5.260   7.666 -0.9126 -1.5119 -1.3792
   40CHL1  H18C 2916   5.260   5.370   7.650 -1.5341  2.3778 -2.0659
   40CHL1   C12 2917   5.421   5.187   7.472 -0.3934  0.6292 -0.6323
   40CHL1  H12A 2918   5.500   5.256   7.510  0.9798 -1.3747  0.3504
   40CHL1  H12B 2919   5.469   5.089   7.450 -0.1914  0.8590 -1.2220
   40CHL1   C11 2920   5.371   5.222   7.331  0.7028 -0.4784  0.1796
   40CHL1  H11A 2921   5.307   5.311   7.350  0.6178  0.4099 -3.5029
   40CHL1  H11B 2922   5.448   5.247   7.256  0.9649  0.0939  0.6321
   40CHL1    C9 2923   5.275   5.112   7.277 -0.2359 -0.1079  0.1398
   40CHL1    H9 2924   5.338   5.021   7.270 -0.4169 -0.1778 -0.7119
   40CHL1   C10 2925   5.222   5.136   7.137 -1.1732  0.2219 -0.2702
   40CHL1   C19 2926   5.146   5.279   7.129  0.4709 -0.3006  0.5782
   40CHL1  H19A 2927   5.057   5.283   7.196  0.5819 -0.9224  0.7743
   40CHL1  H19B 2928   5.214   5.364   7.151 -1.7831  1.9216 -0.6094
   40CHL1  H19C 2929   5.107   5.295   7.026 -0.4211 -0.1015  0.9395
   40CHL1    C1 2930   5.347   5.129   7.047 -0.3301 -0.4721  0.4372
   40CHL1   H1A 2931   5.381   5.235   7.049 -1.1548 -0.2052  0.8592
   40CHL1   H1B 2932   5.424   5.051   7.063 -0.9226 -1.2909 -0.5363
   40CHL1    C2 2933   5.317   5.110   6.896 -0.4644 -0.7687 -1.0924
   40CHL1   H2A 2934   5.415   5.074   6.856  0.1983  1.6692 -1.7888
   40CHL1   H2B 2935   5.303   5.213   6.858 -1.4415  0.4592  2.2328
   40CHL1   C20 2936   5.389   5.189   7.819 -0.1789 -0.3310  0.6924
   40CHL1   H20 2937   5.314   5.268   7.840 -0.5762 -0.6676  0.5564
   40CHL1   C21 2938   5.518   5.270   7.781 -0.8006  0.5580  0.3502
   40CHL1  H21A 2939   5.603   5.206   7.749  0.7357  1.8190  1.7094
   40CHL1  H21B 2940   5.569   5.320   7.866 -0.3320 -2.0564  1.7026
   40CHL1  H21C 2941   5.497   5.347   7.704 -1.4006 -0.0478 -0.1132
   40CHL1   C22 2942   5.410   5.115   7.948 -0.5652 -0.9375 -0.1453
   40CHL1  H22A 2943   5.343   5.028   7.964  1.9957 -2.8015  1.2868
   40CHL1  H22B 2944   5.516   5.080   7.949  0.1142  0.9536 -1.4076
   40CHL1   C23 2945   5.391   5.215   8.061 -0.5440  0.7374  0.9154
   40CHL1  H23A 2946   5.450   5.307   8.043 -0.9598  0.7377 -0.5245
   40CHL1  H23B 2947   5.291   5.262   8.048  0.1996  1.7886 -1.6131
   40CHL1   C24 2948   5.412   5.141   8.193 -0.0267  0.2524 -0.3287
   40CHL1  H24A 2949   5.341   5.056   8.198  0.4737 -0.0899  1.3685
   40CHL1  H24B 2950   5.514   5.100   8.198 -0.0133 -0.0964 -2.5417
   40CHL1   C25 2951   5.391   5.224   8.321 -0.2613  0.0679 -0.5816
   40CHL1   H25 2952   5.472   5.301   8.328 -0.8127  0.8095 -2.0945
   40CHL1   C26 2953   5.263   5.302   8.331  0.4493 -0.7389 -0.6465
   40CHL1  H26A 2954   5.242   5.356   8.236  0.3119 -1.5164 -1.0677
   40CHL1  H26B 2955   5.168   5.246   8.347 -0.8511  0.6875 -2.8275
   40CHL1  H26C 2956   5.264   5.378   8.413  1.0580  0.4161 -1.7013
   40CHL1   C27 2957   5.402   5.141   8.449  0.1744 -0.4079 -0.3970
   40CHL1  H27A 2958   5.328   5.061   8.429 -3.5543  2.5932  0.2230
   40CHL1  H27B 2959   5.508   5.115   8.472 -0.7080 -1.9779  2.4109
   40CHL1  H27C 2960   5.363   5.198   8.536 -0.2041 -1.5041  0.1733
   41CHL1    C3 2961   1.259   4.525   6.917  0.4266  0.3186 -0.4859
   41CHL1    H3 2962   1.367   4.501   6.927 -0.4131 -3.2472  2.1792
   41CHL1    O3 2963   1.219   4.545   6.782 -0.8086  0.1891 -0.2049
   41CHL1   H3' 2964   1.243   4.636   6.762 -0.8412  0.3827  0.6069
   41CHL1    C4 2965   1.177   4.407   6.983  0.5123  0.3924 -0.3924
   41CHL1   H4A 2966   1.068   4.426   6.979  0.5573  0.6813 -0.2905
   41CHL1   H4B 2967   1.189   4.311   6.928  1.6679  0.3914 -0.1755
   41CHL1    C5 2968   1.214   4.389   7.131  0.3329 -0.0525  0.8693
   41CHL1    C6 2969   1.272   4.281   7.175 -0.6550  0.2577 -0.6376
   41CHL1    H6 2970   1.291   4.199   7.104  0.1067  0.9711 -1.2873
   41CHL1    C7 2971   1.286   4.254   7.319 -0.5170 -0.1180  0.5532
   41CHL1   H7A 2972   1.258   4.150   7.345 -0.2649 -0.0941  0.9315
   41CHL1   H7B 2973   1.392   4.277   7.342 -0.9900  2.1374  0.7542
   41CHL1    C8 2974   1.211   4.354   7.409  0.1924  0.0765 -0.4694
   41CHL1    H8 2975   1.102   4.337   7.404  0.2823 -0.6021 -0.1741
   41CHL1   C14 2976   1.260   4.358   7.558 -0.6403  0.0849 -0.8369
   41CHL1   H14 2977   1.358   4.409   7.557 -1.4225  2.0159  3.2515
   41CHL1   C15 2978   1.279   4.223   7.638  0.2118  0.2336 -0.0245
   41CHL1  H15A 2979   1.185   4.172   7.608  0.8947 -0.5700 -0.8670
   41CHL1  H15B 2980   1.369   4.167   7.603 -0.1131 -0.2183 -0.1538
   41CHL1   C16 2981   1.275   4.267   7.785 -0.6769 -1.1350 -0.2961
   41CHL1  H16A 2982   1.204   4.213   7.851 -0.4335  0.5147  1.4171
   41CHL1  H16B 2983   1.375   4.249   7.830 -0.5018  2.2284  0.9415
   41CHL1   C17 2984   1.240   4.422   7.790 -0.2085  0.0650 -0.0928
   41CHL1   H17 2985   1.338   4.474   7.793  0.4490 -1.0864  3.5217
   41CHL1   C13 2986   1.175   4.449   7.654 -0.1022  0.5600 -0.0444
   41CHL1   C18 2987   1.025   4.415   7.669  0.2753 -0.3334  0.5083
   41CHL1  H18A 2988   0.980   4.508   7.710 -0.3563 -1.1164  1.6513
   41CHL1  H18B 2989   0.988   4.403   7.565 -1.5760 -0.3147  1.1287
   41CHL1  H18C 2990   1.000   4.316   7.714  1.2494 -1.3457 -1.0486
   41CHL1   C12 2991   1.196   4.593   7.608 -0.6462 -0.0265 -0.0010
   41CHL1  H12A 2992   1.131   4.668   7.658 -1.1572 -0.8638  0.6171
   41CHL1  H12B 2993   1.303   4.622   7.621 -0.6009  1.1661 -2.3760
   41CHL1   C11 2994   1.172   4.609   7.454  0.2745 -0.4678  0.2775
   41CHL1  H11A 2995   1.061   4.616   7.458  0.0628 -3.2418  1.1503
   41CHL1  H11B 2996   1.208   4.710   7.425  1.2517 -1.0055 -0.4239
   41CHL1    C9 2997   1.233   4.501   7.359  0.3369 -0.0721  0.2092
   41CHL1    H9 2998   1.344   4.511   7.370  0.3216 -1.9934  2.9073
   41CHL1   C10 2999   1.183   4.514   7.213 -0.4142  0.7964  0.3555
   41CHL1   C19 3000   1.032   4.532   7.204 -0.1938 -0.0743 -0.5263
   41CHL1  H19A 3001   0.986   4.452   7.265  0.9032 -0.2373  0.1126
   41CHL1  H19B 3002   0.993   4.629   7.241  0.6178 -0.3443  1.1409
   41CHL1  H19C 3003   0.992   4.528   7.101  1.4123  0.6031 -1.2171
   41CHL1    C1 3004   1.262   4.632   7.143  0.8735 -0.0033 -0.3881
   41CHL1   H1A 3005   1.232   4.726   7.194 -0.2294 -0.8679  0.6236
   41CHL1   H1B 3006   1.370   4.620   7.169  0.9505  0.0996 -0.6615
   41CHL1    C2 3007   1.227   4.654   6.995 -0.5066 -0.9013  0.1660
   41CHL1   H2A 3008   1.286   4.736   6.948 -1.7571 -0.8113 -1.3294
   41CHL1   H2B 3009   1.123   4.692   6.991 -0.3114 -0.4388 -1.0297
   41CHL1   C20 3010   1.171   4.464   7.924  0.3573 -0.0601 -0.0658
   41CHL1   H20 3011   1.069   4.419   7.932 -0.8071  2.5174  0.8076
   41CHL1   C21 3012   1.152   4.621   7.938 -0.5947  1.2938  0.2668
   41CHL1  H21A 3013   1.061   4.657   7.886 -1.9964 -0.3871  1.4526
   41CHL1  H21B 3014   1.244   4.662   7.891  0.5681 -0.2818  1.0590
   41CHL1  H21C 3015   1.146   4.667   8.038  2.2749  2.4352  0.0143
   41CHL1   C22 3016   1.262   4.419   8.044 -0.1183 -0.3713  0.8188
   41CHL1  H22A 3017   1.263   4.308   8.031  0.9823 -0.4291  1.2476
   41CHL1  H22B 3018   1.368   4.445   8.027  0.0262 -2.0751 -1.2513
   41CHL1   C23 3019   1.202   4.449   8.178 -0.4985  0.3571 -0.0058
   41CHL1  H23A 3020   1.195   4.556   8.207 -4.0161 -0.0491  1.1280
   41CHL1  H23B 3021   1.098   4.409   8.180 -0.4031  0.1486  1.3059
   41CHL1   C24 3022   1.276   4.378   8.298  0.3717 -0.1825 -0.2623
   41CHL1  H24A 3023   1.282   4.270   8.273 -0.7598 -0.7733  1.7696
   41CHL1  H24B 3024   1.376   4.425   8.310  1.5640 -2.4150 -0.9766
   41CHL1   C25 3025   1.195   4.383   8.432 -0.5299 -0.6028  0.7170
   41CHL1   H25 3026   1.090   4.349   8.415 -0.6454  0.4397 -0.7373
   41CHL1   C26 3027   1.253   4.296   8.550  1.1028  0.7835  0.5743
   41CHL1  H26A 3028   1.249   4.187   8.529  2.7278  0.0764  3.3890
   41CHL1  H26B 3029   1.358   4.323   8.575  0.5741  2.8042  0.8504
   41CHL1  H26C 3030   1.188   4.301   8.640  3.4247  0.1301  2.3686
   41CHL1   C27 3031   1.189   4.528   8.483  0.9962  0.2684 -0.5765
   41CHL1  H27A 3032   1.144   4.536   8.585  1.8335 -0.1440 -0.1668
   41CHL1  H27B 3033   1.296   4.559   8.489  0.8686  0.8066 -1.0054
   41CHL1  H27C 3034   1.135   4.598   8.416 -0.3013 -0.2088 -0.0677
   42CHL1    C3 3035   3.099   1.009   6.912  0.3400  0.1921  0.5367
   42CHL1    H3 3036   3.096   1.119   6.922  2.5489  0.5600 -1.8284
   42CHL1    O3 3037   3.122   0.971   6.779  0.1731 -0.1757  0.1170
   42CHL1   H3' 3038   3.036   0.968   6.736 -0.8254 -0.0556  2.0003
   42CHL1    C4 3039   3.218   0.963   7.005 -0.5979 -0.0083 -0.9672
   42CHL1   H4A 3040   3.248   0.861   6.974  1.0244 -0.3180  1.4246
   42CHL1   H4B 3041   3.309   1.021   6.978  0.2088 -1.2946 -1.0590
   42CHL1    C5 3042   3.193   0.953   7.156  0.4137  0.3973 -0.1623
   42CHL1    C6 3043   3.281   0.997   7.250 -0.4372 -0.4394 -0.3542
   42CHL1    H6 3044   3.379   1.032   7.216  0.5956  0.1059  2.8450
   42CHL1    C7 3045   3.259   0.980   7.404  0.6919  0.1476 -0.2840
   42CHL1   H7A 3046   3.341   0.930   7.461 -0.9103 -0.5837  1.4995
   42CHL1   H7B 3047   3.235   1.075   7.458 -1.4056 -1.3752  1.6889
   42CHL1    C8 3048   3.133   0.890   7.433  0.2700  0.0965 -1.1610
   42CHL1    H8 3049   3.183   0.795   7.405  0.2630 -0.6333  1.0854
   42CHL1   C14 3050   3.100   0.905   7.581 -0.1766  0.0499 -0.2657
   42CHL1   H14 3051   3.076   1.010   7.606 -0.0591  0.8412 -3.0919
   42CHL1   C15 3052   3.216   0.883   7.680  0.4965  0.0619  0.4279
   42CHL1  H15A 3053   3.265   0.788   7.649 -0.3254 -0.1784 -0.1863
   42CHL1  H15B 3054   3.293   0.962   7.688  1.5114 -0.9371  0.7982
   42CHL1   C16 3055   3.147   0.855   7.814 -0.1033 -0.3151 -0.1738
   42CHL1  H16A 3056   3.186   0.763   7.862  0.1779 -0.3310 -0.4266
   42CHL1  H16B 3057   3.165   0.936   7.888 -1.4572 -1.7890  1.8741
   42CHL1   C17 3058   2.993   0.848   7.780 -0.6743  0.1420  0.1302
   42CHL1   H17 3059   2.960   0.953   7.792 -0.4154  0.0250  2.2934
   42CHL1   C13 3060   2.987   0.811   7.630  0.6342  0.0431 -1.3168
   42CHL1   C18 3061   3.023   0.658   7.603  0.5854 -0.2155  0.2272
   42CHL1  H18A 3062   3.050   0.631   7.498 -0.5273 -2.5429  0.4980
   42CHL1  H18B 3063   3.095   0.625   7.681 -0.4205  0.6611  1.5581
   42CHL1  H18C 3064   2.937   0.592   7.622  0.9167 -0.8614 -0.4649
   42CHL1   C12 3065   2.868   0.847   7.547 -0.1590  0.0353 -0.0449
   42CHL1  H12A 3066   2.796   0.768   7.575  0.6941 -0.6947  0.1396
   42CHL1  H12B 3067   2.821   0.942   7.581 -0.2247  0.6639 -1.8089
   42CHL1   C11 3068   2.890   0.844   7.392  0.1568 -0.5915 -0.3919
   42CHL1  H11A 3069   2.879   0.736   7.369 -1.2648 -0.9100  1.4442
   42CHL1  H11B 3070   2.796   0.881   7.346  0.0685 -2.1833 -1.5584
   42CHL1    C9 3071   3.016   0.917   7.346 -0.6465  0.0022  0.5742
   42CHL1    H9 3072   2.995   1.026   7.350  0.8268  0.2980  1.0001
   42CHL1   C10 3073   3.051   0.900   7.198  0.4665 -0.6552 -0.2721
   42CHL1   C19 3074   3.060   0.746   7.170 -0.4480 -0.3478  0.5716
   42CHL1  H19A 3075   3.133   0.690   7.233  0.1942 -1.9659 -1.4995
   42CHL1  H19B 3076   2.970   0.685   7.191 -1.0342  0.3822  0.1989
   42CHL1  H19C 3077   3.086   0.718   7.065  0.0195 -0.8248  0.8094
   42CHL1    C1 3078   2.945   0.961   7.111 -0.1092 -0.2953  0.4395
   42CHL1   H1A 3079   2.843   0.923   7.134 -0.0072 -0.5574  0.4577
   42CHL1   H1B 3080   2.930   1.069   7.131 -0.0598 -0.0830 -0.5856
   42CHL1    C2 3081   2.968   0.942   6.959 -0.4589  0.1110 -0.4205
   42CHL1   H2A 3082   2.887   0.994   6.904  0.9718  0.8341 -1.9549
   42CHL1   H2B 3083   2.972   0.835   6.930  2.4959  0.2311 -0.8323
   42CHL1   C20 3084   2.914   0.768   7.878 -0.3730  0.5162 -0.2719
   42CHL1   H20 3085   2.933   0.661   7.858 -1.1822  0.2043  0.5707
   42CHL1   C21 3086   2.755   0.803   7.867 -0.6708 -0.4423 -0.1816
   42CHL1  H21A 3087   2.752   0.911   7.891  1.8571 -0.7188  1.7395
   42CHL1  H21B 3088   2.697   0.743   7.940  0.7679 -0.7368  0.7586
   42CHL1  H21C 3089   2.727   0.772   7.764  0.4605 -1.2823 -0.2516
   42CHL1   C22 3090   2.955   0.799   8.023  0.0847 -0.4549  0.1179
   42CHL1  H22A 3091   3.065   0.806   8.034 -0.0738  3.1957  0.6290
   42CHL1  H22B 3092   2.903   0.893   8.050  0.1509  0.0308 -1.3608
   42CHL1   C23 3093   2.896   0.699   8.122  0.2378  0.1160  0.1446
   42CHL1  H23A 3094   2.785   0.702   8.116  0.2607  1.5031  0.1848
   42CHL1  H23B 3095   2.919   0.596   8.086 -1.0446  0.3429 -1.4548
   42CHL1   C24 3096   2.942   0.725   8.262  0.3710  0.7709  0.4167
   42CHL1  H24A 3097   3.051   0.743   8.254  0.3939  1.3348  1.7364
   42CHL1  H24B 3098   2.891   0.821   8.285  1.5590  1.8274 -1.1696
   42CHL1   C25 3099   2.909   0.618   8.369 -1.1354  0.0414 -0.4526
   42CHL1   H25 3100   2.979   0.642   8.452 -0.1774 -1.5784 -0.7312
   42CHL1   C26 3101   2.766   0.631   8.428 -0.3349 -0.3206  0.3911
   42CHL1  H26A 3102   2.742   0.739   8.436  1.7868  0.2161  0.0815
   42CHL1  H26B 3103   2.694   0.580   8.359  0.8577 -1.3132 -0.1576
   42CHL1  H26C 3104   2.757   0.586   8.529 -2.2650  1.1552  0.9352
   42CHL1   C27 3105   2.941   0.475   8.329 -0.0267  0.6801  0.3415
   42CHL1  H27A 3106   3.037   0.479   8.274  0.2302  0.6291  0.7806
   42CHL1  H27B 3107   2.865   0.432   8.260  0.9776 -3.0743  1.3296
   42CHL1  H27C 3108   2.947   0.394   8.405  1.6506 -0.8561 -1.3436
   43CHL1    C3 3109   2.129   5.847   7.247  0.1650 -0.7199  0.9835
   43CHL1    H3 3110   2.133   5.737   7.262  0.0469 -1.0445 -1.0710
   43CHL1    O3 3111   2.160   5.865   7.107  0.5751 -0.4349  0.5640
   43CHL1   H3' 3112   2.179   5.959   7.107  1.9849 -0.6996  0.2347
   43CHL1    C4 3113   1.989   5.893   7.272  0.5304 -0.5015  0.2408
   43CHL1   H4A 3114   1.975   5.998   7.239  0.6080 -0.4816  0.2707
   43CHL1   H4B 3115   1.914   5.841   7.209  1.2607 -0.0238 -1.0685
   43CHL1    C5 3116   1.949   5.884   7.423  0.1406  0.5212  0.3800
   43CHL1    C6 3117   1.834   5.829   7.458 -0.1325 -0.6175 -0.3658
   43CHL1    H6 3118   1.760   5.808   7.379 -0.6620 -0.6492  0.1382
   43CHL1    C7 3119   1.792   5.824   7.598  0.0077 -0.1741 -0.2089
   43CHL1   H7A 3120   1.694   5.876   7.600 -1.1120 -2.1970  0.9491
   43CHL1   H7B 3121   1.781   5.715   7.618  1.6220 -0.0131  1.9283
   43CHL1    C8 3122   1.883   5.875   7.715 -0.1711 -0.0379 -0.4877
   43CHL1    H8 3123   1.853   5.980   7.736  1.8876  0.8921 -1.9139
   43CHL1   C14 3124   1.868   5.788   7.834 -0.2039  0.1665 -1.5295
   43CHL1   H14 3125   1.907   5.685   7.817  0.3810  0.0758  0.1969
   43CHL1   C15 3126   1.724   5.764   7.898  0.5891  0.3885  0.2175
   43CHL1  H15A 3127   1.656   5.852   7.896 -0.5929 -0.4489 -2.7304
   43CHL1  H15B 3128   1.678   5.683   7.838  0.7017  0.1971  0.3883
   43CHL1   C16 3129   1.754   5.715   8.041 -0.5125 -0.1785 -0.4038
   43CHL1  H16A 3130   1.704   5.788   8.108 -1.8209 -1.5242  0.1463
   43CHL1  H16B 3131   1.709   5.615   8.060  2.4696 -1.2069  2.0631
   43CHL1   C17 3132   1.906   5.715   8.060 -0.4541  0.7451 -0.2377
   43CHL1   H17 3133   1.953   5.618   8.035  1.2374  1.0843  1.3410
   43CHL1   C13 3134   1.952   5.826   7.962  0.3532 -0.0516  0.5435
   43CHL1   C18 3135   1.909   5.963   8.013  0.4034  0.1004  0.6315
   43CHL1  H18A 3136   1.976   6.001   8.093 -0.6039 -2.6040  2.9180
   43CHL1  H18B 3137   1.913   6.037   7.931 -1.7267  1.0828  1.3312
   43CHL1  H18C 3138   1.805   5.972   8.052 -0.0531  2.0271 -0.8841
   43CHL1   C12 3139   2.098   5.835   7.911 -0.1702 -0.0945 -0.2224
   43CHL1  H12A 3140   2.156   5.880   7.994 -3.3659 -0.5300  2.4998
   43CHL1  H12B 3141   2.142   5.733   7.907  0.4996  0.0601  1.9185
   43CHL1   C11 3142   2.121   5.915   7.782  0.2051  0.4655  0.2153
   43CHL1  H11A 3143   2.105   6.025   7.792  0.2184  0.7765 -2.4591
   43CHL1  H11B 3144   2.229   5.909   7.758 -0.5199 -0.7141 -3.2393
   43CHL1    C9 3145   2.031   5.872   7.671 -0.1287  0.5978 -0.7850
   43CHL1    H9 3146   2.066   5.767   7.666  2.5336  1.3679 -0.1808
   43CHL1   C10 3147   2.055   5.925   7.531 -0.6884 -0.3642 -0.1977
   43CHL1   C19 3148   2.042   6.079   7.542 -0.5492  0.7340 -0.1707
   43CHL1  H19A 3149   1.939   6.120   7.549 -0.7835 -0.1057  2.0202
   43CHL1  H19B 3150   2.112   6.130   7.611  0.9010  0.4595 -1.3972
   43CHL1  H19C 3151   2.070   6.121   7.443  1.1035  0.2920  0.0871
   43CHL1    C1 3152   2.196   5.883   7.478 -0.0642 -0.5150 -0.1405
   43CHL1   H1A 3153   2.279   5.923   7.540  0.3584 -0.6816 -0.5907
   43CHL1   H1B 3154   2.199   5.773   7.469  3.5884 -0.4240 -2.8478
   43CHL1    C2 3155   2.232   5.917   7.331 -0.0893  0.1050  0.0890
   43CHL1   H2A 3156   2.330   5.868   7.311 -0.8196 -0.6872 -1.7417
   43CHL1   H2B 3157   2.228   6.027   7.313 -0.4218  0.4939  2.2356
   43CHL1   C20 3158   1.949   5.724   8.208 -0.0815 -0.1650 -0.4648
   43CHL1   H20 3159   1.932   5.829   8.240 -3.9426 -0.5377 -0.7439
   43CHL1   C21 3160   2.106   5.706   8.235 -0.1175  0.9464 -0.4882
   43CHL1  H21A 3161   2.163   5.774   8.168  1.6915 -1.5176 -1.5836
   43CHL1  H21B 3162   2.131   5.600   8.214  1.3202  1.7053 -2.9569
   43CHL1  H21C 3163   2.142   5.731   8.338  0.7456  2.7050 -1.1726
   43CHL1   C22 3164   1.861   5.637   8.308  0.1965  0.5548  0.3697
   43CHL1  H22A 3165   1.758   5.615   8.272  0.0440  2.3292 -0.3938
   43CHL1  H22B 3166   1.905   5.535   8.306  0.2739  0.5979 -0.6786
   43CHL1   C23 3167   1.855   5.696   8.450 -0.1593  0.2048 -0.0505
   43CHL1  H23A 3168   1.960   5.703   8.485  0.0438  3.3617 -0.9788
   43CHL1  H23B 3169   1.818   5.801   8.452  0.4569  0.5155 -2.4193
   43CHL1   C24 3170   1.794   5.602   8.554  0.0604 -0.3348  0.6263
   43CHL1  H24A 3171   1.689   5.583   8.526 -0.3319  1.7668  0.5149
   43CHL1  H24B 3172   1.858   5.511   8.549  0.8934  0.2686 -0.0535
   43CHL1   C25 3173   1.788   5.645   8.703  0.5702 -0.3541 -0.4927
   43CHL1   H25 3174   1.756   5.751   8.708  2.0009  0.1054 -0.6170
   43CHL1   C26 3175   1.678   5.563   8.778 -0.1948  0.0440 -0.1215
   43CHL1  H26A 3176   1.668   5.591   8.885 -0.2183 -0.2735 -0.0382
   43CHL1  H26B 3177   1.578   5.589   8.739 -0.3221 -1.8944 -1.2270
   43CHL1  H26C 3178   1.698   5.454   8.768  3.0999  0.5671 -0.5579
   43CHL1   C27 3179   1.925   5.623   8.763 -0.2229  0.3378 -0.5721
   43CHL1  H27A 3180   1.989   5.707   8.728  0.2018  0.7793  1.1764
   43CHL1  H27B 3181   1.925   5.627   8.874 -0.2724 -0.8335 -0.5156
   43CHL1  H27C 3182   1.976   5.531   8.726  0.4018 -0.1904  1.5045
   44CHL1    C3 3183   1.724   5.123   6.831 -0.1261  0.1745  0.1288
   44CHL1    H3 3184   1.781   5.208   6.873  0.7467 -1.0414  1.5311
   44CHL1    O3 3185   1.729   5.126   6.687  0.0034 -0.3490  0.2990
   44CHL1   H3' 3186   1.690   5.044   6.656 -0.0766 -0.0593 -0.3757
   44CHL1    C4 3187   1.788   4.996   6.879  0.5435  0.8605 -0.4066
   44CHL1   H4A 3188   1.732   4.909   6.839 -0.0559  1.8445 -1.7777
   44CHL1   H4B 3189   1.894   4.982   6.848  1.4018 -1.0131  2.9305
   44CHL1    C5 3190   1.784   4.996   7.028  0.3624  0.1713  0.1305
   44CHL1    C6 3191   1.896   4.979   7.101  0.0472  0.2810 -0.0295
   44CHL1    H6 3192   1.995   4.968   7.053  0.5857  0.7931  0.9267
   44CHL1    C7 3193   1.905   4.972   7.253  0.6835  0.2296 -0.0051
   44CHL1   H7A 3194   1.950   4.872   7.270 -2.8635 -1.2376  1.9007
   44CHL1   H7B 3195   1.964   5.054   7.299 -0.1645 -0.0506  1.6393
   44CHL1    C8 3196   1.757   4.968   7.307 -0.7181  0.2149 -0.3426
   44CHL1    H8 3197   1.733   4.864   7.276 -0.4297 -0.0223  0.2168
   44CHL1   C14 3198   1.757   4.990   7.459  0.6803  0.2365  0.0069
   44CHL1   H14 3199   1.806   5.089   7.471  3.1799 -0.8842 -0.4759
   44CHL1   C15 3200   1.844   4.898   7.543 -0.7164 -0.4176 -0.0245
   44CHL1  H15A 3201   1.825   4.793   7.513  2.9566 -1.4289  0.6729
   44CHL1  H15B 3202   1.951   4.920   7.525 -0.2231 -0.8043  2.1390
   44CHL1   C16 3203   1.799   4.924   7.686  0.1081  0.4150 -0.0121
   44CHL1  H16A 3204   1.802   4.828   7.743  1.7740  1.2915  1.4883
   44CHL1  H16B 3205   1.870   4.997   7.729 -1.6386  1.3823  1.3749
   44CHL1   C17 3206   1.661   4.989   7.675  0.2062 -0.0359 -0.2029
   44CHL1   H17 3207   1.689   5.094   7.693 -0.1390 -0.0432  0.3939
   44CHL1   C13 3208   1.623   4.988   7.526  0.4716 -0.0644  0.1475
   44CHL1   C18 3209   1.547   4.852   7.498  0.4956 -0.4580 -0.2732
   44CHL1  H18A 3210   1.585   4.765   7.557  0.9823  0.5961  1.0104
   44CHL1  H18B 3211   1.440   4.862   7.524  0.1440 -0.0176 -1.7967
   44CHL1  H18C 3212   1.556   4.820   7.392 -2.3332  0.4986 -0.8649
   44CHL1   C12 3213   1.549   5.111   7.462  0.3209 -0.4573 -0.9607
   44CHL1  H12A 3214   1.446   5.127   7.501  0.8879  2.1926 -0.3745
   44CHL1  H12B 3215   1.608   5.200   7.491 -2.3246  0.6116  1.7057
   44CHL1   C11 3216   1.530   5.104   7.304 -0.6222  0.1592 -0.0895
   44CHL1  H11A 3217   1.452   5.026   7.285  0.3919 -0.4689 -1.9094
   44CHL1  H11B 3218   1.495   5.202   7.265 -1.2900  0.3375  0.9212
   44CHL1    C9 3219   1.669   5.064   7.237  0.3959 -0.3149  0.7251
   44CHL1    H9 3220   1.731   5.156   7.246  1.9134 -1.2175 -0.1944
   44CHL1   C10 3221   1.645   5.027   7.088  0.1880  0.0542 -0.5601
   44CHL1   C19 3222   1.560   4.901   7.085  0.3407 -1.0656  0.9302
   44CHL1  H19A 3223   1.456   4.923   7.117  0.8505  1.1365  1.2162
   44CHL1  H19B 3224   1.543   4.864   6.982  0.8150  0.7240  0.1683
   44CHL1  H19C 3225   1.602   4.820   7.149 -0.2494 -1.5380  0.7288
   44CHL1    C1 3226   1.573   5.149   7.022 -0.3469 -0.0540  0.1357
   44CHL1   H1A 3227   1.465   5.161   7.044 -0.1607  0.6592  0.6875
   44CHL1   H1B 3228   1.635   5.240   7.035  0.3306 -0.4290 -0.4108
   44CHL1    C2 3229   1.576   5.137   6.864  0.4420 -0.2895 -0.4240
   44CHL1   H2A 3230   1.536   5.234   6.828 -0.1110 -0.8488 -1.3568
   44CHL1   H2B 3231   1.518   5.049   6.829 -0.6121  0.9036 -1.7903
   44CHL1   C20 3232   1.566   4.953   7.794 -0.4422  0.0370  0.1657
   44CHL1   H20 3233   1.528   4.849   7.780 -1.1360  0.4215 -0.9809
   44CHL1   C21 3234   1.441   5.046   7.791 -0.0508 -0.1944  0.1305
   44CHL1  H21A 3235   1.350   5.003   7.838  0.3859 -0.9240  0.3214
   44CHL1  H21B 3236   1.415   5.074   7.686  0.8313  0.1370 -0.0150
   44CHL1  H21C 3237   1.465   5.141   7.844  1.6598 -0.7631  0.4271
   44CHL1   C22 3238   1.634   4.958   7.937  0.2633 -0.6391 -0.2457
   44CHL1  H22A 3239   1.705   4.873   7.938  0.2250 -0.6619  0.8666
   44CHL1  H22B 3240   1.707   5.042   7.943  1.3352 -1.5841  0.3584
   44CHL1   C23 3241   1.539   4.947   8.058 -0.3192 -0.4025  0.4764
   44CHL1  H23A 3242   1.511   5.052   8.082 -1.5955 -0.4771 -0.5841
   44CHL1  H23B 3243   1.447   4.890   8.033  1.2181 -3.0268  0.4186
   44CHL1   C24 3244   1.608   4.873   8.174 -0.1398 -0.6646 -0.4040
   44CHL1  H24A 3245   1.652   4.778   8.136  0.9580  0.3027 -1.6398
   44CHL1  H24B 3246   1.702   4.924   8.205 -0.3433  0.8162 -2.0878
   44CHL1   C25 3247   1.504   4.858   8.287  0.8525  0.7418 -0.0526
   44CHL1   H25 3248   1.448   4.953   8.283 -0.1952  0.1082 -1.5034
   44CHL1   C26 3249   1.407   4.746   8.264 -0.0062  0.2604  0.3768
   44CHL1  H26A 3250   1.443   4.646   8.295 -3.5442 -1.5164 -0.6311
   44CHL1  H26B 3251   1.316   4.774   8.322 -0.9768 -1.2963 -0.3335
   44CHL1  H26C 3252   1.382   4.752   8.156  0.8056 -0.0966  0.1654
   44CHL1   C27 3253   1.563   4.844   8.428 -0.2824 -0.7930  0.0008
   44CHL1  H27A 3254   1.610   4.749   8.459  0.0160 -0.1626  1.6222
   44CHL1  H27B 3255   1.648   4.914   8.441 -2.1558  1.8703 -1.1305
   44CHL1  H27C 3256   1.481   4.872   8.498 -1.6537 -1.6065 -1.2239
   45CHL1    C3 3257   3.298   1.472   7.003 -0.6372 -1.1686 -0.8984
   45CHL1    H3 3258   3.368   1.558   7.012  0.7416 -2.1901 -1.5689
   45CHL1    O3 3259   3.295   1.459   6.864  0.2652  0.4949  0.2127
   45CHL1   H3' 3260   3.246   1.538   6.839  0.1131  1.0724  2.2181
   45CHL1    C4 3261   3.343   1.344   7.069 -0.2851  0.2867 -0.0193
   45CHL1   H4A 3262   3.279   1.260   7.034  0.6084 -1.5751  2.4904
   45CHL1   H4B 3263   3.442   1.313   7.028 -0.7962 -3.2088  1.0794
   45CHL1    C5 3264   3.361   1.371   7.217 -0.1271  0.3450  0.0907
   45CHL1    C6 3265   3.475   1.362   7.283  0.1604 -0.0122 -0.0105
   45CHL1    H6 3266   3.564   1.328   7.228  1.4658  2.2900  0.5672
   45CHL1    C7 3267   3.492   1.369   7.437 -0.4914 -0.0572  0.5118
   45CHL1   H7A 3268   3.542   1.277   7.475 -0.2554 -0.1052  0.0887
   45CHL1   H7B 3269   3.556   1.459   7.450  2.9753 -2.3157  0.3683
   45CHL1    C8 3270   3.360   1.391   7.518  0.2309  0.0253  0.0857
   45CHL1    H8 3271   3.314   1.290   7.522  2.1674 -0.9794 -1.2287
   45CHL1   C14 3272   3.387   1.450   7.653 -0.6428  0.0241 -0.4873
   45CHL1   H14 3273   3.430   1.552   7.640  0.8641 -0.0278  3.0653
   45CHL1   C15 3274   3.494   1.386   7.739 -0.0069  0.3760 -0.7190
   45CHL1  H15A 3275   3.462   1.281   7.756  0.3389  0.2744 -0.6924
   45CHL1  H15B 3276   3.597   1.400   7.700  0.8096 -1.7990  0.4447
   45CHL1   C16 3277   3.468   1.449   7.880  0.1029 -1.0258  0.0485
   45CHL1  H16A 3278   3.476   1.371   7.960 -1.5916  1.4309  2.8075
   45CHL1  H16B 3279   3.548   1.523   7.900  0.1390 -0.9367 -0.4330
   45CHL1   C17 3280   3.327   1.514   7.874  0.2071  0.2000 -0.2020
   45CHL1   H17 3281   3.339   1.620   7.845 -1.9996  0.6024  0.1673
   45CHL1   C13 3282   3.262   1.458   7.744 -0.0123 -0.1056  0.0333
   45CHL1   C18 3283   3.202   1.318   7.777  0.3521 -0.2067  0.0052
   45CHL1  H18A 3284   3.107   1.328   7.834  0.6499  0.3412  0.4030
   45CHL1  H18B 3285   3.153   1.280   7.684 -1.7263  0.4110  0.7956
   45CHL1  H18C 3286   3.279   1.244   7.809 -1.5887 -2.5567 -0.4164
   45CHL1   C12 3287   3.168   1.556   7.674  0.0407  0.6273 -0.3735
   45CHL1  H12A 3288   3.074   1.569   7.731 -0.2529 -0.2320 -0.6505
   45CHL1  H12B 3289   3.225   1.648   7.646  1.4457 -0.4629 -1.2528
   45CHL1   C11 3290   3.131   1.499   7.534  1.0284 -0.1133 -0.4955
   45CHL1  H11A 3291   3.068   1.408   7.546  1.9763 -0.8351 -0.9188
   45CHL1  H11B 3292   3.062   1.573   7.488  1.7136  1.8383  1.4382
   45CHL1    C9 3293   3.255   1.471   7.439  0.0720 -0.0202 -0.3213
   45CHL1    H9 3294   3.299   1.571   7.419 -0.5436  0.5336  0.9575
   45CHL1   C10 3295   3.231   1.412   7.295  0.1614 -0.3379  0.4250
   45CHL1   C19 3296   3.128   1.299   7.297 -0.1450 -0.6082 -0.7323
   45CHL1  H19A 3297   3.164   1.206   7.345 -1.7354 -1.0935 -0.4213
   45CHL1  H19B 3298   3.035   1.327   7.351  2.6762  2.4166  3.1933
   45CHL1  H19C 3299   3.106   1.270   7.192 -0.5062 -0.1400 -0.7884
   45CHL1    C1 3300   3.170   1.526   7.210 -0.5051 -0.1840 -0.2764
   45CHL1   H1A 3301   3.066   1.548   7.244 -1.5073 -1.9695 -1.9830
   45CHL1   H1B 3302   3.236   1.615   7.219  1.0357 -1.3550  0.5791
   45CHL1    C2 3303   3.164   1.506   7.057 -0.3616  0.5064  0.2823
   45CHL1   H2A 3304   3.137   1.601   7.007 -1.1635  1.6811  2.7783
   45CHL1   H2B 3305   3.089   1.429   7.029  0.8597 -0.8245  0.5322
   45CHL1   C20 3306   3.262   1.508   8.008  0.6783 -0.7835  0.2532
   45CHL1   H20 3307   3.252   1.405   8.049 -0.3929 -0.6303  0.3849
   45CHL1   C21 3308   3.113   1.558   8.001  0.3430 -0.7837  0.3491
   45CHL1  H21A 3309   3.055   1.483   7.943 -0.3323  0.1527 -0.1999
   45CHL1  H21B 3310   3.123   1.654   7.947 -0.3653 -0.9786 -0.1379
   45CHL1  H21C 3311   3.072   1.564   8.104 -0.3156 -1.5886  0.1449
   45CHL1   C22 3312   3.333   1.600   8.112 -0.2758  1.3428 -0.2217
   45CHL1  H22A 3313   3.440   1.570   8.111 -0.6103  0.0721 -0.0241
   45CHL1  H22B 3314   3.332   1.711   8.106  0.5202  1.2781 -2.2351
   45CHL1   C23 3315   3.291   1.561   8.256 -0.2924  0.1740 -0.0189
   45CHL1  H23A 3316   3.220   1.477   8.243 -0.6808  0.2137  1.5690
   45CHL1  H23B 3317   3.375   1.519   8.317  0.0700 -1.1202 -1.3490
   45CHL1   C24 3318   3.227   1.683   8.333 -0.7032 -0.3512 -0.0857
   45CHL1  H24A 3319   3.305   1.760   8.352  2.5614 -3.2738 -0.5758
   45CHL1  H24B 3320   3.146   1.726   8.270 -0.4946  1.4647  0.8227
   45CHL1   C25 3321   3.154   1.649   8.465 -0.9910 -0.0929  0.3949
   45CHL1   H25 3322   3.136   1.748   8.511  1.6476 -0.0683  1.5710
   45CHL1   C26 3323   3.030   1.570   8.446  0.3687  0.4464 -0.0641
   45CHL1  H26A 3324   3.047   1.477   8.388 -0.8489 -1.3626  2.2916
   45CHL1  H26B 3325   2.983   1.540   8.543  3.5277 -3.0503  0.6354
   45CHL1  H26C 3326   2.956   1.630   8.389  0.4002 -0.4458 -1.0859
   45CHL1   C27 3327   3.247   1.574   8.566  0.2674  0.7931 -0.6986
   45CHL1  H27A 3328   3.197   1.534   8.657 -2.2490  0.7406 -2.0110
   45CHL1  H27B 3329   3.272   1.479   8.514 -0.3613  0.4003 -0.2994
   45CHL1  H27C 3330   3.337   1.632   8.596  0.5774 -0.6472  1.3418
   46CHL1    C3 3331   2.414   3.622   7.121  0.8285  0.0526 -0.6134
   46CHL1    H3 3332   2.343   3.536   7.126  1.9029 -0.7988  0.4832
   46CHL1    O3 3333   2.472   3.621   6.991  0.1259 -0.1448  0.4783
   46CHL1   H3' 3334   2.554   3.570   6.992  0.0174 -0.3212  0.3965
   46CHL1    C4 3335   2.347   3.750   7.146  0.6546 -0.6603 -0.6003
   46CHL1   H4A 3336   2.416   3.830   7.109 -0.0457 -0.0922 -0.6980
   46CHL1   H4B 3337   2.257   3.761   7.083 -0.7567 -0.2794  1.3861
   46CHL1    C5 3338   2.307   3.763   7.296 -0.1475  0.3636 -0.2006
   46CHL1    C6 3339   2.186   3.781   7.336 -0.0740 -0.6518 -0.3004
   46CHL1    H6 3340   2.114   3.804   7.257 -0.3323 -0.3224  0.0284
   46CHL1    C7 3341   2.144   3.800   7.475  0.0236  0.6633  0.3616
   46CHL1   H7A 3342   2.080   3.890   7.489  0.2040  0.9369 -0.5383
   46CHL1   H7B 3343   2.092   3.708   7.509  1.6616  0.5709  2.9524
   46CHL1    C8 3344   2.256   3.828   7.580 -0.2066  0.4078 -0.2890
   46CHL1    H8 3345   2.295   3.931   7.571 -1.3115  0.7984 -0.8506
   46CHL1   C14 3346   2.211   3.796   7.726 -0.0736 -0.2733 -0.2991
   46CHL1   H14 3347   2.179   3.689   7.721 -1.9856  0.3198 -2.7452
   46CHL1   C15 3348   2.080   3.868   7.774  0.0217 -0.6235 -0.4139
   46CHL1  H15A 3349   2.064   3.977   7.757  1.1212 -0.6024 -1.5278
   46CHL1  H15B 3350   1.991   3.814   7.738 -0.3403 -0.3915  0.1220
   46CHL1   C16 3351   2.088   3.849   7.929  0.5169 -0.8594  0.3640
   46CHL1  H16A 3352   2.078   3.938   7.993  2.1418 -0.7925  0.5706
   46CHL1  H16B 3353   2.001   3.785   7.957 -1.8025  1.2600 -1.5438
   46CHL1   C17 3354   2.223   3.776   7.958  0.3192  0.2461  0.3267
   46CHL1   H17 3355   2.196   3.668   7.945 -1.0908  0.7671 -1.6937
   46CHL1   C13 3356   2.318   3.811   7.838  0.2231  0.1357 -0.0188
   46CHL1   C18 3357   2.361   3.960   7.855 -0.1878  0.1827  0.1391
   46CHL1  H18A 3358   2.449   3.973   7.921 -0.7252  0.0017  0.9016
   46CHL1  H18B 3359   2.392   3.998   7.755 -2.1541 -1.5221 -1.2012
   46CHL1  H18C 3360   2.278   4.025   7.888  0.5956  1.9799 -1.2573
   46CHL1   C12 3361   2.430   3.715   7.797 -0.0813  0.3066 -0.9592
   46CHL1  H12A 3362   2.515   3.718   7.869 -1.8096 -0.4461  1.2221
   46CHL1  H12B 3363   2.383   3.614   7.805 -1.2812  0.9009 -0.2651
   46CHL1   C11 3364   2.486   3.737   7.659  0.0196 -0.7407  0.3348
   46CHL1  H11A 3365   2.534   3.837   7.661 -2.0439  0.5957 -4.1252
   46CHL1  H11B 3366   2.567   3.667   7.628 -1.6647 -2.0389 -1.4187
   46CHL1    C9 3367   2.372   3.732   7.553 -0.0840  0.5233 -0.3344
   46CHL1    H9 3368   2.334   3.629   7.566 -0.2372  0.6116 -0.0685
   46CHL1   C10 3369   2.419   3.741   7.408 -0.2038 -0.1192 -0.3663
   46CHL1   C19 3370   2.500   3.875   7.395  0.2772  0.1740 -0.3458
   46CHL1  H19A 3371   2.584   3.880   7.467  1.1074 -0.0346 -1.2882
   46CHL1  H19B 3372   2.534   3.878   7.290 -1.7430  0.5983 -1.0278
   46CHL1  H19C 3373   2.426   3.956   7.414 -0.4045 -0.4403 -0.3326
   46CHL1    C1 3374   2.506   3.619   7.367 -0.1739  0.6602 -0.7209
   46CHL1   H1A 3375   2.606   3.619   7.415 -1.3215  1.7999  1.9102
   46CHL1   H1B 3376   2.461   3.527   7.410  0.9889  0.4516  0.1031
   46CHL1    C2 3377   2.526   3.599   7.223 -0.4109  0.6908  0.6790
   46CHL1   H2A 3378   2.566   3.497   7.205 -1.1633  0.5748 -0.4034
   46CHL1   H2B 3379   2.598   3.676   7.188  0.6515  0.6854  2.6981
   46CHL1   C20 3380   2.274   3.794   8.103  0.4993 -0.1885 -0.6280
   46CHL1   H20 3381   2.305   3.900   8.115 -2.6666  0.7342  0.1626
   46CHL1   C21 3382   2.397   3.697   8.124 -0.3247  0.5899  0.1806
   46CHL1  H21A 3383   2.426   3.691   8.231  1.0421 -0.1760 -0.2131
   46CHL1  H21B 3384   2.482   3.742   8.068  0.1868  0.2871  0.6996
   46CHL1  H21C 3385   2.378   3.597   8.080  0.2818  0.3819  0.3842
   46CHL1   C22 3386   2.159   3.763   8.206  0.1383 -0.1180  0.5702
   46CHL1  H22A 3387   2.071   3.830   8.190  0.4206  0.4763  1.4187
   46CHL1  H22B 3388   2.127   3.657   8.201 -0.5204  0.0759  0.6023
   46CHL1   C23 3389   2.191   3.792   8.354  0.7422 -0.5070  0.1555
   46CHL1  H23A 3390   2.282   3.739   8.390  1.0333 -0.8524 -1.0322
   46CHL1  H23B 3391   2.223   3.898   8.347 -1.9129  0.2758 -2.6044
   46CHL1   C24 3392   2.074   3.795   8.443 -0.0390 -0.4018  0.1993
   46CHL1  H24A 3393   2.096   3.848   8.539 -2.3835 -0.4475  0.8213
   46CHL1  H24B 3394   1.997   3.856   8.393 -0.3131 -0.5925  0.3888
   46CHL1   C25 3395   2.007   3.658   8.477 -0.3709 -0.0428 -0.1268
   46CHL1   H25 3396   1.995   3.620   8.373  0.8333 -0.6339 -0.0653
   46CHL1   C26 3397   2.102   3.572   8.560  0.0258 -0.6573  0.1662
   46CHL1  H26A 3398   2.042   3.500   8.619 -0.4343  0.2530  0.8316
   46CHL1  H26B 3399   2.182   3.520   8.503 -1.3820 -0.4935 -2.0682
   46CHL1  H26C 3400   2.153   3.639   8.633 -1.8388  0.3052  0.6344
   46CHL1   C27 3401   1.870   3.674   8.539 -0.4021  0.2901 -0.7093
   46CHL1  H27A 3402   1.807   3.742   8.477 -2.6688 -0.4497  0.6597
   46CHL1  H27B 3403   1.826   3.573   8.551  0.6499 -0.3766 -2.1678
   46CHL1  H27C 3404   1.867   3.732   8.633 -0.7339  0.7014 -0.9677
   47CHL1    C3 3405   2.592   1.915   6.942  0.3121  0.7312  0.0122
   47CHL1    H3 3406   2.658   2.004   6.945 -0.9477  1.7580 -1.4419
   47CHL1    O3 3407   2.560   1.909   6.801 -0.1536  0.7531  0.0299
   47CHL1   H3' 3408   2.464   1.913   6.799 -0.2155  2.7472  2.2974
   47CHL1    C4 3409   2.674   1.792   6.988  0.0566 -0.8587  0.2428
   47CHL1   H4A 3410   2.625   1.697   6.957 -0.9407 -0.2715 -0.0413
   47CHL1   H4B 3411   2.772   1.802   6.937 -0.2413 -1.2128 -0.4172
   47CHL1    C5 3412   2.698   1.784   7.142 -0.2930 -0.2632 -0.4294
   47CHL1    C6 3413   2.824   1.777   7.189  0.1641  0.0709 -0.0559
   47CHL1    H6 3414   2.896   1.767   7.107  0.2536  1.1044 -0.1221
   47CHL1    C7 3415   2.861   1.765   7.331  0.4910  0.6115  0.6048
   47CHL1   H7A 3416   2.928   1.676   7.333 -0.0085  0.2318  0.7754
   47CHL1   H7B 3417   2.925   1.846   7.371 -0.2103  1.6675 -0.3435
   47CHL1    C8 3418   2.743   1.747   7.424  0.0744  0.6074 -0.5270
   47CHL1    H8 3419   2.716   1.640   7.436 -0.4238  0.7570 -0.2879
   47CHL1   C14 3420   2.775   1.801   7.563  0.2567 -0.0170 -1.3889
   47CHL1   H14 3421   2.809   1.907   7.563  2.7173 -0.7017  0.5055
   47CHL1   C15 3422   2.896   1.741   7.634 -0.3468 -0.0726  0.0337
   47CHL1  H15A 3423   2.886   1.633   7.613  3.4588 -0.5672  0.0495
   47CHL1  H15B 3424   2.995   1.769   7.592  0.1873 -2.2122 -0.2357
   47CHL1   C16 3425   2.876   1.779   7.784 -0.1492  0.3349  0.0130
   47CHL1  H16A 3426   2.883   1.679   7.832  3.6928 -0.9935 -2.8107
   47CHL1  H16B 3427   2.949   1.850   7.827 -0.8857  1.1479 -0.0410
   47CHL1   C17 3428   2.728   1.830   7.796 -0.1314 -0.1579  1.0253
   47CHL1   H17 3429   2.728   1.939   7.773  1.6639 -0.5602 -1.3532
   47CHL1   C13 3430   2.659   1.792   7.664  0.6218  0.5284  0.0779
   47CHL1   C18 3431   2.600   1.647   7.686  0.1678  0.3419 -0.0014
   47CHL1  H18A 3432   2.569   1.599   7.591 -0.9677 -2.3243  1.5973
   47CHL1  H18B 3433   2.686   1.593   7.732  0.3630 -0.9835 -1.8373
   47CHL1  H18C 3434   2.517   1.659   7.759  0.7649 -0.2529  0.8062
   47CHL1   C12 3435   2.545   1.881   7.616  0.2624 -0.1173  0.9772
   47CHL1  H12A 3436   2.459   1.874   7.686  1.0365 -2.9396  1.7782
   47CHL1  H12B 3437   2.571   1.989   7.623  1.4860 -0.0798 -2.5323
   47CHL1   C11 3438   2.507   1.838   7.479  0.1159  0.7248  1.2775
   47CHL1  H11A 3439   2.455   1.740   7.473 -1.0819  1.4016 -0.1493
   47CHL1  H11B 3440   2.424   1.900   7.439 -0.6826 -0.1808  1.4856
   47CHL1    C9 3441   2.624   1.834   7.376  0.2041 -0.8549 -0.0666
   47CHL1    H9 3442   2.677   1.931   7.373 -1.6585  0.2676 -4.8712
   47CHL1   C10 3443   2.579   1.809   7.235  0.1899 -0.0718  0.1810
   47CHL1   C19 3444   2.493   1.687   7.231  0.2893  0.0591  0.3364
   47CHL1  H19A 3445   2.538   1.620   7.307 -0.2068  1.2647  1.7354
   47CHL1  H19B 3446   2.384   1.705   7.246  0.5433  2.8416 -0.5865
   47CHL1  H19C 3447   2.517   1.621   7.145  0.9400  2.7793 -1.6842
   47CHL1    C1 3448   2.500   1.933   7.182  0.0275  0.2654 -0.0344
   47CHL1   H1A 3449   2.406   1.953   7.238 -0.1829  0.2584 -0.3815
   47CHL1   H1B 3450   2.560   2.026   7.193  1.6215 -0.2469 -3.3499
   47CHL1    C2 3451   2.464   1.923   7.029  0.0784  0.0917 -1.3056
   47CHL1   H2A 3452   2.420   2.016   6.988  0.6619  1.1265  0.3096
   47CHL1   H2B 3453   2.404   1.831   7.015  2.3205 -1.7265  0.2160
   47CHL1   C20 3454   2.659   1.813   7.929  0.4767  0.4461  0.8075
   47CHL1   H20 3455   2.549   1.816   7.913  0.4010 -2.2092  0.4129
   47CHL1   C21 3456   2.683   1.948   8.006  0.4965  0.6666 -0.2930
   47CHL1  H21A 3457   2.667   2.037   7.941 -0.9532  1.2518  0.8124
   47CHL1  H21B 3458   2.791   1.956   8.031  0.5285 -0.0380 -0.2008
   47CHL1  H21C 3459   2.621   1.966   8.096  2.7603  1.5836  1.1697
   47CHL1   C22 3460   2.687   1.694   8.019  0.9220  0.0562  0.5183
   47CHL1  H22A 3461   2.700   1.601   7.960 -1.2626 -0.0067  0.0386
   47CHL1  H22B 3462   2.780   1.713   8.076 -0.1546  2.2191  1.6722
   47CHL1   C23 3463   2.572   1.654   8.117 -0.0897 -0.5546 -0.0202
   47CHL1  H23A 3464   2.549   1.738   8.187  2.6353 -0.0309  0.3815
   47CHL1  H23B 3465   2.485   1.625   8.055  0.0070 -2.2751  0.5953
   47CHL1   C24 3466   2.607   1.531   8.208  0.0943  0.1113  0.2611
   47CHL1  H24A 3467   2.661   1.456   8.146  0.9646  1.4634 -0.6763
   47CHL1  H24B 3468   2.678   1.566   8.287  1.0274 -0.3941 -0.3355
   47CHL1   C25 3469   2.491   1.458   8.275  0.4208  0.4636  0.2515
   47CHL1   H25 3470   2.418   1.415   8.204  0.8497  2.7749 -1.7468
   47CHL1   C26 3471   2.542   1.343   8.369 -0.1792  0.0579  0.1774
   47CHL1  H26A 3472   2.608   1.383   8.449  1.9672 -3.0315  0.1274
   47CHL1  H26B 3473   2.459   1.284   8.413  0.1308  0.7493  1.7363
   47CHL1  H26C 3474   2.600   1.264   8.316 -0.6581 -1.1998  1.4706
   47CHL1   C27 3475   2.410   1.557   8.373  0.0358  0.2866  0.4098
   47CHL1  H27A 3476   2.416   1.663   8.341  1.7954  0.2353  0.4666
   47CHL1  H27B 3477   2.308   1.515   8.375 -0.2065  0.6292 -1.8773
   47CHL1  H27C 3478   2.459   1.561   8.473  0.8557  4.6745  0.0626
   48CHL1    C3 3479   0.592   5.536   6.634  0.1758  0.5606  0.2915
   48CHL1    H3 3480   0.663   5.462   6.591 -3.0591 -2.2564 -0.5900
   48CHL1    O3 3481   0.562   5.629   6.533 -0.5503  0.3351  0.1513
   48CHL1   H3' 3482   0.469   5.650   6.529 -0.4868  0.4405 -1.9044
   48CHL1    C4 3483   0.467   5.466   6.685  0.2156  0.0846 -1.1199
   48CHL1   H4A 3484   0.376   5.530   6.697 -1.3082 -1.9845 -1.0189
   48CHL1   H4B 3485   0.428   5.399   6.605 -1.3176  1.1010 -1.2814
   48CHL1    C5 3486   0.487   5.388   6.810  0.1994 -0.1429  0.1573
   48CHL1    C6 3487   0.463   5.252   6.819  0.1386  0.0234  0.5132
   48CHL1    H6 3488   0.407   5.208   6.735 -1.9432 -1.0136  2.3462
   48CHL1    C7 3489   0.475   5.175   6.947  0.3627 -0.2625  0.8138
   48CHL1   H7A 3490   0.384   5.112   6.945  0.5617 -0.6353 -2.6902
   48CHL1   H7B 3491   0.572   5.121   6.945  0.5392  0.0667 -0.7048
   48CHL1    C8 3492   0.484   5.270   7.071  0.3929  0.0894  0.1585
   48CHL1    H8 3493   0.393   5.333   7.083 -0.6690 -1.5607  1.1450
   48CHL1   C14 3494   0.502   5.189   7.199 -0.6192  0.0949  0.3387
   48CHL1   H14 3495   0.589   5.121   7.185  0.1238  1.3780 -1.7755
   48CHL1   C15 3496   0.397   5.090   7.237  0.3246 -0.2932 -0.9009
   48CHL1  H15A 3497   0.295   5.118   7.205 -0.3058 -2.1622 -0.6794
   48CHL1  H15B 3498   0.424   4.989   7.198 -1.2200 -0.7113 -0.9662
   48CHL1   C16 3499   0.409   5.085   7.389  0.1845 -0.1461 -0.5433
   48CHL1  H16A 3500   0.314   5.126   7.430 -0.4258 -2.0943  0.0763
   48CHL1  H16B 3501   0.418   4.980   7.422 -0.4589 -0.7885 -2.2841
   48CHL1   C17 3502   0.526   5.180   7.426 -0.7192  0.6639  0.4409
   48CHL1   H17 3503   0.614   5.112   7.420 -1.5384 -0.3858  0.0832
   48CHL1   C13 3504   0.532   5.283   7.315  0.5238  0.2195  0.1831
   48CHL1   C18 3505   0.420   5.385   7.342  0.4185  0.1413  0.2792
   48CHL1  H18A 3506   0.444   5.462   7.418  0.5133 -0.6027  1.0223
   48CHL1  H18B 3507   0.394   5.442   7.251  0.9779  1.8031  1.1245
   48CHL1  H18C 3508   0.322   5.346   7.377 -0.9555  1.9776 -1.3565
   48CHL1   C12 3509   0.663   5.364   7.299  0.7864 -0.4141  0.2642
   48CHL1  H12A 3510   0.681   5.439   7.379 -0.8351  1.2929 -0.8758
   48CHL1  H12B 3511   0.755   5.303   7.298  2.7950  2.4303 -0.2993
   48CHL1   C11 3512   0.651   5.450   7.170  0.4996  0.0288  0.0292
   48CHL1  H11A 3513   0.587   5.538   7.190 -2.8794 -2.1312 -0.5200
   48CHL1  H11B 3514   0.756   5.481   7.148 -0.0191  0.7455 -1.6169
   48CHL1    C9 3515   0.593   5.372   7.045  0.1242 -0.3481  0.1906
   48CHL1    H9 3516   0.681   5.318   7.004 -0.1438  1.3038 -2.7933
   48CHL1   C10 3517   0.551   5.467   6.926 -0.5638  0.4797 -0.4570
   48CHL1   C19 3518   0.447   5.568   6.979 -0.0954 -0.2463  0.5455
   48CHL1  H19A 3519   0.381   5.525   7.057 -1.0372  2.8971  1.6110
   48CHL1  H19B 3520   0.497   5.656   7.025 -0.2633  0.0393  0.1876
   48CHL1  H19C 3521   0.380   5.609   6.901  1.4687 -0.0821 -0.7607
   48CHL1    C1 3522   0.680   5.542   6.879  0.4162 -0.1818 -0.5610
   48CHL1   H1A 3523   0.729   5.610   6.952 -0.2994 -0.1617 -0.0854
   48CHL1   H1B 3524   0.758   5.464   6.863  1.7318  0.6734  1.2796
   48CHL1    C2 3525   0.652   5.621   6.753  0.2357  1.2092 -0.1433
   48CHL1   H2A 3526   0.743   5.667   6.711 -0.0493  0.5709 -1.5254
   48CHL1   H2B 3527   0.577   5.699   6.780 -1.2317  0.3292 -1.4691
   48CHL1   C20 3528   0.511   5.230   7.575  0.3626  0.3667  0.2924
   48CHL1   H20 3529   0.412   5.280   7.583 -0.8512 -2.1146  1.8430
   48CHL1   C21 3530   0.620   5.331   7.616  0.0812  0.5408  0.1740
   48CHL1  H21A 3531   0.619   5.427   7.560 -1.2149  0.5131  0.1365
   48CHL1  H21B 3532   0.723   5.290   7.608 -0.6765 -1.0658 -2.7074
   48CHL1  H21C 3533   0.593   5.374   7.715 -0.8035  1.1104 -0.3073
   48CHL1   C22 3534   0.500   5.115   7.672  0.2149  0.5671  0.2622
   48CHL1  H22A 3535   0.396   5.078   7.669  0.5366 -0.4460  1.0866
   48CHL1  H22B 3536   0.569   5.036   7.635  0.1685  1.1968 -1.2755
   48CHL1   C23 3537   0.529   5.145   7.818  0.0479 -0.9497 -0.0644
   48CHL1  H23A 3538   0.639   5.161   7.828  0.1537 -0.7807 -1.3587
   48CHL1  H23B 3539   0.477   5.238   7.848  2.0449 -0.1000  0.9088
   48CHL1   C24 3540   0.485   5.030   7.919 -0.2337 -0.4988 -0.0238
   48CHL1  H24A 3541   0.403   4.985   7.859  0.1532 -0.8125 -0.3263
   48CHL1  H24B 3542   0.544   4.936   7.925 -0.8334 -0.8667  0.2090
   48CHL1   C25 3543   0.438   5.089   8.054 -0.2047 -0.2195  0.2174
   48CHL1   H25 3544   0.369   5.174   8.036  1.4308  0.8497 -1.4574
   48CHL1   C26 3545   0.363   4.984   8.137  0.3601  0.1843  0.7527
   48CHL1  H26A 3546   0.419   4.890   8.156  1.0535  0.6016  0.8168
   48CHL1  H26B 3547   0.314   5.025   8.228 -0.8528  2.2130 -0.7456
   48CHL1  H26C 3548   0.266   4.956   8.092 -0.4886 -0.3412  2.7899
   48CHL1   C27 3549   0.548   5.156   8.134 -0.2058  0.0142  0.2077
   48CHL1  H27A 3550   0.511   5.209   8.224 -1.3690  1.5726 -1.1214
   48CHL1  H27B 3551   0.626   5.081   8.157  1.7482  2.0998  0.7202
   48CHL1  H27C 3552   0.594   5.224   8.059  0.1507 -0.0577  0.3593
   49CHL1    C3 3553   3.265   0.499   6.906 -0.4030  0.5258 -1.2851
   49CHL1    H3 3554   3.209   0.585   6.948 -0.1529  1.1402 -2.1713
   49CHL1    O3 3555   3.276   0.503   6.771  0.2113 -0.4212  0.6859
   49CHL1   H3' 3556   3.354   0.451   6.749 -0.8690 -1.6323 -0.5068
   49CHL1    C4 3557   3.406   0.494   6.970  0.3793 -0.1543 -0.3435
   49CHL1   H4A 3558   3.460   0.401   6.942 -0.8785 -0.8427 -0.5609
   49CHL1   H4B 3559   3.473   0.576   6.936  1.9657 -0.7641  1.1479
   49CHL1    C5 3560   3.405   0.494   7.121  0.2527 -0.2494 -0.2891
   49CHL1    C6 3561   3.467   0.585   7.193  0.4736 -0.4337  0.0477
   49CHL1    H6 3562   3.525   0.655   7.130  0.3785 -0.4388 -0.0455
   49CHL1    C7 3563   3.474   0.587   7.341  0.3526  0.4221  0.4187
   49CHL1   H7A 3564   3.579   0.597   7.377  0.5059 -1.2474  0.5161
   49CHL1   H7B 3565   3.432   0.681   7.383 -1.1651 -0.4872  1.0142
   49CHL1    C8 3566   3.418   0.454   7.401 -0.4514 -0.0037  0.3143
   49CHL1    H8 3567   3.498   0.378   7.389  0.1055  0.9580 -3.4526
   49CHL1   C14 3568   3.387   0.474   7.551 -0.4359 -0.0885 -0.0364
   49CHL1   H14 3569   3.311   0.555   7.549 -0.4984 -0.1476 -0.0412
   49CHL1   C15 3570   3.485   0.537   7.646 -0.5569  0.1325  0.5075
   49CHL1  H15A 3571   3.581   0.503   7.600 -0.3719 -0.2261  1.1452
   49CHL1  H15B 3572   3.484   0.648   7.645 -1.1318  0.1408 -1.2773
   49CHL1   C16 3573   3.451   0.482   7.781 -0.0424  0.1867 -0.2841
   49CHL1  H16A 3574   3.528   0.414   7.824  0.5917  0.1330 -1.4847
   49CHL1  H16B 3575   3.420   0.554   7.860 -1.7657  0.1180 -0.8570
   49CHL1   C17 3576   3.330   0.386   7.763 -0.2789 -0.4163  0.2743
   49CHL1   H17 3577   3.243   0.454   7.776  0.8305  1.0306  0.3577
   49CHL1   C13 3578   3.335   0.338   7.614 -0.7028 -0.3020  0.1999
   49CHL1   C18 3579   3.438   0.224   7.605  0.7617 -0.1525 -0.2658
   49CHL1  H18A 3580   3.404   0.137   7.666  0.9535 -0.1228 -0.1152
   49CHL1  H18B 3581   3.460   0.190   7.501 -3.8515 -0.6796 -1.2651
   49CHL1  H18C 3582   3.532   0.271   7.641  0.0906  1.6223 -0.7503
   49CHL1   C12 3583   3.201   0.307   7.550  0.0445  0.2044 -0.2935
   49CHL1  H12A 3584   3.151   0.221   7.598 -1.6126  1.6472  0.6687
   49CHL1  H12B 3585   3.144   0.401   7.564  1.2830  0.6581  2.2281
   49CHL1   C11 3586   3.219   0.289   7.400 -0.3707 -0.3338 -0.3706
   49CHL1  H11A 3587   3.271   0.193   7.383  0.3528 -0.1176  0.5231
   49CHL1  H11B 3588   3.119   0.277   7.354 -0.4085 -2.1360  0.1052
   49CHL1    C9 3589   3.293   0.410   7.329  0.2779  0.5002  0.0761
   49CHL1    H9 3590   3.224   0.497   7.323  1.8331  1.7938  0.4110
   49CHL1   C10 3591   3.324   0.378   7.184 -0.1461 -0.2373  0.5677
   49CHL1   C19 3592   3.403   0.251   7.158 -0.6645  0.6185  0.0956
   49CHL1  H19A 3593   3.352   0.162   7.200 -1.5530 -0.1885 -2.5296
   49CHL1  H19B 3594   3.415   0.226   7.051  0.6789  1.0437  0.1258
   49CHL1  H19C 3595   3.508   0.251   7.195 -0.9817  0.1923  1.0422
   49CHL1    C1 3596   3.185   0.367   7.110  0.6823 -0.7947  0.3635
   49CHL1   H1A 3597   3.142   0.269   7.139  2.2582 -1.3057  1.0979
   49CHL1   H1B 3598   3.107   0.440   7.139 -0.6497 -1.6000 -1.0552
   49CHL1    C2 3599   3.195   0.369   6.954  0.1072  0.5983 -0.0020
   49CHL1   H2A 3600   3.092   0.358   6.915 -0.2517 -1.0328  1.2714
   49CHL1   H2B 3601   3.251   0.278   6.922  1.4220  0.7675  1.6505
   49CHL1   C20 3602   3.314   0.277   7.866 -0.1950 -0.5999 -1.1767
   49CHL1   H20 3603   3.408   0.217   7.863  1.0695  1.1838  0.1436
   49CHL1   C21 3604   3.192   0.186   7.849 -0.4420 -0.8295 -0.6618
   49CHL1  H21A 3605   3.118   0.247   7.792 -1.0921  0.2110  1.1956
   49CHL1  H21B 3606   3.145   0.147   7.942 -0.3829  1.6793  0.5001
   49CHL1  H21C 3607   3.218   0.102   7.781 -0.1516  1.1430 -3.1389
   49CHL1   C22 3608   3.302   0.325   8.018 -0.1787  0.3333 -0.2061
   49CHL1  H22A 3609   3.374   0.408   8.034  0.2990 -0.1273  0.0570
   49CHL1  H22B 3610   3.198   0.362   8.033 -1.4350 -1.9357 -2.5648
   49CHL1   C23 3611   3.316   0.217   8.126  0.0401  0.0791 -0.2155
   49CHL1  H23A 3612   3.242   0.135   8.113 -0.5080  0.4004  0.8249
   49CHL1  H23B 3613   3.418   0.172   8.115  1.4241  2.4052  2.0733
   49CHL1   C24 3614   3.298   0.283   8.260  0.0775 -0.6519  0.1994
   49CHL1  H24A 3615   3.364   0.372   8.259 -0.5569 -0.1762 -0.4202
   49CHL1  H24B 3616   3.198   0.333   8.260  0.1604 -0.4880  0.7143
   49CHL1   C25 3617   3.315   0.196   8.383  0.1451  0.0884  0.2537
   49CHL1   H25 3618   3.258   0.101   8.371 -1.2352  1.0567 -1.4228
   49CHL1   C26 3619   3.459   0.148   8.404 -0.0234 -0.6410 -0.0920
   49CHL1  H26A 3620   3.492   0.084   8.320  0.9924 -0.2361 -0.0135
   49CHL1  H26B 3621   3.540   0.223   8.412  0.5562 -1.1212 -1.1892
   49CHL1  H26C 3622   3.467   0.085   8.496 -3.1852  1.7050  2.0172
   49CHL1   C27 3623   3.253   0.259   8.502  0.3776 -0.6892 -0.2655
   49CHL1  H27A 3624   3.248   0.184   8.583 -0.2625 -1.4315 -0.9797
   49CHL1  H27B 3625   3.319   0.343   8.535  2.9230 -2.7978  0.3521
   49CHL1  H27C 3626   3.154   0.308   8.489  0.7314  0.3573  0.8147
   50CHL1    C3 3627   5.274   0.880   7.019  0.1272  0.2091  0.1821
   50CHL1    H3 3628   5.375   0.923   7.037  1.2494 -2.2419  0.0508
   50CHL1    O3 3629   5.231   0.883   6.881  0.3722 -0.0600  0.1673
   50CHL1   H3' 3630   5.141   0.851   6.890  0.0607  0.8396  0.3348
   50CHL1    C4 3631   5.267   0.735   7.072 -0.2257 -0.8451  0.0150
   50CHL1   H4A 3632   5.168   0.686   7.066 -0.5330 -0.6019  2.1018
   50CHL1   H4B 3633   5.336   0.672   7.013 -1.4774 -1.4806 -0.8042
   50CHL1    C5 3634   5.326   0.741   7.211 -0.2760  0.1929 -0.2539
   50CHL1    C6 3635   5.440   0.671   7.248 -0.1273 -1.2217 -0.3942
   50CHL1    H6 3636   5.496   0.624   7.166 -0.8272  1.0375 -2.2536
   50CHL1    C7 3637   5.490   0.669   7.389 -0.3157 -0.1390 -0.4441
   50CHL1   H7A 3638   5.517   0.567   7.424 -0.4322  0.6556  2.1948
   50CHL1   H7B 3639   5.585   0.726   7.397  0.1986 -1.1599  1.3527
   50CHL1    C8 3640   5.383   0.716   7.490  0.5047 -0.5410 -0.2684
   50CHL1    H8 3641   5.310   0.632   7.491  0.0560 -0.1601 -0.7005
   50CHL1   C14 3642   5.453   0.744   7.624 -0.8034  0.6920 -0.1829
   50CHL1   H14 3643   5.523   0.828   7.601 -1.4724  1.9888  2.1754
   50CHL1   C15 3644   5.542   0.630   7.682 -0.5840 -0.6277  0.4517
   50CHL1  H15A 3645   5.472   0.544   7.687 -1.1920 -0.1315  0.6072
   50CHL1  H15B 3646   5.637   0.629   7.625 -0.6568  1.9181  0.1348
   50CHL1   C16 3647   5.573   0.683   7.820  0.0446 -0.1471 -0.7731
   50CHL1  H16A 3648   5.548   0.621   7.908 -0.9393  2.5037  0.9559
   50CHL1  H16B 3649   5.680   0.715   7.821  0.2982 -0.5760  3.2587
   50CHL1   C17 3650   5.494   0.817   7.844  0.2058 -0.2108 -0.3917
   50CHL1   H17 3651   5.560   0.902   7.815 -0.2065  0.2406 -0.0093
   50CHL1   C13 3652   5.379   0.807   7.739  0.1744 -0.3475 -0.7252
   50CHL1   C18 3653   5.264   0.720   7.790  0.2961 -0.4126  0.1192
   50CHL1  H18A 3654   5.286   0.618   7.828 -2.0383 -2.4183 -3.3112
   50CHL1  H18B 3655   5.218   0.777   7.874 -0.2445  0.8280 -0.9856
   50CHL1  H18C 3656   5.181   0.691   7.721 -1.1005 -1.7806  2.2392
   50CHL1   C12 3657   5.325   0.942   7.689 -0.7366  0.0091  0.7746
   50CHL1  H12A 3658   5.252   0.987   7.760  0.9871  0.3596  2.4089
   50CHL1  H12B 3659   5.409   1.008   7.661  0.4753 -0.6467  2.6444
   50CHL1   C11 3660   5.247   0.918   7.554 -1.1511  0.0712 -0.3888
   50CHL1  H11A 3661   5.155   0.861   7.580 -1.4607 -0.2546 -2.0414
   50CHL1  H11B 3662   5.218   1.023   7.530 -0.0319  0.6379  0.6337
   50CHL1    C9 3663   5.327   0.846   7.445  0.2711 -0.0772  0.6270
   50CHL1    H9 3664   5.413   0.909   7.413 -0.5922 -0.0186 -1.8208
   50CHL1   C10 3665   5.246   0.826   7.316  0.2794  0.7871 -0.1654
   50CHL1   C19 3666   5.103   0.760   7.340 -0.1413  0.3729 -0.7767
   50CHL1  H19A 3667   5.053   0.801   7.430  0.3038 -0.5270 -0.1119
   50CHL1  H19B 3668   5.033   0.784   7.257 -0.0282  2.1153 -0.4120
   50CHL1  H19C 3669   5.101   0.651   7.361 -0.1612  0.9748  2.8198
   50CHL1    C1 3670   5.224   0.968   7.250  0.0251 -0.6707  0.1984
   50CHL1   H1A 3671   5.146   1.006   7.319  0.3318 -0.3540  0.3806
   50CHL1   H1B 3672   5.315   1.032   7.253  0.3040 -0.8807 -2.1076
   50CHL1    C2 3673   5.177   0.965   7.103  0.2763  0.4398  0.6454
   50CHL1   H2A 3674   5.178   1.067   7.057  2.2904 -0.0749 -0.5919
   50CHL1   H2B 3675   5.077   0.918   7.092 -0.0941  1.6168 -1.6850
   50CHL1   C20 3676   5.462   0.860   7.992  1.0287  0.1518  0.1501
   50CHL1   H20 3677   5.401   0.779   8.039  2.6468 -0.7560  0.7452
   50CHL1   C21 3678   5.380   0.992   8.000 -0.3236 -0.9101 -0.0316
   50CHL1  H21A 3679   5.440   1.068   7.944 -0.7340 -0.2299  0.4332
   50CHL1  H21B 3680   5.374   1.034   8.102 -2.4554  1.5662 -1.0603
   50CHL1  H21C 3681   5.273   0.983   7.970 -0.1543  0.9277 -1.3576
   50CHL1   C22 3682   5.578   0.877   8.086 -0.1995  0.7383 -0.0099
   50CHL1  H22A 3683   5.648   0.957   8.052 -0.4833  0.5063 -1.1899
   50CHL1  H22B 3684   5.532   0.913   8.181 -0.1558 -4.1019  2.1208
   50CHL1   C23 3685   5.652   0.746   8.119 -0.1542  0.3511 -0.3954
   50CHL1  H23A 3686   5.571   0.671   8.134  0.5198 -0.2152  0.5149
   50CHL1  H23B 3687   5.720   0.703   8.042  0.4771 -0.0432  0.3790
   50CHL1   C24 3688   5.726   0.784   8.247 -0.0462  0.6315 -0.0340
   50CHL1  H24A 3689   5.806   0.855   8.215  0.1027  0.5956  0.2512
   50CHL1  H24B 3690   5.663   0.834   8.323  0.1471  1.5092 -0.4373
   50CHL1   C25 3691   5.793   0.662   8.314  0.7309  0.1794 -0.6189
   50CHL1   H25 3692   5.855   0.615   8.235 -0.2419 -0.3670 -1.0835
   50CHL1   C26 3693   5.883   0.707   8.436  0.3264  0.1112 -0.3879
   50CHL1  H26A 3694   5.827   0.771   8.507 -0.7759  2.8389 -3.4197
   50CHL1  H26B 3695   5.905   0.610   8.486 -2.9012  0.3785  1.8628
   50CHL1  H26C 3696   5.974   0.759   8.401  0.0790  3.0828  2.8624
   50CHL1   C27 3697   5.699   0.543   8.353  0.4927 -0.7821  0.3047
   50CHL1  H27A 3698   5.651   0.504   8.261  0.8030  1.4622 -0.8636
   50CHL1  H27B 3699   5.767   0.479   8.413  1.6656  0.5972  0.4946
   50CHL1  H27C 3700   5.615   0.563   8.424  0.7005  0.0956  0.3086
   51CHL1    C3 3701   4.276   1.434   7.091  0.0065 -0.9718 -0.1114
   51CHL1    H3 3702   4.239   1.539   7.092  3.1287  0.2575 -1.8857
   51CHL1    O3 3703   4.273   1.397   6.952  0.0095 -0.3610 -0.2817
   51CHL1   H3' 3704   4.359   1.432   6.926  0.5122 -0.7774  0.7583
   51CHL1    C4 3705   4.420   1.432   7.146 -1.0420 -0.6976  0.3516
   51CHL1   H4A 3706   4.464   1.334   7.115 -0.1657 -0.8465  1.9788
   51CHL1   H4B 3707   4.469   1.521   7.101  0.0262 -0.1995  2.3789
   51CHL1    C5 3708   4.428   1.448   7.297  0.3572 -0.2407 -0.4909
   51CHL1    C6 3709   4.500   1.553   7.351  0.4832  0.7636  0.9916
   51CHL1    H6 3710   4.566   1.610   7.284  0.5285 -3.1306 -2.6497
   51CHL1    C7 3711   4.508   1.574   7.500  0.4735  0.6238 -0.4172
   51CHL1   H7A 3712   4.609   1.598   7.540  0.0701 -1.2006  1.8724
   51CHL1   H7B 3713   4.439   1.654   7.535 -0.0058  0.2246 -0.4431
   51CHL1    C8 3714   4.464   1.443   7.579  0.3038  0.5299  0.6316
   51CHL1    H8 3715   4.543   1.368   7.560 -1.6211 -1.0410 -1.8579
   51CHL1   C14 3716   4.464   1.476   7.727  0.0725  0.1662  0.0740
   51CHL1   H14 3717   4.394   1.562   7.737  1.7667  1.6207  0.1534
   51CHL1   C15 3718   4.579   1.528   7.803 -0.7273  0.0843  0.0759
   51CHL1  H15A 3719   4.667   1.467   7.771 -0.2649  0.9568 -0.3382
   51CHL1  H15B 3720   4.581   1.638   7.789 -0.8882  0.0662 -0.0781
   51CHL1   C16 3721   4.540   1.498   7.947  0.7432  0.4264 -0.9977
   51CHL1  H16A 3722   4.619   1.434   7.992  0.3387  0.8532  0.3760
   51CHL1  H16B 3723   4.529   1.597   7.997 -0.7215 -0.2774  0.1376
   51CHL1   C17 3724   4.401   1.423   7.954  0.5546 -0.4527  0.6305
   51CHL1   H17 3725   4.315   1.494   7.948 -0.2727 -1.4857 -0.1053
   51CHL1   C13 3726   4.404   1.356   7.815 -0.7428  0.0062  0.2803
   51CHL1   C18 3727   4.490   1.227   7.809  0.0538  0.3525  0.2418
   51CHL1  H18A 3728   4.442   1.153   7.877  0.1531 -0.4160 -0.4948
   51CHL1  H18B 3729   4.490   1.186   7.706 -0.6248  1.0928 -0.0541
   51CHL1  H18C 3730   4.597   1.231   7.841  1.2718  0.1675 -3.3590
   51CHL1   C12 3731   4.259   1.328   7.757  0.1539 -0.3726 -0.6590
   51CHL1  H12A 3732   4.211   1.251   7.821 -0.6700  0.5332 -0.1672
   51CHL1  H12B 3733   4.197   1.420   7.759 -0.4437 -0.6204 -3.3426
   51CHL1   C11 3734   4.258   1.289   7.614  0.7120  0.1148 -0.1752
   51CHL1  H11A 3735   4.292   1.184   7.605  0.3333 -0.0566  0.3560
   51CHL1  H11B 3736   4.154   1.276   7.579  0.7621 -0.1371 -0.2265
   51CHL1    C9 3737   4.327   1.392   7.524  0.0180 -0.4048  0.0444
   51CHL1    H9 3738   4.263   1.483   7.534 -0.1533 -0.4659 -0.4830
   51CHL1   C10 3739   4.340   1.354   7.377 -0.9815 -0.3187 -0.3650
   51CHL1   C19 3740   4.399   1.208   7.372 -0.1893 -0.5728  0.2496
   51CHL1  H19A 3741   4.492   1.212   7.433  0.3753  0.0755 -0.6268
   51CHL1  H19B 3742   4.332   1.133   7.420 -1.1667 -1.2406 -1.9937
   51CHL1  H19C 3743   4.427   1.172   7.270 -1.7536 -0.5655 -0.2050
   51CHL1    C1 3744   4.199   1.366   7.314  0.1923  0.6408  0.7400
   51CHL1   H1A 3745   4.138   1.294   7.373 -0.5144  2.2227  2.0154
   51CHL1   H1B 3746   4.148   1.461   7.343  0.0944  1.3308 -1.4883
   51CHL1    C2 3747   4.182   1.340   7.166 -0.4178  0.2958  0.2542
   51CHL1   H2A 3748   4.078   1.362   7.132 -0.8968  0.7261  1.9032
   51CHL1   H2B 3749   4.212   1.237   7.137 -1.2255  0.4851 -1.4078
   51CHL1   C20 3750   4.396   1.340   8.084  0.4828  0.4423 -0.3397
   51CHL1   H20 3751   4.485   1.274   8.089 -0.1849 -0.4480  0.0668
   51CHL1   C21 3752   4.273   1.236   8.086 -0.0790 -0.3072 -0.3011
   51CHL1  H21A 3753   4.171   1.277   8.065 -1.0904 -2.3378  0.4108
   51CHL1  H21B 3754   4.267   1.185   8.185 -0.3036  2.0251  0.9675
   51CHL1  H21C 3755   4.286   1.156   8.011 -0.3897 -2.3972  1.7509
   51CHL1   C22 3756   4.405   1.429   8.218  0.4864 -0.1447  0.2392
   51CHL1  H22A 3757   4.492   1.496   8.202 -0.6427  1.3173 -0.0371
   51CHL1  H22B 3758   4.318   1.498   8.211  1.9299  1.6458 -2.4244
   51CHL1   C23 3759   4.406   1.363   8.350 -0.5576 -0.2612 -0.1687
   51CHL1  H23A 3760   4.304   1.320   8.358 -0.2853 -0.9522 -0.2646
   51CHL1  H23B 3761   4.481   1.280   8.354 -0.2973 -0.1182 -1.6031
   51CHL1   C24 3762   4.426   1.454   8.470  0.5822 -0.1834 -0.6843
   51CHL1  H24A 3763   4.524   1.504   8.454  0.6736 -0.4085 -0.8302
   51CHL1  H24B 3764   4.347   1.530   8.484  0.9262 -0.0351  0.6647
   51CHL1   C25 3765   4.431   1.388   8.608 -0.1324  0.3147  0.5002
   51CHL1   H25 3766   4.348   1.315   8.610  1.8407 -2.1685 -1.3009
   51CHL1   C26 3767   4.572   1.326   8.629  0.2623  0.0429  0.5275
   51CHL1  H26A 3768   4.609   1.275   8.537  0.4211  0.6780  0.2332
   51CHL1  H26B 3769   4.653   1.396   8.660 -0.3525  1.1230 -0.2343
   51CHL1  H26C 3770   4.572   1.247   8.708 -0.1476  0.4832  0.9747
   51CHL1   C27 3771   4.396   1.488   8.725 -0.9309 -0.1141 -0.6246
   51CHL1  H27A 3772   4.426   1.435   8.818  0.8678  0.4886 -0.8199
   51CHL1  H27B 3773   4.463   1.575   8.707 -0.3318 -0.2335  0.8374
   51CHL1  H27C 3774   4.289   1.516   8.714 -0.9590 -0.1601 -0.4778
   52CHL1    C3 3775   0.674   0.435   6.893  0.2028 -0.2157 -0.5033
   52CHL1    H3 3776   0.771   0.380   6.887  0.6328  0.5694 -0.9036
   52CHL1    O3 3777   0.645   0.471   6.758  0.1540  0.2912  0.1727
   52CHL1   H3' 3778   0.579   0.540   6.769  1.0775  1.2266  0.0492
   52CHL1    C4 3779   0.559   0.353   6.949 -0.1904 -0.5049  0.0608
   52CHL1   H4A 3780   0.462   0.403   6.927 -0.0933 -0.2874  0.1238
   52CHL1   H4B 3781   0.552   0.253   6.903  0.4701 -1.1970  1.4078
   52CHL1    C5 3782   0.561   0.343   7.100 -0.0539  0.6723  0.7978
   52CHL1    C6 3783   0.567   0.222   7.151  0.1722  0.3596 -0.2655
   52CHL1    H6 3784   0.579   0.135   7.086  1.2661 -0.3489  0.8401
   52CHL1    C7 3785   0.582   0.197   7.296  0.1439 -0.1663 -0.0276
   52CHL1   H7A 3786   0.515   0.116   7.332 -1.5544  0.9990 -0.4294
   52CHL1   H7B 3787   0.689   0.170   7.310 -0.1856 -1.2057  0.6494
   52CHL1    C8 3788   0.544   0.315   7.381  0.3787  0.6197 -0.4607
   52CHL1    H8 3789   0.434   0.323   7.370  0.2076  0.1957  0.7790
   52CHL1   C14 3790   0.580   0.288   7.530  0.4655 -1.1126  0.1652
   52CHL1   H14 3791   0.689   0.269   7.538  0.4843 -0.8692  0.5269
   52CHL1   C15 3792   0.529   0.157   7.604 -0.1361  0.1532  0.2129
   52CHL1  H15A 3793   0.425   0.130   7.577 -0.4032  0.3623  0.9915
   52CHL1  H15B 3794   0.600   0.073   7.592 -1.0115 -0.7289  1.0203
   52CHL1   C16 3795   0.537   0.198   7.748  0.2380  0.5330 -0.0028
   52CHL1  H16A 3796   0.443   0.180   7.804  1.0994 -1.2492  0.9453
   52CHL1  H16B 3797   0.623   0.140   7.787  0.6750  0.5741 -0.8755
   52CHL1   C17 3798   0.582   0.346   7.750  0.5154 -0.2998 -0.2791
   52CHL1   H17 3799   0.693   0.342   7.758  0.5304 -2.4522 -0.7659
   52CHL1   C13 3800   0.549   0.407   7.618 -0.3837 -0.3411  0.5364
   52CHL1   C18 3801   0.396   0.434   7.611 -0.3120 -0.3337  0.6147
   52CHL1  H18A 3802   0.374   0.491   7.518 -0.6903 -3.5297 -1.4105
   52CHL1  H18B 3803   0.346   0.336   7.599 -2.0749  0.2888  2.3473
   52CHL1  H18C 3804   0.349   0.479   7.701 -0.6885  0.3059  0.1116
   52CHL1   C12 3805   0.636   0.526   7.571  0.1014  1.0560 -0.3033
   52CHL1  H12A 3806   0.616   0.617   7.632 -3.1357  0.1104  0.2061
   52CHL1  H12B 3807   0.744   0.502   7.574  0.8277  3.9942  0.3122
   52CHL1   C11 3808   0.604   0.565   7.426  0.0840  0.6580  0.7728
   52CHL1  H11A 3809   0.503   0.610   7.421 -0.2401 -0.1798 -1.0351
   52CHL1  H11B 3810   0.667   0.650   7.392  0.7767  0.0178  0.4192
   52CHL1    C9 3811   0.619   0.440   7.331 -0.5397 -0.2382  0.2351
   52CHL1    H9 3812   0.726   0.413   7.326  0.2623  2.7203 -0.8444
   52CHL1   C10 3813   0.575   0.468   7.180  0.6861  0.3441 -0.5461
   52CHL1   C19 3814   0.455   0.568   7.181 -0.7486  0.1617 -0.1129
   52CHL1  H19A 3815   0.479   0.665   7.229  0.1022 -0.3376  0.5057
   52CHL1  H19B 3816   0.423   0.596   7.079  1.5745  0.5864 -0.7827
   52CHL1  H19C 3817   0.367   0.520   7.230 -0.3234 -1.5786 -0.9711
   52CHL1    C1 3818   0.702   0.538   7.128 -0.4978  0.7227 -0.3789
   52CHL1   H1A 3819   0.710   0.635   7.183  0.1324  1.4125 -1.6289
   52CHL1   H1B 3820   0.792   0.479   7.153  1.4738  2.6139 -2.4873
   52CHL1    C2 3821   0.701   0.564   6.977  0.2564 -0.2438  0.4768
   52CHL1   H2A 3822   0.786   0.617   6.930 -0.6218 -0.6031 -1.6765
   52CHL1   H2B 3823   0.621   0.637   6.952  1.3962  1.9160  2.7995
   52CHL1   C20 3824   0.540   0.410   7.888 -0.1151  0.1742 -0.8698
   52CHL1   H20 3825   0.429   0.402   7.899  0.1016 -0.5034  1.6311
   52CHL1   C21 3826   0.582   0.555   7.889  0.3308  0.3920 -0.0196
   52CHL1  H21A 3827   0.544   0.610   7.800 -1.5120  0.4840  0.7692
   52CHL1  H21B 3828   0.693   0.563   7.898  0.3966 -0.7871  0.3544
   52CHL1  H21C 3829   0.541   0.611   7.976 -1.4935  0.6853 -1.0084
   52CHL1   C22 3830   0.587   0.321   8.006 -0.3176 -0.1447 -0.2547
   52CHL1  H22A 3831   0.550   0.216   8.003 -1.4548  0.2550 -2.3083
   52CHL1  H22B 3832   0.697   0.313   8.018 -0.2394 -1.9674 -1.7296
   52CHL1   C23 3833   0.529   0.357   8.146  0.1778  0.7986  0.1609
   52CHL1  H23A 3834   0.562   0.459   8.177  3.0771  0.4031 -1.3802
   52CHL1  H23B 3835   0.419   0.361   8.129  0.0680  0.1788  0.6916
   52CHL1   C24 3836   0.575   0.260   8.257  0.1137  0.3081 -0.9397
   52CHL1  H24A 3837   0.535   0.160   8.233  1.4303 -0.9291  1.6081
   52CHL1  H24B 3838   0.685   0.253   8.244  0.4608  1.2823  1.1080
   52CHL1   C25 3839   0.547   0.306   8.402 -0.1720  0.0444 -0.0553
   52CHL1   H25 3840   0.461   0.375   8.387  1.2616  1.8835 -0.1898
   52CHL1   C26 3841   0.501   0.180   8.480 -0.1882 -0.6417 -0.5203
   52CHL1  H26A 3842   0.592   0.116   8.481 -0.2369 -0.9078 -3.4602
   52CHL1  H26B 3843   0.459   0.205   8.579  0.0772  1.3034 -0.8511
   52CHL1  H26C 3844   0.425   0.131   8.416  0.2857  0.0156 -1.6320
   52CHL1   C27 3845   0.653   0.394   8.477  0.3316 -0.9740  0.8265
   52CHL1  H27A 3846   0.701   0.472   8.414 -0.3611  0.2598  1.7715
   52CHL1  H27B 3847   0.606   0.438   8.567 -0.2237  1.3989 -0.5448
   52CHL1  H27C 3848   0.746   0.340   8.505 -0.4488 -1.2633  2.9758
   53CHL1    C3 3849   3.394   5.974   7.154  0.1447  0.6311 -0.1578
   53CHL1    H3 3850   3.308   6.022   7.204  1.0804  2.2441 -0.0275
   53CHL1    O3 3851   3.374   5.990   7.010  0.5205 -0.6062 -0.6358
   53CHL1   H3' 3852   3.432   5.924   6.972  0.5899 -0.6486 -0.4608
   53CHL1    C4 3853   3.523   6.045   7.188 -0.2733 -0.4176  0.5110
   53CHL1   H4A 3854   3.605   5.987   7.141 -0.0759 -0.1530  0.5298
   53CHL1   H4B 3855   3.530   6.150   7.152 -1.2174 -1.0939 -1.8746
   53CHL1    C5 3856   3.558   6.026   7.333 -0.6244  0.0553  0.1933
   53CHL1    C6 3857   3.587   6.129   7.405  0.1499  0.1131 -0.1143
   53CHL1    H6 3858   3.592   6.229   7.360  1.4295  0.2854  0.3640
   53CHL1    C7 3859   3.622   6.117   7.549  0.1232 -0.1941 -1.0256
   53CHL1   H7A 3860   3.717   6.173   7.562  0.4990 -1.2347  1.1345
   53CHL1   H7B 3861   3.546   6.167   7.612 -0.2650 -0.9867 -0.8451
   53CHL1    C8 3862   3.656   5.983   7.605 -0.3125 -0.0326 -0.2076
   53CHL1    H8 3863   3.756   5.950   7.570  0.0855 -1.2027  1.8958
   53CHL1   C14 3864   3.653   5.990   7.755 -0.0217  0.3422 -0.4417
   53CHL1   H14 3865   3.549   6.013   7.784 -0.4988 -0.9038 -1.0825
   53CHL1   C15 3866   3.739   6.093   7.831  0.6405 -0.1662 -0.3351
   53CHL1  H15A 3867   3.847   6.096   7.805  0.9776  0.2334  1.0346
   53CHL1  H15B 3868   3.690   6.190   7.810  1.3439  0.2438 -0.1267
   53CHL1   C16 3869   3.727   6.040   7.978 -0.0237 -0.1183 -0.5018
   53CHL1  H16A 3870   3.831   6.053   8.016 -0.5352  0.5017  0.7351
   53CHL1  H16B 3871   3.661   6.109   8.035 -1.2485 -2.1392  0.6835
   53CHL1   C17 3872   3.669   5.895   7.974  0.3143 -0.0951  0.4690
   53CHL1   H17 3873   3.559   5.912   7.983  0.3027 -0.4081  0.9820
   53CHL1   C13 3874   3.694   5.864   7.820 -0.1166  0.0952 -0.1537
   53CHL1   C18 3875   3.844   5.821   7.800 -0.1417  0.3611  0.0344
   53CHL1  H18A 3876   3.882   5.844   7.698  0.9922 -0.7124  0.1885
   53CHL1  H18B 3877   3.910   5.871   7.875  1.1150  0.8072 -1.3184
   53CHL1  H18C 3878   3.848   5.714   7.827 -0.6080  0.6438  1.3033
   53CHL1   C12 3879   3.599   5.754   7.765 -0.0216 -0.3901 -0.3455
   53CHL1  H12A 3880   3.621   5.655   7.809 -2.9179 -0.1582  1.9246
   53CHL1  H12B 3881   3.500   5.775   7.811 -0.7466 -1.1309 -1.4862
   53CHL1   C11 3882   3.593   5.746   7.610 -0.0357  0.3727 -0.4391
   53CHL1  H11A 3883   3.694   5.708   7.583 -0.0899 -1.0007  1.1046
   53CHL1  H11B 3884   3.522   5.669   7.572  1.3075 -0.2490 -1.8249
   53CHL1    C9 3885   3.561   5.884   7.546  0.2077  0.2570  0.1182
   53CHL1    H9 3886   3.455   5.914   7.564 -0.3643  0.0645 -2.5051
   53CHL1   C10 3887   3.555   5.887   7.386 -0.3973 -0.0556 -0.1267
   53CHL1   C19 3888   3.683   5.822   7.330  0.9742  0.5805 -0.6545
   53CHL1  H19A 3889   3.686   5.817   7.219 -1.1220  1.3365 -0.7756
   53CHL1  H19B 3890   3.772   5.880   7.364  1.7292 -1.9033  2.0416
   53CHL1  H19C 3891   3.694   5.718   7.369  2.1558  0.0199 -2.3530
   53CHL1    C1 3892   3.427   5.814   7.344 -0.3427 -0.0581 -0.7564
   53CHL1   H1A 3893   3.437   5.704   7.359 -2.1554 -0.0761  0.7975
   53CHL1   H1B 3894   3.341   5.843   7.409 -1.1304  1.3723 -2.3732
   53CHL1    C2 3895   3.390   5.828   7.195 -0.1061  0.0418  0.0684
   53CHL1   H2A 3896   3.293   5.779   7.172 -0.4542 -0.1842  1.8909
   53CHL1   H2B 3897   3.465   5.778   7.131  2.2473  1.2208  1.7570
   53CHL1   C20 3898   3.712   5.808   8.093 -0.4998  0.1558  0.0612
   53CHL1   H20 3899   3.823   5.805   8.094 -0.3876 -1.3102 -3.3104
   53CHL1   C21 3900   3.655   5.664   8.090 -0.6384 -0.5137 -0.0445
   53CHL1  H21A 3901   3.545   5.665   8.075 -0.2859 -0.5478 -3.3039
   53CHL1  H21B 3902   3.684   5.595   8.172  2.1395  0.0023 -0.4794
   53CHL1  H21C 3903   3.686   5.617   7.994 -0.0169 -0.5931  0.1902
   53CHL1   C22 3904   3.665   5.867   8.227 -0.2104 -0.1489 -0.2691
   53CHL1  H22A 3905   3.676   5.978   8.229  1.2725 -0.2511 -1.2522
   53CHL1  H22B 3906   3.556   5.848   8.238  0.0126 -1.0707  0.4489
   53CHL1   C23 3907   3.748   5.806   8.337  0.4215 -0.1036 -0.2123
   53CHL1  H23A 3908   3.755   5.696   8.347  3.4069  0.0937  0.8089
   53CHL1  H23B 3909   3.853   5.842   8.328  0.4683  2.2841  5.3035
   53CHL1   C24 3910   3.711   5.850   8.478 -0.0458  0.5598  0.1483
   53CHL1  H24A 3911   3.810   5.850   8.528  0.5641 -0.3653 -1.0042
   53CHL1  H24B 3912   3.672   5.953   8.497 -0.0038  0.5749  0.1513
   53CHL1   C25 3913   3.627   5.746   8.551 -0.1840 -0.2904  0.1830
   53CHL1   H25 3914   3.674   5.646   8.564 -2.3424 -1.1539  1.9428
   53CHL1   C26 3915   3.617   5.799   8.694  0.9815  0.0171 -0.2399
   53CHL1  H26A 3916   3.552   5.734   8.757  1.0268 -2.3258 -2.4765
   53CHL1  H26B 3917   3.720   5.791   8.735  0.6773  1.3024  0.8229
   53CHL1  H26C 3918   3.574   5.900   8.708  0.3766 -0.3329  0.5182
   53CHL1   C27 3919   3.491   5.712   8.486 -0.5083 -0.8430 -0.6990
   53CHL1  H27A 3920   3.506   5.662   8.388 -0.8401 -2.5802  0.1159
   53CHL1  H27B 3921   3.425   5.657   8.556  0.4328 -0.7902  0.2515
   53CHL1  H27C 3922   3.446   5.811   8.461  0.4658 -0.4020 -0.7477
   54CHL1    C3 3923   3.550   6.567   7.227  0.2307 -0.0126 -0.9269
   54CHL1    H3 3924   3.487   6.479   7.254  1.4556 -0.3223  1.0956
   54CHL1    O3 3925   3.533   6.585   7.089  0.4446 -0.9227 -0.0418
   54CHL1   H3' 3926   3.602   6.534   7.048 -0.4504  0.0015 -2.9659
   54CHL1    C4 3927   3.491   6.690   7.300  0.2747 -0.4574  0.7123
   54CHL1   H4A 3928   3.551   6.781   7.281 -2.3429  1.7277  2.2161
   54CHL1   H4B 3929   3.391   6.715   7.257  1.0623  0.1718 -0.8242
   54CHL1    C5 3930   3.487   6.641   7.442  0.1782 -0.3141 -0.7118
   54CHL1    C6 3931   3.367   6.631   7.501  0.2054 -0.6016  0.4930
   54CHL1    H6 3932   3.276   6.657   7.444  2.0153  0.3397 -2.1651
   54CHL1    C7 3933   3.347   6.599   7.642  0.2442 -0.5734 -0.5390
   54CHL1   H7A 3934   3.268   6.668   7.678  2.7756  1.4876  1.4359
   54CHL1   H7B 3935   3.311   6.494   7.650 -2.4239  0.4134  2.0701
   54CHL1    C8 3936   3.476   6.617   7.730 -0.4280 -0.0113  0.4330
   54CHL1    H8 3937   3.494   6.726   7.741  0.0539  0.0676 -0.8618
   54CHL1   C14 3938   3.474   6.557   7.866  0.1582 -0.3078  0.1019
   54CHL1   H14 3939   3.462   6.448   7.847  0.4880 -0.6462  1.7582
   54CHL1   C15 3940   3.362   6.595   7.951 -0.4802  0.6447  0.1466
   54CHL1  H15A 3941   3.342   6.703   7.935  0.7067  0.6518 -1.6362
   54CHL1  H15B 3942   3.268   6.539   7.928 -0.6513  0.8615  0.3132
   54CHL1   C16 3943   3.400   6.565   8.096 -1.0249  0.2988 -0.1487
   54CHL1  H16A 3944   3.393   6.658   8.157 -0.6748 -1.0458  2.0339
   54CHL1  H16B 3945   3.344   6.481   8.142  2.5529 -1.5600  1.1816
   54CHL1   C17 3946   3.554   6.512   8.085 -0.0683 -0.2984  0.7360
   54CHL1   H17 3947   3.547   6.403   8.062  1.0802  0.0516 -1.5749
   54CHL1   C13 3948   3.601   6.571   7.951 -0.4804 -0.5593  0.0774
   54CHL1   C18 3949   3.650   6.715   7.966  0.5807 -0.0191  0.0837
   54CHL1  H18A 3950   3.693   6.761   7.875 -2.3117  2.2248 -0.2903
   54CHL1  H18B 3951   3.565   6.776   8.003 -0.5703 -0.0658 -2.2900
   54CHL1  H18C 3952   3.735   6.709   8.038  0.3675  0.5358  0.3892
   54CHL1   C12 3953   3.707   6.486   7.872  0.0953  0.1517  0.0073
   54CHL1  H12A 3954   3.808   6.498   7.917  1.5853  1.4633 -3.3569
   54CHL1  H12B 3955   3.676   6.380   7.880  0.2161  0.2575  3.3051
   54CHL1   C11 3956   3.728   6.532   7.731  0.4042  1.0686  0.0670
   54CHL1  H11A 3957   3.789   6.625   7.736  0.3355  1.2064 -1.4357
   54CHL1  H11B 3958   3.787   6.453   7.680 -2.3180 -0.6327 -0.6398
   54CHL1    C9 3959   3.596   6.561   7.650 -0.2550  0.2441  1.6150
   54CHL1    H9 3960   3.563   6.457   7.630  0.9058  0.4045 -1.6856
   54CHL1   C10 3961   3.620   6.616   7.510  0.0750 -0.1584  0.4219
   54CHL1   C19 3962   3.700   6.751   7.516  0.2144 -0.0609  0.2089
   54CHL1  H19A 3963   3.704   6.790   7.412 -1.4134  0.0858  0.1696
   54CHL1  H19B 3964   3.654   6.821   7.589  1.4844  0.7267  0.2765
   54CHL1  H19C 3965   3.801   6.719   7.548  0.1305  0.6858  1.2800
   54CHL1    C1 3966   3.694   6.515   7.425  0.4577 -0.0220  0.0900
   54CHL1   H1A 3967   3.799   6.497   7.455  0.5601 -1.7361 -1.1589
   54CHL1   H1B 3968   3.651   6.413   7.429 -0.5795  0.3892 -0.3024
   54CHL1    C2 3969   3.693   6.530   7.269  0.0475  0.0438 -0.0752
   54CHL1   H2A 3970   3.728   6.441   7.214 -0.7346 -0.6057  0.4455
   54CHL1   H2B 3971   3.765   6.612   7.250  1.3540 -0.9530  0.4241
   54CHL1   C20 3972   3.636   6.534   8.210  0.1975  0.0159 -0.2610
   54CHL1   H20 3973   3.635   6.640   8.244 -2.6308 -0.3697  1.1896
   54CHL1   C21 3974   3.778   6.482   8.203 -0.5080 -0.4514 -0.7045
   54CHL1  H21A 3975   3.842   6.538   8.131  2.0437 -1.7373  0.4060
   54CHL1  H21B 3976   3.779   6.380   8.160  0.3874 -1.1378  0.8326
   54CHL1  H21C 3977   3.824   6.478   8.305  0.1972 -0.6849 -1.0262
   54CHL1   C22 3978   3.576   6.457   8.330  0.1527  0.1683  0.2616
   54CHL1  H22A 3979   3.466   6.452   8.315  0.2353 -1.8261  0.1022
   54CHL1  H22B 3980   3.609   6.351   8.327 -0.5135 -0.0632  0.9918
   54CHL1   C23 3981   3.602   6.503   8.471 -0.4945 -0.2548 -0.2172
   54CHL1  H23A 3982   3.709   6.497   8.503  0.0024  0.2124 -1.7368
   54CHL1  H23B 3983   3.569   6.607   8.490  1.5635  0.5720 -0.9619
   54CHL1   C24 3984   3.518   6.425   8.574  0.0319  0.7409 -0.5391
   54CHL1  H24A 3985   3.407   6.423   8.570 -0.1520 -1.5806  2.2915
   54CHL1  H24B 3986   3.540   6.319   8.548 -3.8844 -0.3827 -0.0674
   54CHL1   C25 3987   3.551   6.450   8.725 -0.3684 -0.6212 -0.3062
   54CHL1   H25 3988   3.472   6.392   8.778  0.9588 -3.2152 -0.9988
   54CHL1   C26 3989   3.688   6.389   8.765 -0.4630 -0.5425 -0.2644
   54CHL1  H26A 3990   3.691   6.278   8.753 -0.4962 -0.5211 -0.4763
   54CHL1  H26B 3991   3.767   6.437   8.704  0.8976  0.7747  2.3710
   54CHL1  H26C 3992   3.713   6.416   8.870 -0.3099  2.3586 -0.9782
   54CHL1   C27 3993   3.555   6.609   8.756 -0.3486  0.5139 -0.8138
   54CHL1  H27A 3994   3.652   6.643   8.714 -0.6021  2.2718 -0.0608
   54CHL1  H27B 3995   3.462   6.647   8.708  0.3570  1.5547 -1.3959
   54CHL1  H27C 3996   3.561   6.635   8.863 -0.6182  0.4649 -0.7871
   55CHL1    C3 3997   3.154   3.161   7.000 -0.4308 -0.6436 -0.2615
   55CHL1    H3 3998   3.074   3.084   7.004  0.1710 -1.3315 -1.1550
   55CHL1    O3 3999   3.199   3.160   6.871 -0.4479 -0.6832 -0.0610
   55CHL1   H3' 4000   3.146   3.222   6.821  0.2480  1.1763  1.3659
   55CHL1    C4 4001   3.102   3.303   7.039  0.8090  0.6014  0.7738
   55CHL1   H4A 4002   3.189   3.369   7.022  2.4284 -1.6205 -0.1090
   55CHL1   H4B 4003   3.017   3.317   6.968  0.8134 -0.0203  0.6342
   55CHL1    C5 4004   3.056   3.322   7.183  0.3475 -0.8378 -0.4992
   55CHL1    C6 4005   2.927   3.364   7.219 -0.2009 -0.1104 -0.0354
   55CHL1    H6 4006   2.868   3.408   7.137 -1.1229 -0.2262  0.5479
   55CHL1    C7 4007   2.885   3.383   7.360 -0.1827  0.1090  0.1579
   55CHL1   H7A 4008   2.851   3.488   7.371  0.9199  0.4326  0.6453
   55CHL1   H7B 4009   2.799   3.314   7.373  2.0347 -2.6759  1.1051
   55CHL1    C8 4010   2.984   3.357   7.463 -0.5328 -0.2303 -0.0790
   55CHL1    H8 4011   3.034   3.456   7.476  1.4071 -1.2336  0.4279
   55CHL1   C14 4012   2.918   3.325   7.591  0.4249  0.1756 -0.5659
   55CHL1   H14 4013   2.865   3.229   7.570  2.4918 -1.1911  0.1501
   55CHL1   C15 4014   2.807   3.427   7.645  0.2792  0.0813 -0.2681
   55CHL1  H15A 4015   2.836   3.531   7.620 -1.0957  0.8309  1.0307
   55CHL1  H15B 4016   2.706   3.407   7.604 -1.0074 -0.5236  2.8763
   55CHL1   C16 4017   2.795   3.393   7.794  0.1900 -0.1995  0.2942
   55CHL1  H16A 4018   2.810   3.478   7.864 -1.4412  0.5562 -0.2193
   55CHL1  H16B 4019   2.695   3.357   7.827 -0.0937  2.5067  2.7742
   55CHL1   C17 4020   2.912   3.295   7.823  0.0399 -0.5040  0.0370
   55CHL1   H17 4021   2.867   3.194   7.813  1.8692 -1.5464  1.6119
   55CHL1   C13 4022   3.011   3.308   7.708 -0.4292 -0.3147  0.8192
   55CHL1   C18 4023   3.094   3.434   7.720  0.2543 -0.0428  0.4126
   55CHL1  H18A 4024   3.043   3.531   7.708  2.2736  0.8774 -1.4052
   55CHL1  H18B 4025   3.169   3.444   7.802  0.9189  1.5660 -0.3499
   55CHL1  H18C 4026   3.165   3.434   7.634 -0.7985  0.8348 -0.4772
   55CHL1   C12 4027   3.105   3.182   7.677  0.4050  0.1809  0.3676
   55CHL1  H12A 4028   3.178   3.158   7.758  0.1504  1.1376  0.8971
   55CHL1  H12B 4029   3.041   3.091   7.665 -1.2736  0.4268  5.3423
   55CHL1   C11 4030   3.179   3.196   7.547  0.6542 -0.7298  0.6511
   55CHL1  H11A 4031   3.266   3.263   7.559  2.0655 -1.6853 -2.8653
   55CHL1  H11B 4032   3.229   3.102   7.516 -3.0733 -1.9782 -2.4242
   55CHL1    C9 4033   3.087   3.250   7.431  0.9330 -0.4964  0.2269
   55CHL1    H9 4034   3.027   3.158   7.414  1.8759 -1.1727  0.5016
   55CHL1   C10 4035   3.152   3.274   7.291 -0.5295  0.0939  0.7937
   55CHL1   C19 4036   3.267   3.380   7.299 -0.4287  0.2351 -0.1270
   55CHL1  H19A 4037   3.222   3.481   7.304  0.7784  0.8967 -1.8962
   55CHL1  H19B 4038   3.335   3.376   7.387 -0.0065  1.6979 -0.3660
   55CHL1  H19C 4039   3.334   3.378   7.211 -0.8552  0.7010 -0.4654
   55CHL1    C1 4040   3.218   3.140   7.241 -0.1297  0.8809  0.5591
   55CHL1   H1A 4041   3.305   3.113   7.305 -0.3313 -1.8917 -0.2328
   55CHL1   H1B 4042   3.140   3.064   7.262 -0.7934  1.2784 -0.4331
   55CHL1    C2 4043   3.266   3.131   7.096 -0.1197  0.4350  0.3655
   55CHL1   H2A 4044   3.301   3.027   7.081  3.0945  1.3598  0.6894
   55CHL1   H2B 4045   3.350   3.202   7.081  0.1882 -0.4019 -2.5438
   55CHL1   C20 4046   2.976   3.314   7.968  0.4799  0.8670 -0.0165
   55CHL1   H20 4047   3.005   3.420   7.979  0.8353  0.5084  3.7740
   55CHL1   C21 4048   3.094   3.217   7.988 -0.3612 -0.7287  0.8557
   55CHL1  H21A 4049   3.184   3.261   7.940 -0.6837 -1.1441 -0.1560
   55CHL1  H21B 4050   3.069   3.120   7.940  1.1330  0.4160 -2.5290
   55CHL1  H21C 4051   3.112   3.187   8.094 -0.3253 -0.4481  0.9296
   55CHL1   C22 4052   2.868   3.288   8.079 -0.4196  0.6399 -0.6680
   55CHL1  H22A 4053   2.774   3.347   8.077 -2.9433 -2.8063  2.2850
   55CHL1  H22B 4054   2.845   3.179   8.072  1.5684  0.0904  0.3854
   55CHL1   C23 4055   2.924   3.316   8.228 -0.1076 -0.0521 -0.7694
   55CHL1  H23A 4056   3.014   3.253   8.241 -0.2370 -0.2669 -0.9094
   55CHL1  H23B 4057   2.955   3.422   8.240 -0.1527  0.2611 -2.9262
   55CHL1   C24 4058   2.809   3.282   8.327  0.2325 -0.3356  0.6339
   55CHL1  H24A 4059   2.729   3.357   8.310  0.6119 -0.1882 -0.6652
   55CHL1  H24B 4060   2.773   3.178   8.311  0.6093 -0.3943  0.0913
   55CHL1   C25 4061   2.849   3.273   8.471  0.1485  0.5788 -0.0608
   55CHL1   H25 4062   2.918   3.358   8.490  0.7088  0.1452 -0.1446
   55CHL1   C26 4063   2.728   3.267   8.572  1.1931  0.2403 -0.2502
   55CHL1  H26A 4064   2.776   3.277   8.671 -0.3169 -0.3222  0.5792
   55CHL1  H26B 4065   2.662   3.353   8.548  0.9725  0.1240 -0.0592
   55CHL1  H26C 4066   2.670   3.172   8.560  0.2319  0.7857 -0.0260
   55CHL1   C27 4067   2.927   3.145   8.504  0.0539  0.0648  0.0716
   55CHL1  H27A 4068   2.936   3.153   8.614  0.8751  1.4408 -0.0670
   55CHL1  H27B 4069   2.865   3.063   8.461  0.9794 -1.2620  1.1904
   55CHL1  H27C 4070   3.028   3.155   8.457  0.0658  4.7225  0.5760
   56CHL1    C3 4071   2.708   6.259   6.887 -0.3939  0.4952 -0.3591
   56CHL1    H3 4072   2.622   6.194   6.860 -0.4241 -0.2838  1.4802
   56CHL1    O3 4073   2.766   6.311   6.771 -0.1656 -0.1491 -0.0553
   56CHL1   H3' 4074   2.858   6.285   6.777 -0.2492 -0.1309  2.3888
   56CHL1    C4 4075   2.658   6.377   6.986 -0.1655 -0.3787 -0.0780
   56CHL1   H4A 4076   2.746   6.441   7.006 -1.9106  3.3619 -3.0125
   56CHL1   H4B 4077   2.581   6.435   6.931 -0.9586 -1.1572  0.1733
   56CHL1    C5 4078   2.611   6.319   7.120  0.2306 -0.2118  0.5694
   56CHL1    C6 4079   2.488   6.342   7.166  0.1318 -0.9616 -0.0081
   56CHL1    H6 4080   2.422   6.403   7.103 -1.2587 -0.7835  1.5763
   56CHL1    C7 4081   2.435   6.292   7.301 -0.2405  0.2320  0.0805
   56CHL1   H7A 4082   2.370   6.364   7.354  0.3857  0.9988 -0.1567
   56CHL1   H7B 4083   2.376   6.202   7.275  1.1536 -0.6030 -0.3330
   56CHL1    C8 4084   2.548   6.251   7.396 -0.2264 -0.3741  0.3515
   56CHL1    H8 4085   2.600   6.344   7.428  0.1044  0.1488 -1.5750
   56CHL1   C14 4086   2.499   6.186   7.524 -0.6262  0.6020 -0.1822
   56CHL1   H14 4087   2.446   6.091   7.500 -0.4998 -0.4053  3.0153
   56CHL1   C15 4088   2.399   6.258   7.617  0.3205 -0.4486 -0.6592
   56CHL1  H15A 4089   2.426   6.365   7.624 -1.5164  0.1773 -2.2340
   56CHL1  H15B 4090   2.300   6.251   7.567 -1.1442  0.0725  1.9899
   56CHL1   C16 4091   2.417   6.184   7.752 -0.6621  0.3554  0.3157
   56CHL1  H16A 4092   2.432   6.259   7.833  2.1620 -0.0035  0.2372
   56CHL1  H16B 4093   2.322   6.134   7.780 -1.2998  2.0132  1.2645
   56CHL1   C17 4094   2.539   6.083   7.734 -0.3852 -0.7534 -0.0102
   56CHL1   H17 4095   2.501   5.986   7.697 -1.9260  0.4242 -1.7056
   56CHL1   C13 4096   2.615   6.149   7.623  0.8639  0.5797  0.0763
   56CHL1   C18 4097   2.693   6.269   7.684  0.1532 -0.4553  0.2255
   56CHL1  H18A 4098   2.627   6.329   7.749  0.4727 -1.1216  1.1908
   56CHL1  H18B 4099   2.773   6.236   7.754 -1.6095 -1.8177  1.7217
   56CHL1  H18C 4100   2.743   6.328   7.605  0.7437 -0.7629  0.3580
   56CHL1   C12 4101   2.699   6.046   7.546 -0.1668  0.4892  0.2522
   56CHL1  H12A 4102   2.789   6.003   7.595  1.3914  1.8296 -1.2964
   56CHL1  H12B 4103   2.640   5.955   7.520  1.9984 -1.6950  2.4431
   56CHL1   C11 4104   2.765   6.106   7.415 -0.0225  0.8636  0.1520
   56CHL1  H11A 4105   2.841   6.178   7.453  2.5350 -2.3560  1.5449
   56CHL1  H11B 4106   2.820   6.023   7.366 -2.3050 -0.0724 -1.0094
   56CHL1    C9 4107   2.656   6.160   7.324 -0.1209 -0.1573  0.4475
   56CHL1    H9 4108   2.598   6.073   7.286 -1.5772  0.0513  2.0522
   56CHL1   C10 4109   2.718   6.234   7.200  0.4226 -0.6660  0.0501
   56CHL1   C19 4110   2.827   6.333   7.241  0.1331 -0.6602 -0.1881
   56CHL1  H19A 4111   2.873   6.380   7.152 -0.3961  1.3052  0.5001
   56CHL1  H19B 4112   2.780   6.420   7.292  3.4897  2.4067 -1.9274
   56CHL1  H19C 4113   2.911   6.296   7.304  1.0958 -0.5252 -1.3724
   56CHL1    C1 4114   2.778   6.122   7.101  0.2713 -0.4354  0.3282
   56CHL1   H1A 4115   2.874   6.085   7.143  0.8335 -0.7986 -1.2286
   56CHL1   H1B 4116   2.717   6.029   7.100  1.4059 -1.2251  1.1310
   56CHL1    C2 4117   2.810   6.172   6.959 -0.7364  0.5566 -0.2796
   56CHL1   H2A 4118   2.842   6.092   6.888  0.9497  1.5726 -0.7142
   56CHL1   H2B 4119   2.901   6.235   6.969 -0.5792  0.4484 -0.9496
   56CHL1   C20 4120   2.608   6.044   7.865  0.6455  0.4526  0.1784
   56CHL1   H20 4121   2.651   6.139   7.903  2.3500  0.2635 -1.1650
   56CHL1   C21 4122   2.731   5.954   7.848 -0.2531  0.1268  0.1860
   56CHL1  H21A 4123   2.761   5.896   7.938  2.2535  1.2279  0.1474
   56CHL1  H21B 4124   2.828   6.004   7.830  1.3927 -2.6390  0.7381
   56CHL1  H21C 4125   2.720   5.877   7.768  1.8111 -0.2366  0.1840
   56CHL1   C22 4126   2.513   5.978   7.970  0.1574 -0.0032  0.0176
   56CHL1  H22A 4127   2.411   6.022   7.965 -0.8790 -2.1224  0.9475
   56CHL1  H22B 4128   2.505   5.873   7.934 -0.3636  0.0492 -0.0309
   56CHL1   C23 4129   2.564   5.981   8.119  0.0191  0.3479  0.7752
   56CHL1  H23A 4130   2.662   5.927   8.123  0.1286  0.4968  0.1925
   56CHL1  H23B 4131   2.581   6.088   8.143 -0.9157  0.3352  1.5153
   56CHL1   C24 4132   2.458   5.925   8.212  0.5628  0.6614 -0.5435
   56CHL1  H24A 4133   2.352   5.952   8.191 -0.3030 -1.6232  0.5235
   56CHL1  H24B 4134   2.466   5.815   8.200 -0.1745  0.7483 -2.0943
   56CHL1   C25 4135   2.485   5.966   8.357  0.7611  0.1740 -0.1879
   56CHL1   H25 4136   2.579   5.923   8.398  0.9945  0.2393 -0.6546
   56CHL1   C26 4137   2.486   6.112   8.397  0.0537  0.2097 -0.1205
   56CHL1  H26A 4138   2.385   6.156   8.382  0.4632  1.3288  0.2232
   56CHL1  H26B 4139   2.564   6.166   8.339 -0.5107  1.9585  0.6804
   56CHL1  H26C 4140   2.501   6.114   8.507 -0.9390 -0.7096  0.0407
   56CHL1   C27 4141   2.376   5.889   8.440 -0.2424  0.2158 -1.0066
   56CHL1  H27A 4142   2.270   5.910   8.411 -0.8869 -3.2896 -1.6885
   56CHL1  H27B 4143   2.389   5.782   8.416 -1.8514 -0.8425  2.2981
   56CHL1  H27C 4144   2.385   5.894   8.550  1.1073 -1.0436 -1.0413
   57SAPC     N 4145   1.796   3.175  11.017 -0.0581 -0.3669  0.5323
   57SAPC   C12 4146   1.655   3.188  10.955 -0.2034 -0.1463  0.1054
   57SAPC  H12A 4147   1.638   3.287  10.916  1.2598  0.1848  0.2340
   57SAPC  H12B 4148   1.583   3.165  11.032 -1.6370  0.9174 -0.8634
   57SAPC   C13 4149   1.902   3.199  10.909 -0.0852  0.3678 -0.1026
   57SAPC  H13A 4150   1.876   3.289  10.857 -3.1341  0.9602  2.1409
   57SAPC  H13B 4151   2.000   3.208  10.954 -0.7248 -1.5725  1.8708
   57SAPC  H13C 4152   1.904   3.119  10.837 -0.5231 -0.6844  1.0119
   57SAPC   C14 4153   1.813   3.276  11.127 -0.0059 -0.1383  0.3067
   57SAPC  H14A 4154   1.738   3.283  11.204 -1.2465 -0.0163 -0.8706
   57SAPC  H14B 4155   1.906   3.247  11.173 -0.1152 -1.0125 -0.0025
   57SAPC  H14C 4156   1.834   3.372  11.081 -1.8690 -0.4322 -1.3014
   57SAPC   C15 4157   1.816   3.040  11.083 -0.2681  0.5662 -0.2176
   57SAPC  H15A 4158   1.911   3.044  11.133 -0.4008 -1.5773  0.2934
   57SAPC  H15B 4159   1.745   3.014  11.160 -1.4672 -3.8155 -2.4676
   57SAPC  H15C 4160   1.818   2.952  11.020 -2.4463 -0.9116  1.6182
   57SAPC   C11 4161   1.617   3.086  10.847  0.7078 -0.3204  0.3324
   57SAPC  H11A 4162   1.693   3.088  10.765 -1.2008 -0.4617 -1.5348
   57SAPC  H11B 4163   1.519   3.118  10.804  2.1412  2.2452 -1.3027
   57SAPC     P 4164   1.478   2.903  10.973 -0.0166 -0.2165 -0.1177
   57SAPC   O13 4165   1.512   2.814  11.085 -0.0288  0.4110  0.1501
   57SAPC   O14 4166   1.386   3.012  11.011 -0.0265 -0.0443 -0.2542
   57SAPC   O12 4167   1.607   2.958  10.904 -0.0754  0.1201 -0.6241
   57SAPC   O11 4168   1.398   2.823  10.865 -0.7224 -0.7545 -0.1267
   57SAPC    C1 4169   1.472   2.724  10.790  1.1351 -0.4594 -1.0764
   57SAPC    HA 4170   1.532   2.659  10.856  0.0969  1.1662  1.6195
   57SAPC    HB 4171   1.393   2.659  10.746 -2.0280  0.3188  2.9305
   57SAPC    C2 4172   1.553   2.776  10.665  0.0122 -0.4792  0.4548
   57SAPC    HS 4173   1.621   2.859  10.693  1.0239 -0.8733 -0.7627
   57SAPC   O21 4174   1.455   2.823  10.563 -0.2350  0.0229  0.1472
   57SAPC   C21 4175   1.499   2.918  10.485  0.3317  0.0786 -0.5027
   57SAPC   O22 4176   1.608   2.976  10.492  0.4533 -0.4597 -0.1730
   57SAPC   C22 4177   1.383   2.971  10.399  0.0564  0.3677 -0.8380
   57SAPC   H2R 4178   1.306   2.892  10.385  1.7416 -1.5713  0.2120
   57SAPC   H2S 4179   1.338   3.048  10.464  0.5670 -0.0053 -0.0244
   57SAPC    C3 4180   1.632   2.660  10.606  0.1977  0.6406 -0.4745
   57SAPC    HX 4181   1.556   2.584  10.578  1.2375 -0.8514  0.6105
   57SAPC    HY 4182   1.700   2.631  10.689  0.0938  1.9979  0.1187
   57SAPC   O31 4183   1.712   2.701  10.487  0.8322  0.3100  0.6349
   57SAPC   C31 4184   1.843   2.706  10.507 -0.0924  0.9318  0.9489
   57SAPC   O32 4185   1.888   2.717  10.616 -0.1428 -0.1814  0.3371
   57SAPC   C32 4186   1.914   2.673  10.372 -0.1882  0.8871  0.0914
   57SAPC   H2X 4187   1.844   2.654  10.288  1.3804  1.3674 -1.3575
   57SAPC   H2Y 4188   1.967   2.577  10.393 -0.6066  0.9055  1.3525
   57SAPC   C23 4189   1.430   3.041  10.271 -0.1401  0.9214 -0.4196
   57SAPC   H3R 4190   1.502   3.124  10.292  0.6164  0.0250  0.6553
   57SAPC   H3S 4191   1.342   3.085  10.220 -0.8308 -0.0951 -0.1417
   57SAPC   C24 4192   1.509   2.944  10.170  0.0329  0.2267 -0.8862
   57SAPC   H4R 4193   1.594   2.904  10.229  0.2635 -0.6214 -1.7642
   57SAPC   H4S 4194   1.544   3.004  10.082 -0.0244 -0.4776 -1.3980
   57SAPC   C25 4195   1.438   2.819  10.130  0.2439  0.3274  0.4002
   57SAPC   H5R 4196   1.413   2.756  10.216  1.8929 -1.4493 -0.3404
   57SAPC   C26 4197   1.370   2.800  10.014  0.2737  0.5256  0.5160
   57SAPC   H6R 4198   1.319   2.703   9.998  2.1976 -0.3496 -0.6043
   57SAPC   C27 4199   1.362   2.903   9.904 -0.1792  0.2119  0.8053
   57SAPC   H7R 4200   1.442   2.883   9.830 -0.8402 -0.7970  0.3437
   57SAPC   H7S 4201   1.360   3.006   9.947 -0.7231  0.8058 -0.5863
   57SAPC   C28 4202   1.236   2.886   9.818 -0.2135  0.4007  0.4446
   57SAPC   H8R 4203   1.147   2.839   9.863  0.1977 -0.1704  0.6726
   57SAPC   C29 4204   1.222   2.907   9.687 -0.1858  0.3945 -0.3132
   57SAPC   H9R 4205   1.122   2.880   9.647 -0.7562 -0.9277  1.8454
   57SAPC  C210 4206   1.341   2.956   9.600  0.4477 -0.1251 -0.2143
   57SAPC  H10R 4207   1.364   2.881   9.521 -1.0062 -1.2620  0.4012
   57SAPC  H10S 4208   1.429   2.986   9.660 -0.7929  2.8269  0.3188
   57SAPC  C211 4209   1.291   3.076   9.525  0.6076  0.0657 -0.8771
   57SAPC  H11R 4210   1.231   3.146   9.585 -0.4880 -1.0797 -0.5803
   57SAPC  C212 4211   1.295   3.109   9.396 -0.4792  0.0722  0.3748
   57SAPC  H12R 4212   1.269   3.212   9.368  0.6078  0.0781 -0.6732
   57SAPC  C213 4213   1.355   3.030   9.285 -0.1654  0.2164 -0.1136
   57SAPC  H13R 4214   1.429   2.961   9.331  0.9698 -0.2957 -2.5440
   57SAPC  H13S 4215   1.422   3.091   9.221  2.9184 -3.1788 -0.4725
   57SAPC  C214 4216   1.246   2.948   9.219 -0.4651  0.1745 -0.1434
   57SAPC  H14R 4217   1.195   2.888   9.296  2.4823 -1.5423  0.6633
   57SAPC  C215 4218   1.217   2.941   9.090  0.1869 -1.1839 -1.0709
   57SAPC  H15R 4219   1.131   2.879   9.061  1.3816 -3.8079  0.6172
   57SAPC  C216 4220   1.292   3.018   8.981  0.0937  0.2992  0.0385
   57SAPC  H16R 4221   1.346   2.954   8.909 -1.5384 -1.2021  0.0872
   57SAPC  H16S 4222   1.354   3.096   9.031 -1.7956  1.6277  0.4085
   57SAPC  C217 4223   1.193   3.101   8.904  0.6886 -0.4632  0.5905
   57SAPC  H17R 4224   1.247   3.177   8.843 -0.1311 -0.4318 -0.1164
   57SAPC  H17S 4225   1.150   3.172   8.979 -0.6078  0.7108 -1.1854
   57SAPC  C218 4226   1.099   3.021   8.809  0.3602 -0.4228 -0.3120
   57SAPC  H18R 4227   1.035   2.956   8.873  0.9936 -1.1820 -0.4460
   57SAPC  H18S 4228   1.161   2.946   8.756  1.0565  0.5439 -0.8945
   57SAPC  C219 4229   1.014   3.115   8.724  0.4174  0.2313 -0.2876
   57SAPC  H19R 4230   1.081   3.184   8.668 -0.7404 -0.2772 -2.4107
   57SAPC  H19S 4231   0.944   3.175   8.786  1.3078 -1.0900  2.1235
   57SAPC  C220 4232   0.924   3.030   8.636 -0.1555 -0.1958 -0.0405
   57SAPC  H20R 4233   0.831   3.002   8.690 -0.7396  0.3681 -0.7376
   57SAPC  H20S 4234   0.965   2.933   8.601 -1.5131 -0.0474 -2.2109
   57SAPC  H20T 4235   0.886   3.084   8.547 -0.7077 -0.3057  0.1221
   57SAPC   C33 4236   2.011   2.780  10.328  0.2533 -0.5482  0.3930
   57SAPC   H3X 4237   2.098   2.747  10.269  0.5977 -0.8121  1.0432
   57SAPC   H3Y 4238   2.070   2.827  10.410 -0.5870  1.0453  0.1260
   57SAPC   C34 4239   1.948   2.896  10.256 -0.3288  0.5423 -0.4350
   57SAPC   H4X 4240   1.987   2.985  10.309  4.0469 -1.3612 -0.0102
   57SAPC   H4Y 4241   1.837   2.887  10.267 -0.2259 -0.5066 -0.1502
   57SAPC   C35 4242   1.976   2.903  10.105 -0.5632 -0.4425  0.4066
   57SAPC   H5X 4243   2.005   2.800  10.074  1.1062 -0.0863  0.6678
   57SAPC   H5Y 4244   2.063   2.970  10.086  1.3268 -3.1718 -1.3788
   57SAPC   C36 4245   1.864   2.949  10.018  0.2605  0.4251  0.2210
   57SAPC   H6X 4246   1.843   3.057  10.036  0.3855  0.0815  2.7265
   57SAPC   H6Y 4247   1.773   2.898  10.056 -0.8294  2.3887  0.3700
   57SAPC   C37 4248   1.893   2.928   9.871  0.6585  0.0488  0.4933
   57SAPC   H7X 4249   1.911   2.822   9.842  0.1382 -0.5545  2.2365
   57SAPC   H7Y 4250   1.992   2.973   9.850  0.7505 -0.3793 -0.0117
   57SAPC   C38 4251   1.806   2.999   9.773  0.4490  0.1088  0.2314
   57SAPC   H8X 4252   1.783   3.101   9.810 -1.8949 -0.7302  1.2286
   57SAPC   H8Y 4253   1.705   2.955   9.766 -0.8739  2.6727  1.6011
   57SAPC   C39 4254   1.877   3.018   9.637  0.6884 -0.2359  0.1794
   57SAPC   H9X 4255   1.936   2.930   9.604  0.5976 -0.1943 -0.0928
   57SAPC   H9Y 4256   1.954   3.097   9.647  0.9778 -0.3571 -1.0144
   57SAPC  C310 4257   1.782   3.055   9.523  0.4247 -0.3543  0.3451
   57SAPC  H10X 4258   1.723   3.146   9.544 -0.8166 -1.1261  0.2606
   57SAPC  H10Y 4259   1.710   2.972   9.510 -2.5908  2.2718 -1.2404
   57SAPC  C311 4260   1.851   3.070   9.383 -0.1453 -1.0296  0.0981
   57SAPC  H11X 4261   1.931   2.995   9.368 -0.4447 -1.8260  2.1789
   57SAPC  H11Y 4262   1.897   3.171   9.387 -0.0677 -1.0559 -0.0959
   57SAPC  C312 4263   1.752   3.073   9.261  0.5587 -0.0929  0.0884
   57SAPC  H12X 4264   1.676   3.154   9.270  0.3134 -0.4033  0.9006
   57SAPC  H12Y 4265   1.697   2.977   9.272  3.3610 -1.6627  1.7568
   57SAPC  C313 4266   1.823   3.079   9.126 -0.1703  0.3308 -0.0779
   57SAPC  H13X 4267   1.893   2.993   9.114 -2.2364 -1.3016 -1.0239
   57SAPC  H13Y 4268   1.888   3.169   9.126 -1.2252  1.1124 -1.1644
   57SAPC  C314 4269   1.726   3.073   9.008  0.2110 -0.1575  0.3668
   57SAPC  H14X 4270   1.660   3.163   9.012 -1.6674 -1.4924  3.2986
   57SAPC  H14Y 4271   1.655   2.987   9.011 -2.0555  1.5304 -1.2704
   57SAPC  C315 4272   1.805   3.065   8.879  0.9287  0.1292  0.8767
   57SAPC  H15X 4273   1.862   2.971   8.890 -1.4008 -1.3195  1.2975
   57SAPC  H15Y 4274   1.882   3.145   8.873  0.6758  0.3464  0.4556
   57SAPC  C316 4275   1.712   3.047   8.763 -0.0665  1.0286 -0.5471
   57SAPC  H16X 4276   1.782   3.057   8.678 -1.0649  0.3963 -1.4721
   57SAPC  H16Y 4277   1.641   3.133   8.766  0.3146  1.3743  2.7507
   57SAPC  C317 4278   1.645   2.911   8.746  0.0238  0.3061  0.0412
   57SAPC  H17X 4279   1.585   2.886   8.836  0.5999  0.7567  0.5607
   57SAPC  H17Y 4280   1.729   2.840   8.728 -0.4565 -0.3470  0.3314
   57SAPC  C318 4281   1.562   2.909   8.618 -0.6127  0.5003  0.4852
   57SAPC  H18X 4282   1.555   2.803   8.585  0.2976  0.5213  0.1764
   57SAPC  H18Y 4283   1.616   2.953   8.531  0.7971 -0.3744  0.8806
   57SAPC  H18Z 4284   1.466   2.961   8.637  0.1090  1.9745  0.2273
   58SAPC     N 4285   3.100   0.811  11.088  0.3593  0.3208  0.0493
   58SAPC   C12 4286   3.116   0.674  11.034  0.1581  1.2796  0.0150
   58SAPC  H12A 4287   3.093   0.604  11.113  0.2029  0.7251 -0.4487
   58SAPC  H12B 4288   3.220   0.667  11.004 -0.0117 -1.1001 -0.2649
   58SAPC   C13 4289   3.174   0.821  11.213 -0.1000  0.1030  0.5459
   58SAPC  H13A 4290   3.116   0.769  11.288 -0.1472 -2.9774 -1.4204
   58SAPC  H13B 4291   3.265   0.763  11.205 -0.2028 -0.1230  0.9844
   58SAPC  H13C 4292   3.189   0.921  11.250 -0.9922  0.1087  0.9047
   58SAPC   C14 4293   3.162   0.908  10.991 -0.3060 -0.4048 -0.1020
   58SAPC  H14A 4294   3.117   0.892  10.894 -2.2208  0.6330  0.5541
   58SAPC  H14B 4295   3.157   1.007  11.034  0.3069 -0.4577  0.1029
   58SAPC  H14C 4296   3.267   0.885  10.980 -0.3418 -0.1618 -1.0616
   58SAPC   C15 4297   2.960   0.847  11.099 -0.0558  0.8706  0.2208
   58SAPC  H15A 4298   2.910   0.807  11.186  0.3923 -0.8043 -0.2551
   58SAPC  H15B 4299   2.946   0.953  11.110 -2.6622  0.8334 -1.7065
   58SAPC  H15C 4300   2.902   0.825  11.010  0.3523  1.7001 -0.2617
   58SAPC   C11 4301   3.032   0.633  10.912  0.1018 -0.3799  0.4034
   58SAPC  H11A 4302   3.088   0.548  10.867  0.8140 -0.2379  0.9911
   58SAPC  H11B 4303   3.050   0.708  10.832 -1.3254 -1.4535 -1.0097
   58SAPC     P 4304   2.855   0.478  11.006 -0.0276 -0.0518 -0.2902
   58SAPC   O13 4305   2.900   0.489  11.147 -0.0938  0.9294 -0.3411
   58SAPC   O14 4306   2.714   0.460  10.999  0.3308 -0.0266  0.3144
   58SAPC   O12 4307   2.890   0.609  10.922 -0.4698  0.5742  0.4058
   58SAPC   O11 4308   2.931   0.361  10.942 -0.3315  0.0691  0.0922
   58SAPC    C1 4309   2.854   0.248  10.890  0.0766 -0.0095 -0.7386
   58SAPC    HA 4310   2.866   0.168  10.967 -0.7028  2.1127  1.7498
   58SAPC    HB 4311   2.745   0.265  10.894 -0.5145 -3.2552  1.7094
   58SAPC    C2 4312   2.901   0.206  10.754  0.6155  1.0857  0.6750
   58SAPC    HS 4313   3.004   0.165  10.747 -0.4630 -1.6024 -0.6112
   58SAPC   O21 4314   2.882   0.317  10.663  0.1570 -0.0534 -0.2807
   58SAPC   C21 4315   2.983   0.395  10.642  0.2463  0.3770 -0.3181
   58SAPC   O22 4316   3.102   0.370  10.684 -0.3618 -0.1452  0.1630
   58SAPC   C22 4317   2.932   0.529  10.572  0.2848  0.2718  0.0646
   58SAPC   H2R 4318   2.864   0.504  10.488 -1.6993 -0.5526  1.8237
   58SAPC   H2S 4319   2.867   0.562  10.656  2.5375 -1.2371  2.5568
   58SAPC    C3 4320   2.808   0.085  10.713 -0.1973  0.7663  0.0541
   58SAPC    HX 4321   2.699   0.108  10.714 -0.5319 -0.7150  0.1732
   58SAPC    HY 4322   2.813   0.004  10.788  0.1090  0.1556 -0.6137
   58SAPC   O31 4323   2.851   0.038  10.585 -1.0276  0.3411 -0.0486
   58SAPC   C31 4324   2.798   0.097  10.481  0.2485 -0.2129  0.2438
   58SAPC   O32 4325   2.717   0.189  10.477 -0.0334 -0.0579  0.3364
   58SAPC   C32 4326   2.862   0.029  10.360  0.1670  0.0894 -0.7960
   58SAPC   H2X 4327   2.853  -0.082  10.365  2.3535 -0.1476 -1.3352
   58SAPC   H2Y 4328   2.966   0.066  10.361  0.3367 -0.3678  1.1368
   58SAPC   C23 4329   3.025   0.637  10.538  0.1235  0.1805  0.3437
   58SAPC   H3R 4330   3.116   0.634  10.602  0.6772  0.0427 -0.4396
   58SAPC   H3S 4331   2.972   0.735  10.549 -0.0641  0.3062 -1.3966
   58SAPC   C24 4332   3.067   0.639  10.392 -0.4794 -0.2301 -0.0477
   58SAPC   H4R 4333   3.117   0.736  10.368  0.7373 -0.5131  1.2281
   58SAPC   H4S 4334   2.978   0.620  10.328 -2.0888 -1.1867  2.3657
   58SAPC   C25 4335   3.162   0.526  10.370  0.5244 -0.5155 -0.0635
   58SAPC   H5R 4336   3.217   0.495  10.459 -0.2290 -1.5279  0.0657
   58SAPC   C26 4337   3.181   0.452  10.258  0.3686  0.0557  1.3188
   58SAPC   H6R 4338   3.263   0.379  10.259  1.4707  1.1269 -1.4132
   58SAPC   C27 4339   3.122   0.467  10.122 -0.1274  0.1040  0.4948
   58SAPC   H7R 4340   3.012   0.474  10.138 -0.4275  0.2560 -1.4382
   58SAPC   H7S 4341   3.148   0.376  10.065 -1.0588  0.9573 -1.3874
   58SAPC   C28 4342   3.173   0.592  10.049  1.0211  0.0373  0.3013
   58SAPC   H8R 4343   3.238   0.658  10.108  3.3669 -2.6945  1.0421
   58SAPC   C29 4344   3.160   0.625   9.920  0.3673  0.5369 -0.6517
   58SAPC   H9R 4345   3.211   0.715   9.884  0.9929 -0.7173 -3.1607
   58SAPC  C210 4346   3.098   0.541   9.816  0.5952 -0.1949  0.2051
   58SAPC  H10R 4347   3.065   0.443   9.857  0.7094  0.2933  1.5093
   58SAPC  H10S 4348   3.189   0.518   9.756  1.3391 -0.8963  1.5281
   58SAPC  C211 4349   2.989   0.605   9.739  0.5862  0.2031  0.0354
   58SAPC  H11R 4350   2.911   0.654   9.800 -0.8121 -0.5416 -1.0994
   58SAPC  C212 4351   2.976   0.607   9.607  0.0243 -0.0036 -0.1608
   58SAPC  H12R 4352   2.880   0.655   9.580 -0.6896 -0.1422  1.8895
   58SAPC  C213 4353   3.066   0.550   9.504 -0.1447  0.3953  0.6722
   58SAPC  H13R 4354   3.009   0.475   9.447 -1.4699  0.9050  1.2948
   58SAPC  H13S 4355   3.149   0.486   9.541  0.5899  0.6847 -0.4310
   58SAPC  C214 4356   3.120   0.656   9.415 -0.8285  0.1777 -0.7501
   58SAPC  H14R 4357   3.147   0.747   9.472  0.9320  0.5304 -2.0513
   58SAPC  C215 4358   3.150   0.643   9.282 -0.3200  0.5952 -0.6457
   58SAPC  H15R 4359   3.199   0.729   9.232 -1.4948  0.7136 -1.6366
   58SAPC  C216 4360   3.123   0.519   9.202 -0.1376  0.1767 -0.3220
   58SAPC  H16R 4361   3.030   0.466   9.232 -1.6876  2.1723 -1.4119
   58SAPC  H16S 4362   3.206   0.447   9.219 -1.3411 -1.4989 -1.2106
   58SAPC  C217 4363   3.126   0.547   9.057  0.1083 -0.4238 -1.2589
   58SAPC  H17R 4364   3.223   0.594   9.030 -0.8010  2.2215 -0.2821
   58SAPC  H17S 4365   3.037   0.604   9.022 -0.7281 -1.0066 -0.1361
   58SAPC  C218 4366   3.120   0.415   8.982  0.3862  0.2683 -0.2387
   58SAPC  H18R 4367   3.019   0.376   9.005  1.3517 -2.6081 -0.4620
   58SAPC  H18S 4368   3.201   0.348   9.020  0.2974 -0.8385 -1.9014
   58SAPC  C219 4369   3.151   0.433   8.827 -0.0202  0.2211  0.3294
   58SAPC  H19R 4370   3.124   0.340   8.771 -0.6861  0.9714 -0.6250
   58SAPC  H19S 4371   3.262   0.440   8.819  0.0068 -1.8177 -3.1895
   58SAPC  C220 4372   3.088   0.557   8.758 -0.0967 -0.5951  0.3129
   58SAPC  H20R 4373   3.097   0.544   8.648  2.4951  0.8630  0.2965
   58SAPC  H20S 4374   3.143   0.652   8.774 -0.6217 -0.3871  0.9315
   58SAPC  H20T 4375   2.985   0.567   8.799 -0.8358 -1.3464 -1.2404
   58SAPC   C33 4376   2.798   0.085  10.236 -0.0992 -0.0431  0.1047
   58SAPC   H3X 4377   2.813   0.192  10.214  1.8137 -0.2980 -0.0505
   58SAPC   H3Y 4378   2.692   0.054  10.221 -0.6291  2.2241 -1.2233
   58SAPC   C34 4379   2.864   0.022  10.105 -0.0030 -0.3166 -0.3602
   58SAPC   H4X 4380   2.909  -0.076  10.131  1.1988  0.1348 -0.6167
   58SAPC   H4Y 4381   2.948   0.092  10.080 -0.4331  1.1227  1.9060
   58SAPC   C35 4382   2.764   0.012   9.987 -0.0178 -0.1923 -0.6262
   58SAPC   H5X 4383   2.752   0.119   9.960 -0.5275 -0.1744 -0.3290
   58SAPC   H5Y 4384   2.682  -0.043  10.036  2.1824 -1.9001  1.3938
   58SAPC   C36 4385   2.822  -0.062   9.865 -0.7231 -0.3022  0.1446
   58SAPC   H6X 4386   2.858  -0.162   9.895  1.4094 -0.1565 -1.7019
   58SAPC   H6Y 4387   2.912  -0.003   9.839 -0.3591  0.1933  2.3076
   58SAPC   C37 4388   2.741  -0.045   9.737  0.0531  0.0953 -0.2165
   58SAPC   H7X 4389   2.708   0.053   9.695  0.1275  0.5909  0.8590
   58SAPC   H7Y 4390   2.649  -0.106   9.756  0.7586 -0.1391  2.9425
   58SAPC   C38 4391   2.813  -0.102   9.607  0.6510  0.9235 -0.4075
   58SAPC   H8X 4392   2.848  -0.203   9.635 -1.9977 -0.0464 -0.2946
   58SAPC   H8Y 4393   2.907  -0.048   9.580  2.9046 -1.5051  1.9921
   58SAPC   C39 4394   2.713  -0.133   9.493 -0.6756  0.4278  0.2956
   58SAPC   H9X 4395   2.685  -0.036   9.448 -1.5532 -0.6671 -1.6510
   58SAPC   H9Y 4396   2.622  -0.176   9.540  0.2673 -1.3292  0.6057
   58SAPC  C310 4397   2.768  -0.224   9.382  0.0591 -0.2772  0.0638
   58SAPC  H10X 4398   2.803  -0.327   9.408 -1.6590 -0.9623 -0.2355
   58SAPC  H10Y 4399   2.851  -0.169   9.332 -0.8487  0.9894 -0.0996
   58SAPC  C311 4400   2.670  -0.251   9.266  0.2242 -0.2665  0.1901
   58SAPC  H11X 4401   2.624  -0.157   9.229 -0.6075 -1.6006 -2.4356
   58SAPC  H11Y 4402   2.581  -0.307   9.302 -0.3551 -1.1192 -2.3427
   58SAPC  C312 4403   2.720  -0.328   9.142  0.0715 -0.0920 -1.1312
   58SAPC  H12X 4404   2.646  -0.319   9.060 -1.2602  0.4795  0.0890
   58SAPC  H12Y 4405   2.723  -0.434   9.173  2.1911  0.5461  1.2359
   58SAPC  C313 4406   2.855  -0.281   9.085 -0.5522 -0.2686 -0.4981
   58SAPC  H13X 4407   2.883  -0.358   9.009  1.0465 -1.7541  1.4961
   58SAPC  H13Y 4408   2.935  -0.289   9.161 -0.8921 -1.7839 -0.2536
   58SAPC  C314 4409   2.844  -0.143   9.027 -0.7193 -0.1417 -0.1847
   58SAPC  H14X 4410   2.841  -0.066   9.107  1.2425  0.4263 -0.6099
   58SAPC  H14Y 4411   2.758  -0.123   8.958 -1.1652  2.6332  1.0213
   58SAPC  C315 4412   2.965  -0.099   8.949  0.2825  0.0115  0.1375
   58SAPC  H15X 4413   3.054  -0.127   9.011  0.6276 -0.5448 -0.5923
   58SAPC  H15Y 4414   2.964   0.012   8.942 -0.9056 -0.0471 -0.9661
   58SAPC  C316 4415   2.993  -0.153   8.813 -0.0037  0.4511 -0.0616
   58SAPC  H16X 4416   2.906  -0.134   8.747  0.3369  0.6946 -0.4495
   58SAPC  H16Y 4417   3.009  -0.262   8.805 -0.6780  0.2521  1.0985
   58SAPC  C317 4418   3.122  -0.095   8.743 -0.0755  0.5637  0.3951
   58SAPC  H17X 4419   3.208  -0.161   8.768  0.1540  0.4743 -0.5751
   58SAPC  H17Y 4420   3.145   0.007   8.778  2.7206 -0.1284  0.7774
   58SAPC  C318 4421   3.110  -0.105   8.591  0.2984  0.3589  0.0708
   58SAPC  H18X 4422   3.018  -0.057   8.553 -0.1691  1.0650  1.9834
   58SAPC  H18Y 4423   3.103  -0.208   8.551 -0.2389  0.8695 -1.2102
   58SAPC  H18Z 4424   3.190  -0.041   8.547  2.1294 -1.1426  1.0646
   59SAPC     N 4425   5.610   3.851  11.373 -0.3840 -0.1612  0.4066
   59SAPC   C12 4426   5.759   3.831  11.339 -0.1881 -0.3301 -0.2183
   59SAPC  H12A 4427   5.814   3.878  11.419  0.0062 -1.3649  0.2754
   59SAPC  H12B 4428   5.790   3.884  11.251  0.0841 -0.2692 -0.0871
   59SAPC   C13 4429   5.573   3.782  11.502  0.3361 -0.6032  0.1039
   59SAPC  H13A 4430   5.473   3.808  11.534  0.8417  0.9802  0.4495
   59SAPC  H13B 4431   5.553   3.676  11.495 -2.2703 -0.1437 -0.6785
   59SAPC  H13C 4432   5.639   3.809  11.582  1.3209  3.4607 -1.8490
   59SAPC   C14 4433   5.592   3.994  11.379 -0.0245  0.1522  0.2766
   59SAPC  H14A 4434   5.494   4.034  11.401  0.4256  3.0125 -2.2000
   59SAPC  H14B 4435   5.654   4.042  11.454 -0.0844 -0.1303  0.5102
   59SAPC  H14C 4436   5.618   4.037  11.284  0.4141 -0.6812  0.0131
   59SAPC   C15 4437   5.525   3.801  11.257 -0.1294 -0.4403 -0.5071
   59SAPC  H15A 4438   5.419   3.823  11.260 -0.8838 -3.5948 -0.5912
   59SAPC  H15B 4439   5.557   3.832  11.158 -2.1848 -1.0355 -1.4081
   59SAPC  H15C 4440   5.533   3.693  11.262  0.6326 -0.4930 -2.1791
   59SAPC   C11 4441   5.815   3.684  11.328  0.6270 -0.2250  0.1475
   59SAPC  H11A 4442   5.803   3.627  11.423  1.3348 -0.3434  0.1738
   59SAPC  H11B 4443   5.925   3.689  11.319  0.7746 -0.2417  1.6497
   59SAPC     P 4444   5.707   3.465  11.231  0.1765 -0.0279  0.2245
   59SAPC   O13 4445   5.808   3.369  11.275  0.4555 -0.2706 -0.5534
   59SAPC   O14 4446   5.582   3.469  11.308 -0.1486  0.4136 -0.4726
   59SAPC   O12 4447   5.761   3.614  11.213 -0.2047 -0.4197 -0.1921
   59SAPC   O11 4448   5.657   3.433  11.082  0.4024 -0.9327 -0.3334
   59SAPC    C1 4449   5.750   3.451  10.971  0.3583 -0.2969 -0.0719
   59SAPC    HA 4450   5.802   3.549  10.960  0.4558 -0.2641  0.6397
   59SAPC    HB 4451   5.825   3.372  10.991 -3.6164 -3.2107  6.3148
   59SAPC    C2 4452   5.673   3.437  10.836 -0.7110 -0.2788  0.1520
   59SAPC    HS 4453   5.584   3.377  10.862 -1.0153  0.0932 -0.0047
   59SAPC   O21 4454   5.767   3.387  10.729  0.2928 -0.1271 -0.2838
   59SAPC   C21 4455   5.704   3.300  10.644  0.0085  0.6899 -0.0331
   59SAPC   O22 4456   5.597   3.246  10.663  0.3496  0.0392 -0.1978
   59SAPC   C22 4457   5.794   3.293  10.524 -0.1304 -0.6301 -0.2577
   59SAPC   H2R 4458   5.818   3.398  10.499  0.9496 -1.0990 -1.2992
   59SAPC   H2S 4459   5.891   3.247  10.555 -2.0472 -3.5340  1.9201
   59SAPC    C3 4460   5.616   3.575  10.794  0.5272 -0.1799  0.0195
   59SAPC    HX 4461   5.702   3.636  10.761  1.2302 -1.0062  0.3046
   59SAPC    HY 4462   5.560   3.624  10.876 -1.8173 -0.6132 -1.2319
   59SAPC   O31 4463   5.534   3.562  10.673 -0.6722 -0.0954  0.0759
   59SAPC   C31 4464   5.409   3.506  10.690 -0.1126 -0.0763 -0.5258
   59SAPC   O32 4465   5.365   3.480  10.800  0.9796 -0.4881 -0.2756
   59SAPC   C32 4466   5.352   3.477  10.550  0.1938 -0.0879 -0.4230
   59SAPC   H2X 4467   5.432   3.491  10.474 -0.2020 -0.0984 -0.8517
   59SAPC   H2Y 4468   5.270   3.550  10.532  0.6505  0.3620 -0.6996
   59SAPC   C23 4469   5.742   3.217  10.405 -0.5355 -0.3881 -0.0750
   59SAPC   H3R 4470   5.639   3.250  10.377 -0.8616 -0.3959  1.0514
   59SAPC   H3S 4471   5.732   3.109  10.428 -0.0710  0.0130  2.2304
   59SAPC   C24 4472   5.830   3.206  10.282 -0.8190  0.0168  0.2794
   59SAPC   H4R 4473   5.791   3.127  10.214  2.8828 -0.7094 -1.2425
   59SAPC   H4S 4474   5.932   3.175  10.313 -0.7811 -2.0261 -1.6891
   59SAPC   C25 4475   5.830   3.336  10.201  0.5252  0.4544 -0.6344
   59SAPC   H5R 4476   5.886   3.422  10.242 -1.0980  0.8260  0.9980
   59SAPC   C26 4477   5.772   3.358  10.078 -0.0842  0.2188  0.2286
   59SAPC   H6R 4478   5.783   3.460  10.039 -0.3425 -0.2608 -1.1340
   59SAPC   C27 4479   5.712   3.244  10.001  0.5487  0.5439  0.4093
   59SAPC   H7R 4480   5.643   3.183  10.062  0.0144  0.8788  0.1432
   59SAPC   H7S 4481   5.791   3.172   9.969 -1.9211 -1.9604 -0.5040
   59SAPC   C28 4482   5.648   3.298   9.869  0.0544  0.3634 -0.0941
   59SAPC   H8R 4483   5.552   3.353   9.871 -0.0773  0.1130  0.7767
   59SAPC   C29 4484   5.685   3.272   9.742 -0.2036  0.1900 -0.5808
   59SAPC   H9R 4485   5.629   3.310   9.655  2.1469  1.0680 -1.7735
   59SAPC  C210 4486   5.799   3.180   9.702 -0.0479 -1.0428  0.4817
   59SAPC  H10R 4487   5.753   3.102   9.639  0.9538 -0.7525 -0.6347
   59SAPC  H10S 4488   5.863   3.142   9.785  0.4804 -0.6472  0.2623
   59SAPC  C211 4489   5.882   3.257   9.610 -0.2289 -0.3596 -0.0231
   59SAPC  H11R 4490   5.959   3.303   9.673 -0.7747 -0.8610  1.0415
   59SAPC  C212 4491   5.864   3.281   9.480  0.0382  0.0745  0.4472
   59SAPC  H12R 4492   5.952   3.323   9.429  0.3836  1.9450  2.4374
   59SAPC  C213 4493   5.764   3.234   9.385 -0.4727 -0.0602 -0.3785
   59SAPC  H13R 4494   5.663   3.263   9.422 -0.2891  1.9751 -1.3393
   59SAPC  H13S 4495   5.779   3.123   9.383 -0.2280 -0.1473  2.3965
   59SAPC  C214 4496   5.782   3.302   9.251 -0.0451  0.1675 -0.0506
   59SAPC  H14R 4497   5.738   3.402   9.239 -2.3036 -0.8200 -0.5224
   59SAPC  C215 4498   5.847   3.245   9.144  0.6437 -0.4726  0.1794
   59SAPC  H15R 4499   5.860   3.314   9.060  0.4933  0.8976  1.2462
   59SAPC  C216 4500   5.911   3.113   9.136  0.1139 -0.0388  0.2270
   59SAPC  H16R 4501   5.914   3.069   9.237  2.0811  0.1530  0.2860
   59SAPC  H16S 4502   6.009   3.127   9.087  0.0614 -1.7769 -0.4520
   59SAPC  C217 4503   5.822   3.013   9.061 -0.4989 -0.8649  0.3048
   59SAPC  H17R 4504   5.724   2.986   9.107 -0.7534 -0.7664 -0.1752
   59SAPC  H17S 4505   5.875   2.916   9.076 -0.1150 -0.7781 -0.4639
   59SAPC  C218 4506   5.793   3.025   8.909 -0.4041  0.1939 -0.4286
   59SAPC  H18R 4507   5.789   3.135   8.892 -0.9087 -0.0285 -1.8431
   59SAPC  H18S 4508   5.699   2.970   8.889 -0.6925 -0.1081  1.5255
   59SAPC  C219 4509   5.909   2.967   8.828 -0.1973 -0.0209 -0.0486
   59SAPC  H19R 4510   5.920   2.857   8.816  0.4439  0.0381 -0.0592
   59SAPC  H19S 4511   6.005   2.985   8.880 -0.8448 -3.3385  2.6416
   59SAPC  C220 4512   5.921   3.034   8.688  1.3192  0.2405  0.6226
   59SAPC  H20R 4513   5.929   3.144   8.698 -1.0147  0.5528 -0.2905
   59SAPC  H20S 4514   5.836   3.017   8.619  2.8707 -1.3173 -1.0101
   59SAPC  H20T 4515   6.007   2.996   8.629  0.4425 -0.8072 -0.0183
   59SAPC   C33 4516   5.304   3.328  10.533 -0.5991 -0.0320 -0.7179
   59SAPC   H3X 4517   5.235   3.300  10.616 -1.7370 -1.4480 -2.0944
   59SAPC   H3Y 4518   5.391   3.261  10.516  0.8520  2.2363 -2.9464
   59SAPC   C34 4519   5.213   3.312  10.406  0.8547 -0.1340 -0.2949
   59SAPC   H4X 4520   5.113   3.358  10.417  0.1216 -1.4873 -1.0197
   59SAPC   H4Y 4521   5.195   3.203  10.395  2.4585 -0.4018 -0.6295
   59SAPC   C35 4522   5.279   3.368  10.279  0.2635  0.3725 -1.0828
   59SAPC   H5X 4523   5.379   3.320  10.284  0.7247  1.2283 -1.9476
   59SAPC   H5Y 4524   5.290   3.477  10.264 -3.1122  0.8025 -1.1411
   59SAPC   C36 4525   5.204   3.311  10.162  0.1573  0.1607 -0.1283
   59SAPC   H6X 4526   5.096   3.340  10.159  0.5673  1.7088 -1.5608
   59SAPC   H6Y 4527   5.196   3.202  10.181  0.5379  0.3844  1.4616
   59SAPC   C37 4528   5.249   3.360  10.026  0.0095  0.6159 -0.4436
   59SAPC   H7X 4529   5.360   3.369  10.025 -0.0454  1.5594 -2.1638
   59SAPC   H7Y 4530   5.214   3.460   9.993  0.2646  0.5367 -0.9633
   59SAPC   C38 4531   5.211   3.256   9.917 -0.1059 -0.1295 -0.3030
   59SAPC   H8X 4532   5.100   3.255   9.904 -0.0140  0.9629 -1.4086
   59SAPC   H8Y 4533   5.247   3.153   9.933 -0.2803 -0.1404  0.0287
   59SAPC   C39 4534   5.268   3.287   9.778  0.0399  1.0046 -0.2684
   59SAPC   H9X 4535   5.380   3.290   9.779  0.1206 -0.8550  0.6153
   59SAPC   H9Y 4536   5.225   3.387   9.757 -2.5498  0.5660  2.4082
   59SAPC  C310 4537   5.232   3.196   9.664  0.3225 -0.5341 -0.1660
   59SAPC  H10X 4538   5.123   3.197   9.644  0.1666 -2.1216  0.4272
   59SAPC  H10Y 4539   5.263   3.091   9.684  2.1808 -1.0317 -4.4472
   59SAPC  C311 4540   5.286   3.249   9.528  0.8833  0.7663 -0.6523
   59SAPC  H11X 4541   5.390   3.284   9.545  0.4189  1.9949 -0.2657
   59SAPC  H11Y 4542   5.230   3.335   9.486 -0.4776  0.0762 -0.3229
   59SAPC  C312 4543   5.291   3.126   9.434  0.7170 -0.0325 -0.0136
   59SAPC  H12X 4544   5.186   3.095   9.416  1.1917 -1.7239 -0.0408
   59SAPC  H12Y 4545   5.343   3.048   9.494  1.2607 -0.0644 -0.5232
   59SAPC  C313 4546   5.349   3.167   9.300  0.3269 -0.1035  0.7970
   59SAPC  H13X 4547   5.441   3.229   9.304 -0.4122  1.1034  0.0108
   59SAPC  H13Y 4548   5.267   3.219   9.245 -0.0497 -3.4772 -2.1959
   59SAPC  C314 4549   5.385   3.044   9.207 -0.3656 -0.0681  0.0180
   59SAPC  H14X 4550   5.285   3.004   9.180 -1.4497  3.4132 -1.6663
   59SAPC  H14Y 4551   5.432   2.975   9.281  2.2464  2.1240  0.5893
   59SAPC  C315 4552   5.468   3.076   9.084  0.6152 -0.1320  0.0673
   59SAPC  H15X 4553   5.471   2.989   9.016  1.3805 -0.4627  0.5148
   59SAPC  H15Y 4554   5.571   3.111   9.106 -0.3078  2.7127  0.3218
   59SAPC  C316 4555   5.404   3.198   9.011  0.5341 -0.1341  0.1810
   59SAPC  H16X 4556   5.466   3.222   8.922 -0.3356  0.9254 -0.1672
   59SAPC  H16Y 4557   5.410   3.292   9.070 -0.7754  1.6859 -2.4033
   59SAPC  C317 4558   5.266   3.177   8.967  0.4097 -0.0444  0.8261
   59SAPC  H17X 4559   5.228   3.266   8.912  0.5956 -1.5176 -1.8803
   59SAPC  H17Y 4560   5.207   3.148   9.057  0.8284  0.9760  1.4495
   59SAPC  C318 4561   5.259   3.060   8.863 -0.0334  0.4202 -0.7075
   59SAPC  H18X 4562   5.337   3.065   8.784  0.7711  3.2601  0.1296
   59SAPC  H18Y 4563   5.162   3.061   8.809  0.2063  0.0557 -1.1529
   59SAPC  H18Z 4564   5.276   2.963   8.913 -1.2761 -0.4095 -1.8383
   60SAPC     N 4565   5.606   0.552  10.902 -0.2743  0.2241 -0.6807
   60SAPC   C12 4566   5.537   0.598  10.770 -0.7281 -0.4290  0.2143
   60SAPC  H12A 4567   5.433   0.568  10.766 -0.5659 -0.9968  0.0913
   60SAPC  H12B 4568   5.582   0.548  10.686 -2.1176  2.7251 -2.6274
   60SAPC   C13 4569   5.596   0.400  10.901 -0.7978  0.1145  0.0134
   60SAPC  H13A 4570   5.606   0.360  11.001  1.0271  1.7349  0.5538
   60SAPC  H13B 4571   5.495   0.372  10.879 -0.7053 -0.8179  0.7021
   60SAPC  H13C 4572   5.663   0.355  10.829 -0.4692 -0.5993  0.7405
   60SAPC   C14 4573   5.746   0.583  10.895  0.2737 -0.7761 -0.0080
   60SAPC  H14A 4574   5.789   0.559  10.992 -0.6335  1.4126  0.9985
   60SAPC  H14B 4575   5.797   0.536  10.812 -3.4492 -1.4533 -2.1057
   60SAPC  H14C 4576   5.772   0.687  10.880  1.2997 -0.9890  0.1493
   60SAPC   C15 4577   5.533   0.603  11.023 -0.2405 -0.2358 -0.4282
   60SAPC  H15A 4578   5.528   0.710  11.010 -0.3192 -0.3843 -1.7059
   60SAPC  H15B 4579   5.432   0.567  11.027  0.2194 -1.4783  1.2503
   60SAPC  H15C 4580   5.582   0.587  11.118 -0.9996  1.6113  0.3403
   60SAPC   C11 4581   5.534   0.752  10.751 -0.4684 -0.7294 -0.2811
   60SAPC  H11A 4582   5.499   0.777  10.649 -0.6872  2.8742  0.5516
   60SAPC  H11B 4583   5.635   0.796  10.764 -1.4324  1.4513  0.2351
   60SAPC     P 4584   5.308   0.826  10.866 -0.1912 -0.4000  0.2801
   60SAPC   O13 4585   5.259   0.683  10.856  0.0002 -0.3359 -0.0672
   60SAPC   O14 4586   5.271   0.911  10.983  0.4358  0.1441 -0.0383
   60SAPC   O12 4587   5.466   0.816  10.857 -1.2990 -0.1266  0.1343
   60SAPC   O11 4588   5.275   0.906  10.728 -0.8379 -0.7730  0.8541
   60SAPC    C1 4589   5.316   1.043  10.720  0.0905 -0.5284  0.7390
   60SAPC    HA 4590   5.231   1.112  10.702  1.3883  1.0458  0.4026
   60SAPC    HB 4591   5.368   1.081  10.811 -0.8965 -0.2660  1.2083
   60SAPC    C2 4592   5.418   1.066  10.606 -0.0770  0.1575  0.0244
   60SAPC    HS 4593   5.518   1.029  10.638 -0.5397 -0.5961  0.6601
   60SAPC   O21 4594   5.416   1.205  10.586  0.3177 -0.7220 -0.2973
   60SAPC   C21 4595   5.532   1.261  10.561  0.5634 -0.6404 -0.2358
   60SAPC   O22 4596   5.641   1.202  10.553  0.6181  0.1016 -0.3198
   60SAPC   C22 4597   5.527   1.413  10.565  0.4737 -0.0680 -0.9303
   60SAPC   H2R 4598   5.425   1.449  10.592  0.4872 -0.7726  0.1533
   60SAPC   H2S 4599   5.601   1.445  10.642 -0.1171  0.7320 -0.6785
   60SAPC    C3 4600   5.377   0.987  10.480 -0.2714  0.4582 -0.2117
   60SAPC    HX 4601   5.272   1.018  10.461 -0.3870 -0.3186 -0.9261
   60SAPC    HY 4602   5.363   0.879  10.504  2.1274 -0.5227 -2.7113
   60SAPC   O31 4603   5.467   1.019  10.372 -0.0160  0.0356  0.4155
   60SAPC   C31 4604   5.567   0.929  10.345 -0.0538 -0.4839 -0.3172
   60SAPC   O32 4605   5.589   0.834  10.416 -0.3225  0.3364  0.5942
   60SAPC   C32 4606   5.640   0.964  10.211 -0.3649 -0.2224 -0.7758
   60SAPC   H2X 4607   5.720   1.038  10.229 -1.6848  0.9312  0.5130
   60SAPC   H2Y 4608   5.563   1.000  10.139 -0.3457  0.0656 -0.6504
   60SAPC   C23 4609   5.559   1.483  10.434  0.3270  0.1332  0.1189
   60SAPC   H3R 4610   5.659   1.456  10.394 -0.3052 -2.2842  0.0140
   60SAPC   H3S 4611   5.568   1.589  10.467 -1.0371  1.1389 -2.4514
   60SAPC   C24 4612   5.448   1.475  10.329  0.4236 -0.4206  0.1271
   60SAPC   H4R 4613   5.473   1.542  10.244  1.8086  1.1500  1.7100
   60SAPC   H4S 4614   5.359   1.525  10.373  0.9177  0.7465 -0.1599
   60SAPC   C25 4615   5.401   1.348  10.272  0.0089  0.2241 -0.3812
   60SAPC   H5R 4616   5.344   1.291  10.347  2.1394 -1.6743 -0.0755
   60SAPC   C26 4617   5.414   1.285  10.157 -0.3461 -0.2261  0.0431
   60SAPC   H6R 4618   5.366   1.186  10.151  0.3808 -0.5457 -0.8849
   60SAPC   C27 4619   5.498   1.332  10.037 -0.4117 -0.8518  0.5831
   60SAPC   H7R 4620   5.528   1.439  10.044 -0.1330 -0.5826 -2.8546
   60SAPC   H7S 4621   5.429   1.330   9.949  0.7355 -0.5889 -0.3512
   60SAPC   C28 4622   5.623   1.260  10.002 -0.6312  0.0940  0.4474
   60SAPC   H8R 4623   5.692   1.262  10.088 -2.0878 -2.2596  1.7703
   60SAPC   C29 4624   5.651   1.199   9.881 -0.7913 -0.4977 -0.2931
   60SAPC   H9R 4625   5.747   1.149   9.861 -1.5254 -2.5584  1.0215
   60SAPC  C210 4626   5.571   1.193   9.759  0.6181 -0.1567  0.7927
   60SAPC  H10R 4627   5.464   1.171   9.775 -0.1514  1.3137 -1.7255
   60SAPC  H10S 4628   5.600   1.101   9.705 -0.5073 -0.6604  1.0239
   60SAPC  C211 4629   5.592   1.326   9.681  0.1126  0.1909 -0.0858
   60SAPC  H11R 4630   5.602   1.419   9.738  0.0159 -0.1152  0.4371
   60SAPC  C212 4631   5.602   1.331   9.548  0.4712  0.1454  0.8690
   60SAPC  H12R 4632   5.608   1.434   9.510  2.3363  0.2268  1.3105
   60SAPC  C213 4633   5.577   1.211   9.456 -0.3753  0.1645 -0.6815
   60SAPC  H13R 4634   5.483   1.161   9.489 -1.4052  3.0819  1.1904
   60SAPC  H13S 4635   5.653   1.132   9.475 -0.8324 -0.1108  0.0656
   60SAPC  C214 4636   5.563   1.258   9.317  0.0230  0.3129  0.5053
   60SAPC  H14R 4637   5.457   1.260   9.290  0.1819 -0.1888 -0.1856
   60SAPC  C215 4638   5.657   1.258   9.230 -0.7195  0.4476  0.7805
   60SAPC  H15R 4639   5.630   1.287   9.127 -1.0637 -3.2313 -0.3156
   60SAPC  C216 4640   5.807   1.237   9.249  0.2567 -0.0662  0.0905
   60SAPC  H16R 4641   5.831   1.258   9.355  0.8656 -1.7331  0.3003
   60SAPC  H16S 4642   5.857   1.322   9.197 -2.8986  1.0011 -1.4564
   60SAPC  C217 4643   5.850   1.098   9.192  0.3964  0.3016 -0.0430
   60SAPC  H17R 4644   5.819   1.011   9.255 -0.3367  0.9048  0.4470
   60SAPC  H17S 4645   5.960   1.088   9.181  0.1040 -1.0837 -2.5708
   60SAPC  C218 4646   5.810   1.075   9.050 -0.0732 -0.6365 -0.3074
   60SAPC  H18R 4647   5.841   1.152   8.977 -0.7730 -0.4557 -0.4278
   60SAPC  H18S 4648   5.700   1.059   9.041 -0.3241 -0.5161  1.9883
   60SAPC  C219 4649   5.875   0.945   8.989  0.2031  0.5838  0.5256
   60SAPC  H19R 4650   5.850   0.853   9.045  2.4265  0.3073  1.1581
   60SAPC  H19S 4651   5.984   0.964   8.983 -0.0706  2.1399  0.0775
   60SAPC  C220 4652   5.826   0.924   8.842  0.2535  0.4127 -0.4020
   60SAPC  H20R 4653   5.889   0.841   8.804  1.9935  1.9738 -1.0859
   60SAPC  H20S 4654   5.829   1.015   8.779  2.9956  1.1121  0.6005
   60SAPC  H20T 4655   5.719   0.895   8.854  0.0306  1.1209 -0.6137
   60SAPC   C33 4656   5.696   0.835  10.145 -0.0685  0.7470  0.4111
   60SAPC   H3X 4657   5.605   0.775  10.125 -1.5652  2.2271  2.4350
   60SAPC   H3Y 4658   5.763   0.781  10.215 -0.0340 -0.5353 -0.5729
   60SAPC   C34 4659   5.772   0.870  10.020 -0.1029  0.4356  0.3845
   60SAPC   H4X 4660   5.864   0.922  10.055 -0.4315  0.4595  1.2500
   60SAPC   H4Y 4661   5.712   0.940   9.958 -2.2892  0.2806  2.2080
   60SAPC   C35 4662   5.800   0.743   9.937 -0.1736  1.2323  0.2002
   60SAPC   H5X 4663   5.706   0.687   9.915 -0.6686  2.3952 -0.7659
   60SAPC   H5Y 4664   5.860   0.679  10.005 -0.3109  0.2064 -0.6196
   60SAPC   C36 4665   5.881   0.771   9.805  0.2575 -0.2632 -0.7307
   60SAPC   H6X 4666   5.917   0.674   9.767 -1.1711 -1.3739  0.6027
   60SAPC   H6Y 4667   5.962   0.837   9.843  0.4017 -0.1723 -1.2014
   60SAPC   C37 4668   5.796   0.844   9.703  0.2293  0.0335  0.0998
   60SAPC   H7X 4669   5.765   0.939   9.751 -2.5288 -0.7081 -0.0775
   60SAPC   H7Y 4670   5.707   0.787   9.669  1.3433 -0.2992 -2.4752
   60SAPC   C38 4671   5.880   0.876   9.572 -0.4053  0.4360 -0.3678
   60SAPC   H8X 4672   5.954   0.953   9.603  0.4758 -1.4240  2.6025
   60SAPC   H8Y 4673   5.820   0.925   9.493 -0.8543  1.1956  0.4228
   60SAPC   C39 4674   5.943   0.743   9.515 -0.1068 -0.0606  0.3766
   60SAPC   H9X 4675   6.009   0.690   9.587 -2.2774 -2.7337  0.5532
   60SAPC   H9Y 4676   6.014   0.774   9.435  0.0061 -0.9343  0.1364
   60SAPC  C310 4677   5.839   0.653   9.457 -0.7684 -0.1626 -0.0110
   60SAPC  H10X 4678   5.786   0.716   9.382  0.1497  1.4616  0.6521
   60SAPC  H10Y 4679   5.764   0.617   9.530 -0.4562  2.4455  1.7063
   60SAPC  C311 4680   5.902   0.543   9.368 -0.9776 -0.3759 -0.2643
   60SAPC  H11X 4681   5.823   0.477   9.326 -0.2664 -1.2324 -0.2883
   60SAPC  H11Y 4682   5.962   0.478   9.435  0.0645  0.2892 -0.5282
   60SAPC  C312 4683   5.983   0.594   9.248  0.1600  0.3848  0.2466
   60SAPC  H12X 4684   6.073   0.645   9.288 -0.6965  2.5200 -0.4050
   60SAPC  H12Y 4685   5.927   0.683   9.213  0.5683  0.0899 -1.2238
   60SAPC  C313 4686   6.011   0.488   9.146 -0.3237 -0.3042 -0.2940
   60SAPC  H13X 4687   5.921   0.432   9.112  0.3459 -0.2972 -2.1947
   60SAPC  H13Y 4688   6.080   0.415   9.192 -0.0722  1.2359  1.9652
   60SAPC  C314 4689   6.072   0.547   9.022  0.5644  0.4705  0.1251
   60SAPC  H14X 4690   6.166   0.605   9.036  0.5420  0.6766 -0.5533
   60SAPC  H14Y 4691   6.005   0.623   8.978  1.2150  1.3742  0.6511
   60SAPC  C315 4692   6.103   0.445   8.911 -0.8881  0.2580  0.4475
   60SAPC  H15X 4693   6.022   0.373   8.886  0.9398 -2.4258  1.7687
   60SAPC  H15Y 4694   6.187   0.382   8.946  1.3390  1.9340 -1.5461
   60SAPC  C316 4695   6.141   0.521   8.787 -0.4741  0.0349  1.0632
   60SAPC  H16X 4696   6.244   0.557   8.805 -0.2741 -0.4862  0.9723
   60SAPC  H16Y 4697   6.076   0.609   8.769 -1.6295 -0.7419  1.3226
   60SAPC  C317 4698   6.143   0.427   8.666 -0.4244 -0.4141 -0.5890
   60SAPC  H17X 4699   6.038   0.393   8.658 -1.4010  1.2694  3.0043
   60SAPC  H17Y 4700   6.198   0.335   8.697  0.1873 -0.3742 -1.5063
   60SAPC  C318 4701   6.187   0.487   8.530  0.2312  0.2536  0.0202
   60SAPC  H18X 4702   6.120   0.572   8.503  2.6446  2.3391  0.1603
   60SAPC  H18Y 4703   6.193   0.413   8.448  0.8069  0.7804 -0.4248
   60SAPC  H18Z 4704   6.290   0.526   8.544  0.3266  0.9407 -2.1332
   61SAPC     N 4705   6.262   5.158  11.151  0.5264 -0.6419 -0.7588
   61SAPC   C12 4706   6.295   5.134  11.004  0.2348  0.1710 -0.3961
   61SAPC  H12A 4707   6.202   5.133  10.949 -0.0689 -0.2142  0.1141
   61SAPC  H12B 4708   6.340   5.036  10.992  2.5848  0.9408  1.3554
   61SAPC   C13 4709   6.165   5.057  11.200 -0.0841  0.3111 -0.2182
   61SAPC  H13A 4710   6.136   5.087  11.300  0.4722 -1.5324  0.5429
   61SAPC  H13B 4711   6.069   5.052  11.151  0.1693  2.5381 -1.0480
   61SAPC  H13C 4712   6.209   4.958  11.202  0.4557  0.5553  0.1579
   61SAPC   C14 4713   6.388   5.152  11.229  0.0643  0.4501 -0.4731
   61SAPC  H14A 4714   6.378   5.193  11.329  2.4560 -0.5312  0.2397
   61SAPC  H14B 4715   6.427   5.052  11.231  2.0872  1.1740 -0.5938
   61SAPC  H14C 4716   6.470   5.207  11.185  2.2657 -2.9117 -0.9728
   61SAPC   C15 4717   6.205   5.297  11.171  0.1172 -0.3787  0.0046
   61SAPC  H15A 4718   6.275   5.371  11.134 -0.9038  1.4639  1.6052
   61SAPC  H15B 4719   6.110   5.309  11.122  0.5077 -0.0596 -0.6943
   61SAPC  H15C 4720   6.204   5.311  11.278 -0.1595  1.3844 -0.2009
   61SAPC   C11 4721   6.389   5.233  10.927  0.1836 -0.5899  0.1937
   61SAPC  H11A 4722   6.353   5.338  10.935 -0.3268 -0.8278  1.1029
   61SAPC  H11B 4723   6.389   5.205  10.819 -0.1483  0.3395 -0.0583
   61SAPC     P 4724   6.649   5.224  10.890 -0.3493  0.3625  0.3564
   61SAPC   O13 4725   6.752   5.309  10.949 -0.0998  0.1677 -0.2708
   61SAPC   O14 4726   6.676   5.080  10.881 -0.3684 -0.5990 -0.2797
   61SAPC   O12 4727   6.524   5.240  10.976 -0.2002 -0.3348  0.3952
   61SAPC   O11 4728   6.603   5.280  10.750  0.0261 -0.2829  0.3108
   61SAPC    C1 4729   6.611   5.416  10.719 -0.2668 -0.2721  0.2035
   61SAPC    HA 4730   6.518   5.448  10.668 -0.4184 -0.6646  0.2278
   61SAPC    HB 4731   6.629   5.486  10.803  1.0309 -0.8579  0.4362
   61SAPC    C2 4732   6.716   5.449  10.617  0.4923 -0.1086  0.9048
   61SAPC    HS 4733   6.811   5.480  10.665 -0.1705  0.8908  1.6317
   61SAPC   O21 4734   6.681   5.558  10.535 -0.1750 -0.1552 -0.2584
   61SAPC   C21 4735   6.685   5.681  10.589  0.0185  0.4703 -0.3642
   61SAPC   O22 4736   6.710   5.707  10.706 -0.1945  0.3985 -0.1024
   61SAPC   C22 4737   6.641   5.783  10.482 -0.2728 -0.0531  0.4852
   61SAPC   H2R 4738   6.710   5.760  10.397 -0.6505 -0.1538  0.2006
   61SAPC   H2S 4739   6.547   5.749  10.433  0.5842 -1.5908 -0.1734
   61SAPC    C3 4740   6.760   5.325  10.536 -0.1837  0.2099 -0.0866
   61SAPC    HX 4741   6.672   5.286  10.481 -1.5283 -0.7223  2.5841
   61SAPC    HY 4742   6.805   5.250  10.603 -0.8318  1.7226  2.1383
   61SAPC   O31 4743   6.859   5.365  10.440  0.3509 -0.5521 -0.2383
   61SAPC   C31 4744   6.890   5.266  10.348 -0.7576 -0.0141 -0.4300
   61SAPC   O32 4745   6.824   5.166  10.341 -0.4679 -0.1544 -0.0200
   61SAPC   C32 4746   7.007   5.304  10.261 -0.4495 -0.0631 -0.6477
   61SAPC   H2X 4747   7.054   5.209  10.231 -1.2340 -1.4011  2.0159
   61SAPC   H2Y 4748   7.076   5.364  10.325 -0.4550 -0.6987 -0.0332
   61SAPC   C23 4749   6.649   5.927  10.524  0.6348 -0.4855 -0.7990
   61SAPC   H3R 4750   6.624   5.952  10.629  1.5645  0.2320 -0.7360
   61SAPC   H3S 4751   6.567   5.977  10.468 -0.4353 -0.3564  0.8122
   61SAPC   C24 4752   6.781   5.988  10.482 -0.2612  0.9889  0.2305
   61SAPC   H4R 4753   6.780   5.954  10.376 -1.8523 -0.1121  0.5622
   61SAPC   H4S 4754   6.855   5.923  10.533  0.4576  2.3479  0.9644
   61SAPC   C25 4755   6.808   6.132  10.501 -0.8909 -0.5068 -0.8730
   61SAPC   H5R 4756   6.832   6.165  10.603 -0.7763 -1.1342 -0.6952
   61SAPC   C26 4757   6.808   6.225  10.403  0.7446 -0.3922 -1.1249
   61SAPC   H6R 4758   6.837   6.329  10.423 -1.3319  0.2097 -0.9977
   61SAPC   C27 4759   6.789   6.203  10.258 -0.4123 -0.1052  0.2985
   61SAPC   H7R 4760   6.818   6.098  10.234 -0.7749 -0.2781  0.5971
   61SAPC   H7S 4761   6.872   6.261  10.212 -3.1024  1.8643 -2.4769
   61SAPC   C28 4762   6.652   6.242  10.211  0.3790 -0.1030 -0.0532
   61SAPC   H8R 4763   6.628   6.347  10.232  0.9803  0.3050 -1.3160
   61SAPC   C29 4764   6.574   6.159  10.136 -0.2924 -0.4530  0.1634
   61SAPC   H9R 4765   6.475   6.193  10.103  0.5593  1.4017 -0.6531
   61SAPC  C210 4766   6.605   6.016  10.077  0.4720  0.3246  0.0896
   61SAPC  H10R 4767   6.713   5.992  10.087  0.4462 -0.0422 -0.4661
   61SAPC  H10S 4768   6.575   6.011   9.970 -0.9239 -1.6965  0.5254
   61SAPC  C211 4769   6.524   5.915  10.158 -0.4507 -0.3535  0.6789
   61SAPC  H11R 4770   6.521   5.932  10.267  1.6441 -2.8210  1.2134
   61SAPC  C212 4771   6.455   5.821  10.108  0.1421  0.2285  0.1815
   61SAPC  H12R 4772   6.397   5.758  10.177  2.3062 -0.3293  1.5673
   61SAPC  C213 4773   6.438   5.786   9.962 -0.1066  0.2982 -0.2224
   61SAPC  H13R 4774   6.401   5.875   9.907 -1.9884 -1.1080 -1.3674
   61SAPC  H13S 4775   6.357   5.714   9.937  0.9698 -0.0113 -3.2604
   61SAPC  C214 4776   6.558   5.720   9.896 -0.9196 -0.0500 -0.1578
   61SAPC  H14R 4777   6.612   5.664   9.973 -0.5322  1.4489  0.7132
   61SAPC  C215 4778   6.587   5.718   9.761 -0.0028 -0.9302 -0.1316
   61SAPC  H15R 4779   6.677   5.666   9.726  1.2607  0.7992  0.4017
   61SAPC  C216 4780   6.500   5.774   9.650 -0.1021 -0.1376 -0.7122
   61SAPC  H16R 4781   6.527   5.877   9.619  0.8524 -0.7875 -2.1851
   61SAPC  H16S 4782   6.396   5.779   9.688 -0.2454  0.7342 -1.1972
   61SAPC  C217 4783   6.495   5.672   9.529 -0.3477  0.1534  0.1358
   61SAPC  H17R 4784   6.462   5.569   9.554  3.5268 -1.3405 -0.1708
   61SAPC  H17S 4785   6.600   5.661   9.492 -0.6222 -1.1437 -0.2933
   61SAPC  C218 4786   6.407   5.741   9.416  0.7029  0.7558  0.5585
   61SAPC  H18R 4787   6.424   5.851   9.409  1.7315  0.5227 -0.9591
   61SAPC  H18S 4788   6.300   5.722   9.439  0.9690 -2.4771 -0.3773
   61SAPC  C219 4789   6.436   5.695   9.273  0.0839  0.4830 -0.3089
   61SAPC  H19R 4790   6.413   5.587   9.258 -1.4378  1.0685 -2.6630
   61SAPC  H19S 4791   6.545   5.711   9.255  0.1947  0.3854  0.2475
   61SAPC  C220 4792   6.361   5.768   9.161 -0.4743 -0.8693  0.1806
   61SAPC  H20R 4793   6.379   5.877   9.149  0.0279 -0.7728  1.6526
   61SAPC  H20S 4794   6.252   5.764   9.184 -0.3905 -0.2392  0.7356
   61SAPC  H20T 4795   6.393   5.721   9.066  2.5351  1.1902  0.0476
   61SAPC   C33 4796   6.963   5.388  10.140 -0.7211 -0.2951 -1.2261
   61SAPC   H3X 4797   6.923   5.485  10.179  1.4476 -0.3288  1.3702
   61SAPC   H3Y 4798   6.898   5.329  10.072 -2.4625 -1.0062  0.9094
   61SAPC   C34 4799   7.079   5.414  10.047  0.0318  0.1722 -0.2716
   61SAPC   H4X 4800   7.128   5.326  10.000  0.0868  1.4457 -2.7583
   61SAPC   H4Y 4801   7.151   5.469  10.112 -1.6806  1.1699  0.8761
   61SAPC   C35 4802   7.022   5.505   9.923 -0.1117  0.9285 -0.1850
   61SAPC   H5X 4803   7.003   5.602   9.973 -1.4239 -0.7215  2.7437
   61SAPC   H5Y 4804   6.924   5.463   9.893 -0.4865 -0.4129  2.6101
   61SAPC   C36 4805   7.115   5.506   9.803 -0.2555 -0.6410 -0.0266
   61SAPC   H6X 4806   7.151   5.404   9.779  2.7720  1.0083 -3.6253
   61SAPC   H6Y 4807   7.206   5.570   9.808 -0.2800 -0.6100  0.0215
   61SAPC   C37 4808   7.030   5.549   9.681 -0.3990 -0.1837 -0.3776
   61SAPC   H7X 4809   7.022   5.660   9.688  1.1658  0.0879 -2.0178
   61SAPC   H7Y 4810   6.926   5.510   9.689 -0.2652 -0.1493  1.9807
   61SAPC   C38 4811   7.087   5.528   9.542 -0.1785  0.0729  0.0868
   61SAPC   H8X 4812   7.097   5.419   9.520 -0.4571 -0.2246  1.3801
   61SAPC   H8Y 4813   7.185   5.579   9.540  1.1013 -2.2436  0.5531
   61SAPC   C39 4814   7.006   5.592   9.427  0.2084  0.4033 -0.0595
   61SAPC   H9X 4815   6.952   5.680   9.468  0.0839 -0.3457  1.4654
   61SAPC   H9Y 4816   6.925   5.520   9.404  0.7349 -0.0253 -0.6204
   61SAPC  C310 4817   7.087   5.616   9.301 -0.8267  0.2997 -0.3325
   61SAPC  H10X 4818   7.150   5.527   9.279  0.9010  0.9700  1.5986
   61SAPC  H10Y 4819   7.157   5.699   9.323  1.7126 -1.7497 -0.1415
   61SAPC  C311 4820   6.998   5.660   9.176  0.1344  0.6286 -0.1852
   61SAPC  H11X 4821   6.920   5.587   9.143  0.8463 -0.5822  0.7413
   61SAPC  H11Y 4822   7.068   5.679   9.092  1.8144 -0.5454  0.9066
   61SAPC  C312 4823   6.926   5.788   9.195  0.0485  0.4973 -0.0750
   61SAPC  H12X 4824   7.005   5.857   9.232  0.7300  0.0910 -0.7403
   61SAPC  H12Y 4825   6.848   5.798   9.272  0.0137 -2.0857  0.3203
   61SAPC  C313 4826   6.883   5.859   9.064  0.1526  0.0750  0.1661
   61SAPC  H13X 4827   6.954   5.821   8.988 -0.4360 -0.0265 -0.3434
   61SAPC  H13Y 4828   6.898   5.969   9.067  2.1457 -0.1596  0.4970
   61SAPC  C314 4829   6.731   5.817   9.030 -0.2512  0.5840 -0.6010
   61SAPC  H14X 4830   6.661   5.853   9.108 -0.6346  0.1700 -0.7471
   61SAPC  H14Y 4831   6.719   5.707   9.020  1.8273  0.1729  0.9227
   61SAPC  C315 4832   6.677   5.880   8.905  0.0822 -0.3160 -0.2441
   61SAPC  H15X 4833   6.686   5.991   8.914 -2.6113 -0.0780  0.4331
   61SAPC  H15Y 4834   6.566   5.875   8.894 -0.3141  1.2903  2.2588
   61SAPC  C316 4835   6.742   5.840   8.773 -0.0029 -0.5002 -0.0936
   61SAPC  H16X 4836   6.841   5.890   8.783 -0.0841 -0.2842 -0.3672
   61SAPC  H16Y 4837   6.693   5.892   8.688  2.4712  0.7024 -0.8782
   61SAPC  C317 4838   6.768   5.689   8.743  0.1878  0.2723 -0.2494
   61SAPC  H17X 4839   6.665   5.649   8.732  1.9484 -4.5103 -2.0364
   61SAPC  H17Y 4840   6.822   5.645   8.830  0.1611  1.1527  0.2149
   61SAPC  C318 4841   6.840   5.670   8.619  0.2755  0.4614  0.4459
   61SAPC  H18X 4842   6.936   5.726   8.624 -0.2675  1.6666 -1.5948
   61SAPC  H18Y 4843   6.785   5.730   8.544 -0.7053  0.4973  1.1685
   61SAPC  H18Z 4844   6.838   5.563   8.590 -0.0553  0.8244 -0.9193
   62SAPC     N 4845   0.227   3.406  10.910 -0.2559 -0.0572 -0.0063
   62SAPC   C12 4846   0.115   3.346  10.820 -0.1060  0.8038  0.2398
   62SAPC  H12A 4847   0.020   3.379  10.860 -0.0922 -0.6055  1.5352
   62SAPC  H12B 4848   0.109   3.238  10.815 -0.2494  0.8794 -1.7310
   62SAPC   C13 4849   0.357   3.358  10.858 -0.1379 -1.1556 -0.5066
   62SAPC  H13A 4850   0.437   3.413  10.906 -0.3643 -2.1837  1.0931
   62SAPC  H13B 4851   0.376   3.254  10.883  1.7221 -0.3662  1.7328
   62SAPC  H13C 4852   0.374   3.380  10.753  0.2325  1.1314 -0.0229
   62SAPC   C14 4853   0.217   3.559  10.927 -0.0243  0.3138  0.8585
   62SAPC  H14A 4854   0.228   3.604  10.829 -1.4244 -0.9276  0.1004
   62SAPC  H14B 4855   0.123   3.592  10.969 -0.8775 -1.5832  0.5248
   62SAPC  H14C 4856   0.300   3.588  10.990 -0.5255 -0.8760  2.1003
   62SAPC   C15 4857   0.205   3.351  11.047  0.4936  0.0450 -0.1201
   62SAPC  H15A 4858   0.272   3.403  11.114 -1.2972  0.9963  1.0308
   62SAPC  H15B 4859   0.104   3.364  11.085  0.0835  0.0359 -1.1568
   62SAPC  H15C 4860   0.218   3.244  11.049  0.5842  0.0047 -1.5271
   62SAPC   C11 4861   0.121   3.381  10.673 -0.6721  0.4495  0.5638
   62SAPC  H11A 4862   0.058   3.316  10.609  0.0041  0.9919 -0.6824
   62SAPC  H11B 4863   0.218   3.353  10.627 -0.9552 -1.3202  0.9990
   62SAPC     P 4864  -0.063   3.571  10.662  0.2185  0.0762  0.0778
   62SAPC   O13 4865  -0.135   3.502  10.777  0.0885 -0.2062  0.3646
   62SAPC   O14 4866  -0.065   3.721  10.672  0.1079  0.2112  0.2812
   62SAPC   O12 4867   0.088   3.516  10.649 -0.1995 -0.5381 -0.0926
   62SAPC   O11 4868  -0.115   3.522  10.522  0.4366  0.8411  0.3598
   62SAPC    C1 4869  -0.065   3.563  10.397  0.9341  0.4728  0.3681
   62SAPC    HA 4870   0.029   3.620  10.411  0.0887  2.4151 -1.3998
   62SAPC    HB 4871  -0.053   3.464  10.348 -0.1347 -0.2227  1.4440
   62SAPC    C2 4872  -0.164   3.653  10.313  0.1318  0.7439  0.6007
   62SAPC    HS 4873  -0.266   3.611  10.329  0.7340 -0.3629  1.7199
   62SAPC   O21 4874  -0.127   3.637  10.173  0.2179  0.6429  0.0109
   62SAPC   C21 4875  -0.156   3.526  10.118  0.0210  0.3611 -0.5319
   62SAPC   O22 4876  -0.234   3.441  10.154  0.2622  0.3072 -0.3828
   62SAPC   C22 4877  -0.074   3.517   9.998  0.6484 -0.3287  0.1506
   62SAPC   H2R 4878   0.010   3.590   9.994  0.7504 -0.5021 -1.8563
   62SAPC   H2S 4879  -0.041   3.411   9.998  0.1037 -0.5769 -2.6289
   62SAPC    C3 4880  -0.148   3.801  10.351 -0.8182 -0.3515  0.1327
   62SAPC    HX 4881  -0.049   3.839  10.319 -0.4147 -1.2758  0.2446
   62SAPC    HY 4882  -0.153   3.804  10.462  0.3705 -0.2708  0.1882
   62SAPC   O31 4883  -0.250   3.883  10.286 -0.5762 -0.1147 -0.7720
   62SAPC   C31 4884  -0.365   3.874  10.352  0.1599 -0.1486 -0.7628
   62SAPC   O32 4885  -0.379   3.821  10.461 -0.2594  0.4226 -0.4964
   62SAPC   C32 4886  -0.468   3.947  10.273 -0.6861 -0.4502  0.6125
   62SAPC   H2X 4887  -0.436   4.035  10.213 -1.3699 -1.3443 -1.1372
   62SAPC   H2Y 4888  -0.557   3.985  10.327  0.1915 -1.5578  2.9450
   62SAPC   C23 4889  -0.160   3.543   9.870 -0.7976 -0.3905 -0.3537
   62SAPC   H3R 4890  -0.238   3.465   9.854 -1.3815  0.1854 -0.3573
   62SAPC   H3S 4891  -0.092   3.531   9.783 -0.1174 -0.0519  0.1268
   62SAPC   C24 4892  -0.215   3.690   9.861  0.4619 -0.6355  0.4106
   62SAPC   H4R 4893  -0.307   3.696   9.923 -1.3642  2.6011 -2.2271
   62SAPC   H4S 4894  -0.253   3.691   9.756  0.6452 -2.7546  0.2925
   62SAPC   C25 4895  -0.146   3.821   9.888  0.5206 -0.4320 -0.0773
   62SAPC   H5R 4896  -0.049   3.813   9.940  1.3379 -2.0959 -1.7218
   62SAPC   C26 4897  -0.193   3.940   9.846  0.5521 -0.0253  0.1769
   62SAPC   H6R 4898  -0.130   4.029   9.862 -0.5582  1.7591 -3.9842
   62SAPC   C27 4899  -0.313   3.981   9.769  0.2410  0.2494  1.0629
   62SAPC   H7R 4900  -0.406   3.941   9.814  1.0785 -1.8759  1.0790
   62SAPC   H7S 4901  -0.304   3.929   9.671  0.4597 -0.7074  1.5734
   62SAPC   C28 4902  -0.330   4.128   9.737 -0.2894 -0.7752 -0.5951
   62SAPC   H8R 4903  -0.325   4.192   9.826 -2.2647  0.3993 -1.2595
   62SAPC   C29 4904  -0.339   4.175   9.611  0.5293  0.1476 -0.0251
   62SAPC   H9R 4905  -0.332   4.284   9.597  5.3972  0.2511  1.5036
   62SAPC  C210 4906  -0.333   4.095   9.485 -0.4341  0.1100 -0.2644
   62SAPC  H10R 4907  -0.337   3.985   9.491 -1.5383 -0.0229 -2.4276
   62SAPC  H10S 4908  -0.239   4.121   9.432 -0.8146 -1.1130 -1.5926
   62SAPC  C211 4909  -0.452   4.127   9.396 -0.4994 -0.4761  0.4807
   62SAPC  H11R 4910  -0.535   4.174   9.449 -0.0214  0.4881  0.3946
   62SAPC  C212 4911  -0.471   4.091   9.265 -0.0076 -0.6321 -0.5378
   62SAPC  H12R 4912  -0.573   4.100   9.223 -0.6368  0.7955  1.1347
   62SAPC  C213 4913  -0.360   4.027   9.192 -0.1240  0.0093 -0.6148
   62SAPC  H13R 4914  -0.401   3.940   9.136 -0.4472  0.1571 -0.6104
   62SAPC  H13S 4915  -0.285   3.994   9.266  0.4505  1.9885 -0.2545
   62SAPC  C214 4916  -0.285   4.125   9.099  0.0079 -0.9621  0.7214
   62SAPC  H14R 4917  -0.243   4.217   9.142  0.0149  0.2081 -1.6286
   62SAPC  C215 4918  -0.268   4.101   8.967  0.0283  0.0023 -1.0833
   62SAPC  H15R 4919  -0.210   4.179   8.917  1.5898  2.1621  3.5543
   62SAPC  C216 4920  -0.296   3.985   8.889 -0.1801  0.4362 -0.6087
   62SAPC  H16R 4921  -0.353   4.002   8.795 -0.7425  0.2803 -0.3040
   62SAPC  H16S 4922  -0.360   3.919   8.952  1.7891 -0.0526  0.9901
   62SAPC  C217 4923  -0.165   3.901   8.863 -0.4426 -0.0207  0.1256
   62SAPC  H17R 4924  -0.132   3.877   8.966 -0.9921 -2.1300 -0.1540
   62SAPC  H17S 4925  -0.083   3.959   8.815  0.5518 -1.4185  0.1073
   62SAPC  C218 4926  -0.188   3.772   8.781 -0.3113  0.1694 -0.0884
   62SAPC  H18R 4927  -0.202   3.806   8.676 -1.9220  0.3696  0.1783
   62SAPC  H18S 4928  -0.283   3.726   8.815 -1.4026  1.9694 -0.5737
   62SAPC  C219 4929  -0.068   3.678   8.774  0.2169 -0.4152 -0.7347
   62SAPC  H19R 4930  -0.083   3.599   8.851 -0.2878 -0.9336 -1.3525
   62SAPC  H19S 4931   0.019   3.737   8.809  0.1631 -1.6523  1.6949
   62SAPC  C220 4932  -0.049   3.608   8.637 -0.1977 -0.5529 -0.0151
   62SAPC  H20R 4933  -0.133   3.537   8.621 -0.2894 -0.8340  1.5428
   62SAPC  H20S 4934   0.044   3.549   8.635  2.8045  3.7274  0.1626
   62SAPC  H20T 4935  -0.042   3.678   8.551 -0.6885 -0.2076  0.2153
   62SAPC   C33 4936  -0.519   3.835  10.177  0.4129 -0.3078  0.4590
   62SAPC   H3X 4937  -0.588   3.762  10.225  0.1906  0.1553  0.8520
   62SAPC   H3Y 4938  -0.431   3.785  10.130  1.4901  0.9677  1.0469
   62SAPC   C34 4939  -0.604   3.891  10.071  1.1988 -0.1814  0.7874
   62SAPC   H4X 4940  -0.543   3.956  10.004 -0.6253  2.7422  1.8066
   62SAPC   H4Y 4941  -0.681   3.963  10.105  1.4580  2.9453 -4.2453
   62SAPC   C35 4942  -0.673   3.786   9.974  0.0675 -0.1073 -0.5180
   62SAPC   H5X 4943  -0.746   3.737  10.041  0.7341  0.4497  0.6591
   62SAPC   H5Y 4944  -0.595   3.712   9.947  1.6168  1.3146 -0.1296
   62SAPC   C36 4945  -0.745   3.849   9.855  0.3703  0.1249 -0.4348
   62SAPC   H6X 4946  -0.705   3.938   9.802 -0.9745  0.1795 -1.4118
   62SAPC   H6Y 4947  -0.849   3.883   9.877  0.1948  0.5046 -1.7330
   62SAPC   C37 4948  -0.752   3.746   9.740 -0.9692  0.2355  0.2910
   62SAPC   H7X 4949  -0.779   3.648   9.784 -0.2182  0.1360  0.5380
   62SAPC   H7Y 4950  -0.644   3.731   9.719 -0.6814  2.1995  0.2017
   62SAPC   C38 4951  -0.821   3.793   9.607 -0.7807  0.3877 -0.6601
   62SAPC   H8X 4952  -0.780   3.894   9.586 -1.9704  0.8100 -1.0776
   62SAPC   H8Y 4953  -0.931   3.804   9.620 -0.4348  2.2406  1.3691
   62SAPC   C39 4954  -0.774   3.695   9.501 -0.6139  0.1691  0.3334
   62SAPC   H9X 4955  -0.835   3.605   9.523 -1.6992  0.9274  0.5137
   62SAPC   H9Y 4956  -0.669   3.660   9.512 -1.2629 -2.1578 -0.2922
   62SAPC  C310 4957  -0.791   3.715   9.347 -0.1002 -0.0072 -0.4877
   62SAPC  H10X 4958  -0.897   3.724   9.316 -0.6790  0.6346  1.5173
   62SAPC  H10Y 4959  -0.766   3.620   9.295  1.4502 -0.2972  0.7060
   62SAPC  C311 4960  -0.713   3.828   9.290  0.3020 -0.2975  0.7405
   62SAPC  H11X 4961  -0.607   3.799   9.305  1.1590  0.6218 -2.7153
   62SAPC  H11Y 4962  -0.744   3.916   9.351 -1.6209 -1.4744  1.5987
   62SAPC  C312 4963  -0.736   3.844   9.138 -0.0714 -0.2447 -0.2680
   62SAPC  H12X 4964  -0.666   3.910   9.082 -0.2375 -2.3194 -3.1353
   62SAPC  H12Y 4965  -0.840   3.878   9.120  0.0367 -0.2041 -0.8634
   62SAPC  C313 4966  -0.716   3.716   9.054  0.0640  0.4861 -0.6900
   62SAPC  H13X 4967  -0.805   3.656   9.081 -1.0891  2.6955  0.7515
   62SAPC  H13Y 4968  -0.622   3.678   9.100 -0.5398  0.3700  0.4644
   62SAPC  C314 4969  -0.700   3.749   8.906 -0.0028  0.4771 -0.5320
   62SAPC  H14X 4970  -0.643   3.844   8.898 -2.0459  1.7787 -0.3889
   62SAPC  H14Y 4971  -0.802   3.777   8.872  0.1972  1.4194 -0.3962
   62SAPC  C315 4972  -0.639   3.635   8.823  0.9316  0.3983  0.2667
   62SAPC  H15X 4973  -0.708   3.549   8.809  0.1090  1.3491 -1.8975
   62SAPC  H15Y 4974  -0.553   3.597   8.882  1.1885 -0.1180 -0.4337
   62SAPC  C316 4975  -0.600   3.690   8.684  0.5290 -0.5122 -0.4506
   62SAPC  H16X 4976  -0.535   3.777   8.707  2.4411 -1.9103 -0.2972
   62SAPC  H16Y 4977  -0.690   3.712   8.623  0.3329 -0.2010 -0.0513
   62SAPC  C317 4978  -0.508   3.605   8.604 -0.4162 -0.1011 -0.0735
   62SAPC  H17X 4979  -0.558   3.508   8.581  1.7881 -1.0970 -0.9249
   62SAPC  H17Y 4980  -0.427   3.583   8.677 -0.6527 -0.2609  0.1407
   62SAPC  C318 4981  -0.451   3.668   8.481  0.6456 -0.2097  0.0685
   62SAPC  H18X 4982  -0.369   3.603   8.441 -0.1880 -0.4617 -1.2677
   62SAPC  H18Y 4983  -0.419   3.774   8.480  1.4153 -0.4220  0.5293
   62SAPC  H18Z 4984  -0.522   3.675   8.397 -0.0008 -0.2754  0.6025
   63SAPC     N 4985   0.968   4.812   6.114  0.3752  0.3925 -0.0143
   63SAPC   C12 4986   0.856   4.894   6.180 -0.2490  0.1342  0.2640
   63SAPC  H12A 4987   0.761   4.846   6.162  0.3200 -1.9194  2.3628
   63SAPC  H12B 4988   0.853   4.988   6.127  0.7278  0.0144 -0.0203
   63SAPC   C13 4989   0.927   4.790   5.977 -0.2736  0.1541  0.6399
   63SAPC  H13A 4990   0.844   4.722   5.972 -0.8732  0.9280 -0.5347
   63SAPC  H13B 4991   0.898   4.878   5.920  2.3924  0.0035 -1.1415
   63SAPC  H13C 4992   1.013   4.749   5.926 -0.5346  0.1267  0.2115
   63SAPC   C14 4993   1.097   4.898   6.112 -0.2777  0.3570 -0.7295
   63SAPC  H14A 4994   1.080   4.988   6.056 -4.1561  0.7732  0.8347
   63SAPC  H14B 4995   1.126   4.913   6.215  0.5099 -3.2246 -0.2797
   63SAPC  H14C 4996   1.176   4.843   6.061  0.7276  1.3522 -0.2960
   63SAPC   C15 4997   0.978   4.681   6.182  0.7019 -0.0689  0.6158
   63SAPC  H15A 4998   0.981   4.693   6.289 -0.0824  0.4984  0.5781
   63SAPC  H15B 4999   0.897   4.618   6.147  0.3273 -0.3325  1.9292
   63SAPC  H15C 5000   1.073   4.636   6.154  1.5088  2.0775 -0.3830
   63SAPC   C11 5001   0.872   4.934   6.327 -0.3709  0.6053 -0.2267
   63SAPC  H11A 5002   0.802   5.012   6.365  0.1909  0.0220  2.2066
   63SAPC  H11B 5003   0.972   4.978   6.346  0.2133 -0.6150 -0.3971
   63SAPC     P 5004   0.723   4.751   6.428  0.1977 -0.2131  0.8512
   63SAPC   O13 5005   0.630   4.849   6.488 -0.5000  0.0454  0.0535
   63SAPC   O14 5006   0.672   4.683   6.303 -0.2983  0.1232 -0.0205
   63SAPC   O12 5007   0.865   4.815   6.407  0.0899  0.9824  0.3919
   63SAPC   O11 5008   0.747   4.630   6.529 -0.1565 -0.0670  0.3181
   63SAPC    C1 5009   0.829   4.640   6.645  0.2067  0.7375 -0.3758
   63SAPC    HA 5010   0.907   4.561   6.651 -0.5618  0.0987  2.2810
   63SAPC    HB 5011   0.881   4.738   6.647  0.0539  0.8893 -2.1187
   63SAPC    C2 5012   0.741   4.616   6.774  0.6199 -0.3596  0.2943
   63SAPC    HS 5013   0.682   4.524   6.755  0.4573 -0.5545  1.6245
   63SAPC   O21 5014   0.667   4.733   6.791  0.7019 -0.5704  0.3940
   63SAPC   C21 5015   0.545   4.736   6.761  0.3691  0.0930 -0.0905
   63SAPC   O22 5016   0.469   4.642   6.745  0.7176  1.1288 -0.0359
   63SAPC   C22 5017   0.498   4.868   6.784 -0.0733 -1.5086  0.0504
   63SAPC   H2R 5018   0.549   4.910   6.873 -1.9195  0.5955  0.1937
   63SAPC   H2S 5019   0.546   4.928   6.704  0.8555 -2.2747  0.0081
   63SAPC    C3 5020   0.827   4.604   6.896 -0.2109  0.3479  0.4163
   63SAPC    HX 5021   0.894   4.693   6.908 -0.5350  0.4130  1.9059
   63SAPC    HY 5022   0.892   4.515   6.886  0.3535  0.8383 -0.4241
   63SAPC   O31 5023   0.747   4.599   7.016  0.5173  0.5391 -0.0581
   63SAPC   C31 5024   0.685   4.480   7.033 -1.0269 -0.4001  0.3810
   63SAPC   O32 5025   0.704   4.382   6.968  0.2358 -0.0564 -0.0099
   63SAPC   C32 5026   0.587   4.486   7.153 -0.6990  0.3609 -0.0543
   63SAPC   H2X 5027   0.494   4.428   7.139 -0.9913  1.3397 -2.6511
   63SAPC   H2Y 5028   0.560   4.592   7.173 -1.0442  0.6076 -1.7210
   63SAPC   C23 5029   0.345   4.893   6.789  0.3868 -0.0299 -0.0072
   63SAPC   H3R 5030   0.302   4.848   6.698  1.0639 -0.2224 -0.2361
   63SAPC   H3S 5031   0.342   5.003   6.778  0.3955 -0.0020  0.2437
   63SAPC   C24 5032   0.279   4.869   6.923  0.1405  0.4796  0.8259
   63SAPC   H4R 5033   0.189   4.932   6.940 -0.7190 -0.5176  0.1238
   63SAPC   H4S 5034   0.356   4.904   6.994  1.2781 -2.3052  1.1193
   63SAPC   C25 5035   0.234   4.728   6.949 -0.9430 -0.5273  0.1458
   63SAPC   H5R 5036   0.243   4.660   6.863 -0.7675  0.4151 -0.6018
   63SAPC   C26 5037   0.183   4.679   7.063  0.3067  0.3436 -0.4572
   63SAPC   H6R 5038   0.147   4.576   7.064  4.1281 -1.1439 -0.0150
   63SAPC   C27 5039   0.161   4.760   7.190  0.3475  0.3643 -0.1601
   63SAPC   H7R 5040   0.142   4.868   7.168 -1.8529 -0.1806 -1.1760
   63SAPC   H7S 5041   0.254   4.764   7.251  1.6773  0.5129 -2.1178
   63SAPC   C28 5042   0.042   4.706   7.271 -0.3715  0.6827  0.4860
   63SAPC   H8R 5043  -0.053   4.712   7.216  0.1043  0.9847 -0.3103
   63SAPC   C29 5044   0.041   4.641   7.389 -0.9915  0.3588  0.7307
   63SAPC   H9R 5045  -0.059   4.633   7.435 -1.7383 -0.0173 -0.8684
   63SAPC  C210 5046   0.168   4.607   7.466 -0.2826  0.3954 -0.9436
   63SAPC  H10R 5047   0.254   4.603   7.395  0.2090 -0.4256 -0.3236
   63SAPC  H10S 5048   0.160   4.506   7.510  1.9178  0.1063 -1.0706
   63SAPC  C211 5049   0.213   4.717   7.553  0.2347 -0.6473  0.6354
   63SAPC  H11R 5050   0.186   4.816   7.512 -1.5353  0.1949  3.5013
   63SAPC  C212 5051   0.268   4.711   7.672 -0.6261 -0.3394  0.1217
   63SAPC  H12R 5052   0.294   4.802   7.728  0.2634 -1.9722  2.5135
   63SAPC  C213 5053   0.300   4.582   7.741 -0.1490  0.4948  0.2203
   63SAPC  H13R 5054   0.391   4.593   7.805 -0.6932 -1.7688  1.4984
   63SAPC  H13S 5055   0.332   4.503   7.670 -2.2525 -1.9691  1.8106
   63SAPC  C214 5056   0.191   4.532   7.823  0.8806 -0.2335 -0.4236
   63SAPC  H14R 5057   0.112   4.492   7.757 -0.2803  0.2402  0.6187
   63SAPC  C215 5058   0.168   4.540   7.957  0.3649  0.3895 -0.1546
   63SAPC  H15R 5059   0.065   4.520   7.993 -0.9918  1.0850 -3.3053
   63SAPC  C216 5060   0.256   4.612   8.058 -0.4460 -0.0170 -0.7346
   63SAPC  H16R 5061   0.193   4.692   8.103 -0.2540  0.1727 -0.8004
   63SAPC  H16S 5062   0.342   4.668   8.015  0.4220  1.8824  3.0639
   63SAPC  C217 5063   0.320   4.535   8.180  0.0224 -0.0621  0.3741
   63SAPC  H17R 5064   0.400   4.586   8.237 -0.8173 -1.7403  3.2428
   63SAPC  H17S 5065   0.379   4.460   8.124  1.7476  1.7623 -0.3626
   63SAPC  C218 5066   0.210   4.488   8.275  0.4614 -0.1556  0.4005
   63SAPC  H18R 5067   0.125   4.442   8.220  1.1337  0.2809 -1.0578
   63SAPC  H18S 5068   0.170   4.581   8.320 -0.3811 -0.6607  0.7078
   63SAPC  C219 5069   0.248   4.396   8.391 -0.0964 -0.3155  0.5937
   63SAPC  H19R 5070   0.249   4.295   8.345  1.4225 -0.2254  0.3731
   63SAPC  H19S 5071   0.179   4.392   8.478  0.3381  1.2032  1.0388
   63SAPC  C220 5072   0.393   4.417   8.454 -0.1564 -0.6233  0.0948
   63SAPC  H20R 5073   0.405   4.348   8.540  3.1386 -0.0202  0.2837
   63SAPC  H20S 5074   0.405   4.525   8.481  1.1865 -0.8814  0.6473
   63SAPC  H20T 5075   0.465   4.393   8.372  0.2840 -1.6944  0.7816
   63SAPC   C33 5076   0.650   4.410   7.268 -0.5627 -0.0409  0.1583
   63SAPC   H3X 5077   0.754   4.443   7.286  0.2874 -2.9663  1.2416
   63SAPC   H3Y 5078   0.651   4.300   7.253  0.0674 -0.2670  1.7370
   63SAPC   C34 5079   0.570   4.436   7.398  0.3356 -1.1875  0.4069
   63SAPC   H4X 5080   0.466   4.397   7.394 -0.8044  1.6717 -0.7282
   63SAPC   H4Y 5081   0.564   4.545   7.415 -2.2637 -1.1468 -0.3005
   63SAPC   C35 5082   0.647   4.378   7.513  0.0468  0.2260  0.2080
   63SAPC   H5X 5083   0.752   4.413   7.514  0.2843 -0.4593  1.4397
   63SAPC   H5Y 5084   0.641   4.267   7.502 -2.0116  0.2723  0.3429
   63SAPC   C36 5085   0.593   4.399   7.654 -0.7873  0.3308 -0.4507
   63SAPC   H6X 5086   0.513   4.324   7.669 -1.7702  1.4894  0.2318
   63SAPC   H6Y 5087   0.549   4.498   7.677 -0.1629  0.7232 -0.8978
   63SAPC   C37 5088   0.691   4.352   7.760 -0.1710  0.1874  0.5433
   63SAPC   H7X 5089   0.770   4.430   7.761  1.4498 -1.3816 -0.2159
   63SAPC   H7Y 5090   0.748   4.266   7.719 -0.0974  0.1611  0.6981
   63SAPC   C38 5091   0.642   4.321   7.903 -0.4471  0.1377 -0.0286
   63SAPC   H8X 5092   0.597   4.406   7.958  0.9198  0.7643  0.1618
   63SAPC   H8Y 5093   0.738   4.305   7.955 -0.5743  0.8927  0.4553
   63SAPC   C39 5094   0.551   4.200   7.906 -1.0063 -0.3942 -0.3788
   63SAPC   H9X 5095   0.579   4.116   7.840  0.5192 -0.7786  0.7193
   63SAPC   H9Y 5096   0.445   4.223   7.880 -1.0441  0.8159  0.7287
   63SAPC  C310 5097   0.531   4.140   8.048  0.4471  0.0672 -0.1000
   63SAPC  H10X 5098   0.474   4.214   8.109  0.6058  0.8682 -0.8967
   63SAPC  H10Y 5099   0.626   4.115   8.101  1.1159  0.8823 -0.8848
   63SAPC  C311 5100   0.453   4.007   8.038  0.8690 -0.4517 -0.3868
   63SAPC  H11X 5101   0.506   3.933   7.974 -0.1538 -2.4896  1.0284
   63SAPC  H11Y 5102   0.351   4.018   7.995  0.6922  0.5685  0.2445
   63SAPC  C312 5103   0.438   3.943   8.179 -0.0943  0.3751  0.3578
   63SAPC  H12X 5104   0.543   3.925   8.210  1.1984  1.5474 -2.8970
   63SAPC  H12Y 5105   0.397   3.840   8.179  0.6601  0.0633  1.0519
   63SAPC  C313 5106   0.357   4.021   8.277 -0.9402  0.1183 -0.6457
   63SAPC  H13X 5107   0.267   4.065   8.227 -1.6987  0.0437  0.5988
   63SAPC  H13Y 5108   0.428   4.097   8.315  1.5377 -1.5758 -1.6159
   63SAPC  C314 5109   0.307   3.945   8.402  0.5462  1.1533  0.3603
   63SAPC  H14X 5110   0.397   3.907   8.455 -0.5727  0.7115  2.0087
   63SAPC  H14Y 5111   0.254   3.854   8.366  1.9514 -1.1723  3.6793
   63SAPC  C315 5112   0.218   4.027   8.489  0.7221 -0.0665  0.3025
   63SAPC  H15X 5113   0.126   4.027   8.427  0.8689 -1.8961  0.0304
   63SAPC  H15Y 5114   0.260   4.128   8.507  0.4551  0.6461 -2.5695
   63SAPC  C316 5115   0.187   3.964   8.628  0.6350 -0.8778 -0.5751
   63SAPC  H16X 5116   0.163   3.856   8.618 -1.6197 -0.6188  1.1822
   63SAPC  H16Y 5117   0.091   4.005   8.665  1.0835 -0.3549  0.0289
   63SAPC  C317 5118   0.303   3.977   8.727  0.7067  0.6868 -0.0763
   63SAPC  H17X 5119   0.317   4.084   8.753 -1.5600  1.1176 -0.4684
   63SAPC  H17Y 5120   0.387   3.933   8.670  0.9300 -0.9408  1.4147
   63SAPC  C318 5121   0.279   3.901   8.855  0.2205 -0.3765 -0.2631
   63SAPC  H18X 5122   0.246   3.796   8.844  2.0281 -1.1623  1.3022
   63SAPC  H18Y 5123   0.195   3.941   8.915  1.1556 -0.1861  0.9451
   63SAPC  H18Z 5124   0.365   3.903   8.924  2.1518  0.4445 -2.5618
   64SAPC     N 5125   1.337   5.574   6.152  0.3181 -0.4339  0.1836
   64SAPC   C12 5126   1.337   5.451   6.244  0.1752 -0.8504  0.0568
   64SAPC  H12A 5127   1.433   5.454   6.294  0.0220 -2.0062  0.4495
   64SAPC  H12B 5128   1.325   5.358   6.192 -1.1460 -1.0015  0.5985
   64SAPC   C13 5129   1.209   5.583   6.076  0.5996  0.7327 -0.5185
   64SAPC  H13A 5130   1.183   5.684   6.047  1.8007  1.9404  2.2787
   64SAPC  H13B 5131   1.217   5.524   5.986  1.0334 -1.1716  0.7030
   64SAPC  H13C 5132   1.137   5.529   6.136 -0.6125  2.8712  0.0463
   64SAPC   C14 5133   1.347   5.704   6.221 -0.3769 -0.3662  0.1179
   64SAPC  H14A 5134   1.448   5.712   6.259  0.7787  0.5365 -2.8824
   64SAPC  H14B 5135   1.326   5.778   6.146 -1.9789 -0.6383  0.2735
   64SAPC  H14C 5136   1.276   5.725   6.300 -0.0124  0.7726  0.1591
   64SAPC   C15 5137   1.444   5.568   6.046 -0.1523  0.5614 -0.1606
   64SAPC  H15A 5138   1.426   5.483   5.981  0.0473 -0.2350  0.8021
   64SAPC  H15B 5139   1.444   5.656   5.984 -3.8075 -0.6087 -2.1892
   64SAPC  H15C 5140   1.544   5.559   6.085 -0.6446 -1.8051  0.7505
   64SAPC   C11 5141   1.224   5.435   6.353 -0.3396 -0.2523 -0.4474
   64SAPC  H11A 5142   1.207   5.527   6.412  0.2077 -0.1867 -0.3852
   64SAPC  H11B 5143   1.243   5.359   6.432 -2.2754 -0.9335 -0.5770
   64SAPC     P 5144   1.056   5.256   6.264 -0.0612 -0.5074  0.1998
   64SAPC   O13 5145   0.947   5.254   6.159 -0.3521 -0.1842  0.0389
   64SAPC   O14 5146   1.177   5.178   6.236  0.0342  0.1047  0.2986
   64SAPC   O12 5147   1.102   5.408   6.283 -0.6181  0.0695  0.2576
   64SAPC   O11 5148   1.005   5.209   6.403  0.0378 -0.5448  0.1393
   64SAPC    C1 5149   0.887   5.269   6.461 -0.1540 -0.4882 -0.1939
   64SAPC    HA 5150   0.899   5.380   6.459  0.2272 -0.5039  0.9667
   64SAPC    HB 5151   0.793   5.245   6.405  0.5170 -0.5222 -1.3371
   64SAPC    C2 5152   0.869   5.233   6.612 -0.5181  0.3714 -0.7132
   64SAPC    HS 5153   0.797   5.303   6.659 -1.4319 -2.2961  2.2047
   64SAPC   O21 5154   0.996   5.248   6.688  0.1019  0.3154 -0.0939
   64SAPC   C21 5155   1.045   5.373   6.678  0.7039  0.2715 -0.7026
   64SAPC   O22 5156   0.975   5.474   6.657  0.1130  0.3775  0.6502
   64SAPC   C22 5157   1.188   5.373   6.716 -0.0299  0.3632  0.4903
   64SAPC   H2R 5158   1.232   5.279   6.676  2.9080  2.0654 -0.5728
   64SAPC   H2S 5159   1.221   5.459   6.654 -1.8339  1.0712  0.4718
   64SAPC    C3 5160   0.814   5.090   6.638  0.1853  0.3943  0.4705
   64SAPC    HX 5161   0.895   5.023   6.604 -1.8984 -1.8825 -0.2737
   64SAPC    HY 5162   0.727   5.067   6.573  3.0696 -1.4500 -3.0942
   64SAPC   O31 5163   0.786   5.072   6.776 -0.1422 -0.4539 -0.0781
   64SAPC   C31 5164   0.875   5.013   6.852 -0.3008 -0.3295 -0.5200
   64SAPC   O32 5165   0.979   4.964   6.810  0.6284  0.2691 -0.0840
   64SAPC   C32 5166   0.836   5.011   7.003 -0.0147  0.8470 -0.1190
   64SAPC   H2X 5167   0.736   4.964   7.013  0.8044 -1.0134 -0.0972
   64SAPC   H2Y 5168   0.823   5.117   7.032 -1.1173  0.1835  2.0134
   64SAPC   C23 5169   1.218   5.397   6.868  0.3699 -0.2576 -0.0962
   64SAPC   H3R 5170   1.170   5.491   6.902  0.9593  0.0157 -0.0025
   64SAPC   H3S 5171   1.324   5.429   6.858  1.2490 -3.0583 -0.7601
   64SAPC   C24 5172   1.192   5.274   6.955 -0.7288 -0.2390 -0.1267
   64SAPC   H4R 5173   1.274   5.257   7.028 -0.2278 -1.4599 -0.9532
   64SAPC   H4S 5174   1.183   5.188   6.885  1.4143  1.0724 -2.1626
   64SAPC   C25 5175   1.059   5.283   7.020 -0.3355  0.3171  0.1027
   64SAPC   H5R 5176   0.973   5.272   6.953 -0.3498 -0.2479  0.2028
   64SAPC   C26 5177   1.029   5.290   7.155 -0.0209 -0.1692  0.0564
   64SAPC   H6R 5178   0.924   5.267   7.181  0.3779 -0.1909  1.7361
   64SAPC   C27 5179   1.115   5.292   7.273 -0.2523 -0.2913 -0.2357
   64SAPC   H7R 5180   1.044   5.316   7.355 -1.3164 -3.0269 -0.2816
   64SAPC   H7S 5181   1.191   5.373   7.261  1.3801 -1.9843 -2.0771
   64SAPC   C28 5182   1.182   5.162   7.289  0.6015  0.6086 -0.0238
   64SAPC   H8R 5183   1.219   5.107   7.201 -0.1077  0.2352 -0.0959
   64SAPC   C29 5184   1.193   5.093   7.403  0.0735 -0.1298  0.0261
   64SAPC   H9R 5185   1.239   4.993   7.396  1.1844  0.4800 -2.7116
   64SAPC  C210 5186   1.128   5.135   7.530  0.6075 -0.1179 -0.6878
   64SAPC  H10R 5187   1.021   5.154   7.507 -0.2694 -2.0691  1.3609
   64SAPC  H10S 5188   1.174   5.232   7.558  1.4536 -0.5238 -0.6218
   64SAPC  C211 5189   1.142   5.032   7.633 -0.1863 -0.2318 -0.3365
   64SAPC  H11R 5190   1.214   4.952   7.614 -1.1489 -0.7023 -2.2501
   64SAPC  C212 5191   1.075   5.043   7.754 -0.2030  0.4116  0.5309
   64SAPC  H12R 5192   1.090   4.953   7.816  3.4289 -0.1047 -0.8609
   64SAPC  C213 5193   0.976   5.151   7.801 -0.0491  0.5342 -0.1622
   64SAPC  H13R 5194   0.886   5.108   7.851  0.6165 -0.6320  0.0819
   64SAPC  H13S 5195   0.938   5.206   7.713  0.8725 -0.2011 -1.0507
   64SAPC  C214 5196   1.052   5.248   7.887  0.3671  0.6469 -0.2086
   64SAPC  H14R 5197   1.113   5.319   7.830  1.3272  0.3736  0.4399
   64SAPC  C215 5198   1.052   5.245   8.023 -0.0067 -0.4271  0.1702
   64SAPC  H15R 5199   1.124   5.313   8.070  0.9565 -0.0246 -1.7649
   64SAPC  C216 5200   0.981   5.151   8.119 -0.1669  0.0530 -0.5590
   64SAPC  H16R 5201   0.949   5.064   8.057  0.7006 -0.0624 -0.8599
   64SAPC  H16S 5202   0.896   5.202   8.169 -1.5191 -1.2474 -1.4533
   64SAPC  C217 5203   1.079   5.112   8.228 -0.0945 -0.0523 -0.2397
   64SAPC  H17R 5204   1.116   5.207   8.271  2.1183  0.6034 -3.3028
   64SAPC  H17S 5205   1.163   5.061   8.177  0.2592 -0.9121  1.1255
   64SAPC  C218 5206   0.992   5.028   8.327 -0.5068  0.1576 -1.0152
   64SAPC  H18R 5207   0.929   4.963   8.263 -0.8663 -1.6243  1.0149
   64SAPC  H18S 5208   0.919   5.094   8.378  0.0181 -1.4243  2.0203
   64SAPC  C219 5209   1.083   4.953   8.434  0.0670  0.0004  0.4454
   64SAPC  H19R 5210   1.142   5.029   8.489 -0.0588 -0.2742  0.9551
   64SAPC  H19S 5211   1.134   4.872   8.378 -0.7466 -1.3889  1.6486
   64SAPC  C220 5212   0.999   4.884   8.535  0.1429  0.3177 -0.4488
   64SAPC  H20R 5213   0.935   4.960   8.586 -0.2944  1.2229 -2.2561
   64SAPC  H20S 5214   1.062   4.830   8.610  3.0803  0.2704 -2.7742
   64SAPC  H20T 5215   0.924   4.818   8.487 -1.2776  1.4620  0.0840
   64SAPC   C33 5216   0.932   4.927   7.092  0.4305 -0.3776 -0.0802
   64SAPC   H3X 5217   1.030   4.974   7.068 -0.3130  1.6579  0.6532
   64SAPC   H3Y 5218   0.926   4.822   7.058 -0.0974  0.2748 -2.1653
   64SAPC   C34 5219   0.899   4.933   7.244  0.9463 -0.5230  0.0784
   64SAPC   H4X 5220   0.900   5.037   7.282  2.2015 -0.9109  1.1726
   64SAPC   H4Y 5221   0.985   4.882   7.291  2.1690  0.5290 -0.9459
   64SAPC   C35 5222   0.765   4.874   7.276  0.1174  0.9113  0.0892
   64SAPC   H5X 5223   0.739   4.811   7.188  2.6386  0.3291 -0.3103
   64SAPC   H5Y 5224   0.691   4.957   7.279 -0.7564  0.2318 -1.4131
   64SAPC   C36 5225   0.768   4.778   7.397  0.2333 -0.0662 -0.1997
   64SAPC   H6X 5226   0.840   4.695   7.381 -0.1673 -0.7297  1.2577
   64SAPC   H6Y 5227   0.662   4.743   7.399 -0.5358  2.0468 -0.2648
   64SAPC   C37 5228   0.784   4.854   7.525  0.7076  0.1038  0.3449
   64SAPC   H7X 5229   0.717   4.943   7.527 -1.3476 -1.3213  3.0040
   64SAPC   H7Y 5230   0.893   4.872   7.535  1.2083 -2.9098  1.3872
   64SAPC   C38 5231   0.742   4.765   7.651 -0.3581  0.2045 -0.9061
   64SAPC   H8X 5232   0.788   4.665   7.636 -0.6663 -0.3680  1.4979
   64SAPC   H8Y 5233   0.632   4.768   7.638 -0.5235  2.0117  0.6009
   64SAPC   C39 5234   0.780   4.825   7.786 -0.7682 -0.0807 -0.0274
   64SAPC   H9X 5235   0.737   4.927   7.792 -1.2471 -0.0937 -2.4472
   64SAPC   H9Y 5236   0.888   4.826   7.812 -0.6707 -1.5821 -0.2694
   64SAPC  C310 5237   0.729   4.731   7.898  0.5925  0.1957  0.2670
   64SAPC  H10X 5238   0.772   4.632   7.874  0.8508  0.9356 -2.6668
   64SAPC  H10Y 5239   0.618   4.722   7.903  0.7055 -1.3948  0.4051
   64SAPC  C311 5240   0.770   4.777   8.040  0.0481  0.5560  0.4620
   64SAPC  H11X 5241   0.722   4.877   8.048 -1.1266  0.0574 -0.2049
   64SAPC  H11Y 5242   0.879   4.800   8.038  0.2025 -0.1773  0.2269
   64SAPC  C312 5243   0.730   4.676   8.149 -0.1759  0.0721  0.2099
   64SAPC  H12X 5244   0.620   4.659   8.156 -0.2016  0.4808  0.9584
   64SAPC  H12Y 5245   0.747   4.724   8.248  1.1296 -1.4987  0.7852
   64SAPC  C313 5246   0.805   4.539   8.147  0.4773 -0.1356  0.1644
   64SAPC  H13X 5247   0.916   4.554   8.150  0.3670  0.7799  0.1146
   64SAPC  H13Y 5248   0.777   4.493   8.050 -3.0145  1.6252  0.2042
   64SAPC  C314 5249   0.767   4.439   8.258  0.1894 -0.3256 -0.0541
   64SAPC  H14X 5250   0.658   4.423   8.259  0.1060  0.0973 -1.1536
   64SAPC  H14Y 5251   0.789   4.485   8.358 -0.4739 -1.4336  0.6142
   64SAPC  C315 5252   0.827   4.302   8.250 -0.5038 -0.6559  0.1619
   64SAPC  H15X 5253   0.932   4.312   8.285 -0.4001 -3.2840  0.8948
   64SAPC  H15Y 5254   0.824   4.281   8.141  1.2293  0.4879 -0.1430
   64SAPC  C316 5255   0.762   4.201   8.341 -0.2587 -0.0871  0.6425
   64SAPC  H16X 5256   0.791   4.100   8.308 -0.0310 -0.4709  1.9636
   64SAPC  H16Y 5257   0.654   4.201   8.313 -0.8197 -2.8957  2.4671
   64SAPC  C317 5258   0.793   4.219   8.490 -0.1128 -0.5406  0.0543
   64SAPC  H17X 5259   0.778   4.325   8.522 -1.5455 -0.7187  0.0336
   64SAPC  H17Y 5260   0.901   4.205   8.514 -0.4089  1.1436  2.8566
   64SAPC  C318 5261   0.692   4.122   8.563 -0.2104  0.1553 -0.5881
   64SAPC  H18X 5262   0.701   4.132   8.673 -1.3716  0.2825 -0.4888
   64SAPC  H18Y 5263   0.724   4.019   8.536  0.4884  0.5385 -1.2599
   64SAPC  H18Z 5264   0.586   4.131   8.530 -0.4543 -1.8633 -0.5174
   65SAPC     N 5265   1.617   1.756   5.741  0.1291  0.0567 -0.3465
   65SAPC   C12 5266   1.557   1.742   5.872 -0.1079  0.2704 -0.3957
   65SAPC  H12A 5267   1.464   1.696   5.845  0.2442 -1.1286  0.6325
   65SAPC  H12B 5268   1.554   1.836   5.926  2.7861 -0.2478  0.9108
   65SAPC   C13 5269   1.766   1.787   5.742  0.1577  0.2083 -0.3548
   65SAPC  H13A 5270   1.820   1.730   5.816  0.3818  0.6195 -0.1957
   65SAPC  H13B 5271   1.815   1.779   5.647  1.3192  1.6328  0.0953
   65SAPC  H13C 5272   1.771   1.891   5.769 -2.1954  0.1685  0.5332
   65SAPC   C14 5273   1.598   1.624   5.664 -0.5073 -0.4713 -0.6259
   65SAPC  H14A 5274   1.494   1.608   5.642 -0.6922  0.0077 -0.1257
   65SAPC  H14B 5275   1.651   1.630   5.570  0.2097 -1.3776 -0.3017
   65SAPC  H14C 5276   1.631   1.539   5.723 -1.8395 -1.0844 -0.7332
   65SAPC   C15 5277   1.546   1.858   5.665 -0.3990 -0.4783  0.3271
   65SAPC  H15A 5278   1.440   1.847   5.649 -0.3936  1.4528 -1.4558
   65SAPC  H15B 5279   1.564   1.958   5.700 -1.7602 -0.3129  0.6143
   65SAPC  H15C 5280   1.583   1.855   5.563 -1.8457 -1.2642 -0.2123
   65SAPC   C11 5281   1.618   1.640   5.968 -0.7757 -0.3530 -0.6807
   65SAPC  H11A 5282   1.618   1.544   5.912 -1.2348 -0.7012 -0.0892
   65SAPC  H11B 5283   1.550   1.612   6.051 -0.5072  0.6065 -0.1092
   65SAPC     P 5284   1.830   1.568   6.112 -0.2947  0.1635 -0.1456
   65SAPC   O13 5285   1.845   1.437   6.050 -0.0881  0.1010  0.2834
   65SAPC   O14 5286   1.955   1.633   6.141 -0.3621  0.2232 -0.2385
   65SAPC   O12 5287   1.746   1.668   6.022 -0.1177 -0.0201 -0.0684
   65SAPC   O11 5288   1.748   1.558   6.250  0.0523  0.1595 -0.2823
   65SAPC    C1 5289   1.684   1.670   6.314 -0.3100  0.3439 -0.8282
   65SAPC    HA 5290   1.752   1.758   6.313  0.3705  0.0891  3.1061
   65SAPC    HB 5291   1.591   1.698   6.262 -1.9105 -0.0652  1.6331
   65SAPC    C2 5292   1.662   1.627   6.463  0.0944  0.3482  0.8842
   65SAPC    HS 5293   1.566   1.572   6.460 -0.3689  0.9506  2.9785
   65SAPC   O21 5294   1.660   1.745   6.548 -0.0923  0.1211  1.1198
   65SAPC   C21 5295   1.557   1.815   6.533 -0.6969  0.1325 -0.6739
   65SAPC   O22 5296   1.447   1.796   6.487 -0.9677  0.3356 -0.5041
   65SAPC   C22 5297   1.603   1.952   6.594  0.4476  0.3227 -0.0463
   65SAPC   H2R 5298   1.686   1.994   6.534  0.8115 -0.8395 -0.3923
   65SAPC   H2S 5299   1.520   2.025   6.583 -0.7241 -1.0601 -0.8515
   65SAPC    C3 5300   1.771   1.536   6.513 -0.0154  0.2517 -0.1805
   65SAPC    HX 5301   1.877   1.561   6.488 -0.3950  2.0350 -0.1267
   65SAPC    HY 5302   1.750   1.443   6.456 -2.7488  1.2654 -0.9854
   65SAPC   O31 5303   1.757   1.515   6.654  0.1771 -0.6235 -0.0442
   65SAPC   C31 5304   1.822   1.588   6.734  0.5978 -0.3113 -0.4727
   65SAPC   O32 5305   1.909   1.670   6.709 -0.9307  0.1778 -0.3437
   65SAPC   C32 5306   1.750   1.579   6.870  0.1654 -0.3634  0.3059
   65SAPC   H2X 5307   1.746   1.474   6.906 -3.4963 -0.4050  0.1864
   65SAPC   H2Y 5308   1.643   1.606   6.853  0.4010  0.8954  0.7681
   65SAPC   C23 5309   1.658   1.935   6.733 -0.4214 -0.1843 -0.1872
   65SAPC   H3R 5310   1.709   2.030   6.759  0.5715 -0.5708 -0.6748
   65SAPC   H3S 5311   1.739   1.860   6.737  0.0926  0.3688 -0.1446
   65SAPC   C24 5312   1.556   1.897   6.847 -0.6036  0.2559 -0.1116
   65SAPC   H4R 5313   1.615   1.886   6.940 -0.7688  0.1724 -0.0172
   65SAPC   H4S 5314   1.501   1.805   6.815  0.4596  0.0807 -1.6021
   65SAPC   C25 5315   1.447   2.001   6.857 -0.1844  0.1702  0.3609
   65SAPC   H5R 5316   1.398   2.036   6.764  0.2368  1.8082  0.7221
   65SAPC   C26 5317   1.390   2.051   6.968  0.2351  0.1739 -0.3117
   65SAPC   H6R 5318   1.316   2.133   6.959  0.1234  0.1311  0.2357
   65SAPC   C27 5319   1.434   2.020   7.106 -0.9248 -0.1219 -0.2647
   65SAPC   H7R 5320   1.410   1.914   7.127 -1.7092  0.0771 -0.0996
   65SAPC   H7S 5321   1.374   2.082   7.176  1.2547  0.2404  1.3805
   65SAPC   C28 5322   1.573   2.065   7.146  0.4840 -0.0695 -0.4992
   65SAPC   H8R 5323   1.621   2.134   7.076  2.0901  0.0615  0.6631
   65SAPC   C29 5324   1.642   2.039   7.257  0.1305  0.3890  0.1283
   65SAPC   H9R 5325   1.744   2.079   7.267 -0.1783  1.0992  0.5486
   65SAPC  C210 5326   1.600   1.957   7.376  0.7756  0.0269 -0.7359
   65SAPC  H10R 5327   1.504   1.904   7.364 -0.1187  1.0631  1.4088
   65SAPC  H10S 5328   1.571   2.037   7.448  2.2070 -0.4462  0.4249
   65SAPC  C211 5329   1.705   1.878   7.440  0.2610 -0.2613  0.0121
   65SAPC  H11R 5330   1.739   1.786   7.390 -1.4435 -0.3290 -1.1180
   65SAPC  C212 5331   1.774   1.898   7.558 -0.1209  0.1565  0.0599
   65SAPC  H12R 5332   1.859   1.831   7.574  1.6421  1.7590 -2.0175
   65SAPC  C213 5333   1.765   2.021   7.643  0.6682  0.5550  0.8375
   65SAPC  H13R 5334   1.701   2.100   7.598  1.7996  0.4460 -1.0872
   65SAPC  H13S 5335   1.866   2.067   7.653  0.9251 -0.2173  1.9170
   65SAPC  C214 5336   1.710   1.983   7.775 -0.3734  0.2207  0.3209
   65SAPC  H14R 5337   1.647   1.893   7.773  1.3924 -1.0540 -1.3779
   65SAPC  C215 5338   1.715   2.063   7.880 -0.0985  0.3426 -0.3425
   65SAPC  H15R 5339   1.665   2.028   7.971 -3.3195 -2.2216 -2.8618
   65SAPC  C216 5340   1.790   2.201   7.888  0.1567 -0.4738 -0.2346
   65SAPC  H16R 5341   1.708   2.276   7.898 -0.5551 -1.1674 -0.7183
   65SAPC  H16S 5342   1.841   2.239   7.797 -1.9052  3.5999  0.0899
   65SAPC  C217 5343   1.880   2.222   8.011 -0.3472  0.1532  0.2480
   65SAPC  H17R 5344   1.953   2.304   7.994  0.5179 -0.6161  0.1469
   65SAPC  H17S 5345   1.946   2.132   8.016 -1.0034 -0.4842 -1.5038
   65SAPC  C218 5346   1.826   2.213   8.150  0.2025 -0.3620 -0.2876
   65SAPC  H18R 5347   1.900   2.183   8.227  0.2102 -0.3078 -0.2748
   65SAPC  H18S 5348   1.756   2.128   8.160  0.6124 -1.1184 -3.0344
   65SAPC  C219 5349   1.756   2.342   8.186  0.1128 -0.4162 -0.3535
   65SAPC  H19R 5350   1.693   2.373   8.100 -1.5175 -0.2621  0.8438
   65SAPC  H19S 5351   1.834   2.418   8.208 -1.1947  0.8135  0.1140
   65SAPC  C220 5352   1.659   2.349   8.308 -0.6780 -0.2855 -0.0215
   65SAPC  H20R 5353   1.648   2.458   8.324  1.4336 -0.2418  1.6934
   65SAPC  H20S 5354   1.700   2.315   8.405  1.2436  3.6149  0.7241
   65SAPC  H20T 5355   1.558   2.308   8.285 -0.7037  0.8366 -2.1447
   65SAPC   C33 5356   1.820   1.656   6.983  0.2698 -0.3458  0.4602
   65SAPC   H3X 5357   1.814   1.764   6.958  2.4626 -0.5895 -1.4961
   65SAPC   H3Y 5358   1.926   1.634   7.010  0.1836  0.3817  1.4679
   65SAPC   C34 5359   1.747   1.639   7.111  0.5533  0.3371 -0.3455
   65SAPC   H4X 5360   1.637   1.639   7.094  0.7131  1.3194 -1.4355
   65SAPC   H4Y 5361   1.766   1.729   7.173  1.5709  1.6521 -2.4647
   65SAPC   C35 5362   1.790   1.514   7.183 -0.6089 -0.1393  0.3356
   65SAPC   H5X 5363   1.899   1.510   7.200 -0.5945 -0.4854  0.1798
   65SAPC   H5Y 5364   1.776   1.431   7.111  1.5530  1.1594 -1.7234
   65SAPC   C36 5365   1.709   1.492   7.315  0.5381  0.2990  0.5368
   65SAPC   H6X 5366   1.604   1.487   7.280  1.2713 -1.0964 -1.6682
   65SAPC   H6Y 5367   1.716   1.575   7.389 -0.4904  1.7336 -0.9068
   65SAPC   C37 5368   1.754   1.367   7.383  0.2039 -0.4751 -0.4822
   65SAPC   H7X 5369   1.863   1.381   7.401  0.1356  0.9054 -1.0458
   65SAPC   H7Y 5370   1.744   1.268   7.332  0.6766 -0.8016  0.0431
   65SAPC   C38 5371   1.694   1.359   7.531  0.4305  0.1158  0.2400
   65SAPC   H8X 5372   1.584   1.356   7.525  0.1407  2.9814  2.2225
   65SAPC   H8Y 5373   1.716   1.453   7.586  0.0920  1.3009 -1.5677
   65SAPC   C39 5374   1.744   1.231   7.599 -0.1110  0.0907  0.7713
   65SAPC   H9X 5375   1.850   1.223   7.566  0.0190  0.3272  1.1243
   65SAPC   H9Y 5376   1.686   1.146   7.557  1.5910 -0.4109 -0.6827
   65SAPC  C310 5377   1.731   1.236   7.752 -0.4091  0.3272  0.5208
   65SAPC  H10X 5378   1.773   1.329   7.796 -2.0600  0.5875  1.6450
   65SAPC  H10Y 5379   1.783   1.143   7.784  0.3687  0.7624  0.5337
   65SAPC  C311 5380   1.587   1.227   7.798  0.1200  0.8101  0.1614
   65SAPC  H11X 5381   1.551   1.131   7.756 -0.3915  0.3528  1.5811
   65SAPC  H11Y 5382   1.518   1.300   7.750 -1.8317 -1.6016 -0.9258
   65SAPC  C312 5383   1.563   1.218   7.956  0.6368  0.1517 -0.5566
   65SAPC  H12X 5384   1.606   1.309   8.004 -0.7713 -0.7133  2.5898
   65SAPC  H12Y 5385   1.618   1.129   7.994 -0.3836 -0.9628 -1.5996
   65SAPC  C313 5386   1.418   1.212   8.012  0.0626 -0.6592  0.1426
   65SAPC  H13X 5387   1.374   1.114   7.982  0.7617 -0.4034 -1.8725
   65SAPC  H13Y 5388   1.364   1.295   7.963 -0.3846 -1.1573 -0.2246
   65SAPC  C314 5389   1.410   1.224   8.163 -0.3716  0.1739 -0.2734
   65SAPC  H14X 5390   1.408   1.328   8.202  1.7420  0.0030  0.4103
   65SAPC  H14Y 5391   1.513   1.196   8.193  0.2342 -0.8984 -3.0308
   65SAPC  C315 5392   1.306   1.130   8.230  0.3486 -0.5368  0.1572
   65SAPC  H15X 5393   1.332   1.025   8.202  0.9900 -0.5282  0.6883
   65SAPC  H15Y 5394   1.201   1.142   8.195  0.5772  0.6532 -0.1577
   65SAPC  C316 5395   1.290   1.142   8.379 -0.9866  0.5564  0.0428
   65SAPC  H16X 5396   1.244   1.238   8.410  2.6943  2.2140  0.9608
   65SAPC  H16Y 5397   1.396   1.144   8.414  0.3957 -1.7781 -3.4639
   65SAPC  C317 5398   1.217   1.023   8.453 -0.1082 -0.8824  0.4770
   65SAPC  H17X 5399   1.266   0.926   8.429 -1.1667 -0.9781 -1.4927
   65SAPC  H17Y 5400   1.111   1.023   8.420 -0.9410  0.9308  2.8434
   65SAPC  C318 5401   1.212   1.043   8.608 -0.1690  0.1294 -0.3535
   65SAPC  H18X 5402   1.317   1.043   8.645 -0.3491 -4.2544  0.6607
   65SAPC  H18Y 5403   1.161   0.954   8.649  1.9306 -1.3002 -0.6589
   65SAPC  H18Z 5404   1.155   1.135   8.634 -2.1400 -1.1404 -0.0420
   66SAPC     N 5405   5.959   5.337   5.946  0.2400  0.0506 -0.0940
   66SAPC   C12 5406   5.975   5.473   5.996 -0.3230 -0.4591  0.1335
   66SAPC  H12A 5407   5.885   5.526   5.968  0.2145 -0.3198 -1.4786
   66SAPC  H12B 5408   6.062   5.528   5.962 -0.3027 -0.3826  0.3097
   66SAPC   C13 5409   6.069   5.251   5.977 -0.4214 -0.5555  0.0188
   66SAPC  H13A 5410   6.078   5.239   6.084  1.7037  0.2352 -0.0105
   66SAPC  H13B 5411   6.064   5.151   5.935  2.2770  0.7062 -3.8733
   66SAPC  H13C 5412   6.161   5.289   5.934 -2.2428  0.1074 -3.6264
   66SAPC   C14 5413   5.836   5.274   6.013 -0.1012  0.2602  0.2386
   66SAPC  H14A 5414   5.845   5.270   6.121 -1.8223 -0.4866  0.3860
   66SAPC  H14B 5415   5.748   5.333   5.990 -0.9117 -1.1555 -0.4246
   66SAPC  H14C 5416   5.826   5.174   5.975  0.2156 -0.4233  1.8672
   66SAPC   C15 5417   5.916   5.342   5.804 -0.5808 -0.0788  0.0501
   66SAPC  H15A 5418   5.832   5.407   5.785 -1.9630 -1.1669  2.0958
   66SAPC  H15B 5419   5.990   5.390   5.742 -0.1151  0.8034  1.2328
   66SAPC  H15C 5420   5.892   5.245   5.765 -0.3536  0.0482 -0.4162
   66SAPC   C11 5421   5.977   5.492   6.152 -0.6216 -0.0212 -0.3268
   66SAPC  H11A 5422   5.873   5.478   6.188 -0.4250  1.0718  0.7105
   66SAPC  H11B 5423   6.001   5.595   6.184  1.8854 -1.1874  1.9677
   66SAPC     P 5424   6.211   5.446   6.243 -0.0941 -0.1023  0.1266
   66SAPC   O13 5425   6.295   5.331   6.265  0.0736 -0.1727  0.1562
   66SAPC   O14 5426   6.260   5.551   6.147  0.4282  0.4672 -0.1249
   66SAPC   O12 5427   6.065   5.397   6.212 -0.0153 -0.4699  0.1566
   66SAPC   O11 5428   6.182   5.522   6.386 -0.1274 -0.2182  0.0819
   66SAPC    C1 5429   6.117   5.440   6.492  0.1233 -0.4277  0.3599
   66SAPC    HA 5430   6.007   5.456   6.498  0.1200  0.2774 -1.0885
   66SAPC    HB 5431   6.152   5.335   6.482  0.5662 -0.4265  1.7095
   66SAPC    C2 5432   6.176   5.472   6.628 -0.7092 -0.1295 -0.4288
   66SAPC    HS 5433   6.285   5.489   6.615 -0.6473  0.6979  0.9547
   66SAPC   O21 5434   6.157   5.367   6.724  0.0936  0.0214  0.3067
   66SAPC   C21 5435   6.237   5.263   6.737  0.6311  0.2623  0.6329
   66SAPC   O22 5436   6.329   5.237   6.661  0.0110 -0.5717  0.1087
   66SAPC   C22 5437   6.203   5.195   6.869  0.1537 -0.7595  0.3587
   66SAPC   H2R 5438   6.183   5.276   6.943 -0.4347 -0.8317  0.2826
   66SAPC   H2S 5439   6.112   5.134   6.851  1.3890 -2.2639 -1.1913
   66SAPC    C3 5440   6.131   5.608   6.673 -0.4409 -0.1999  0.3910
   66SAPC    HX 5441   6.020   5.615   6.679 -0.4260 -0.3947  0.9142
   66SAPC    HY 5442   6.176   5.679   6.600  1.2108  0.8017  2.3058
   66SAPC   O31 5443   6.185   5.645   6.802  0.4638 -0.2723  0.0421
   66SAPC   C31 5444   6.313   5.666   6.816 -0.4172  0.9005  0.0544
   66SAPC   O32 5445   6.391   5.657   6.720  0.1057 -0.0542 -0.9622
   66SAPC   C32 5446   6.353   5.727   6.950 -0.2133  0.1702 -0.4064
   66SAPC   H2X 5447   6.281   5.811   6.963 -0.4714 -0.3093  1.6414
   66SAPC   H2Y 5448   6.444   5.789   6.935  0.2494  0.6073  3.3005
   66SAPC   C23 5449   6.314   5.110   6.934 -0.2832 -0.1148 -0.1283
   66SAPC   H3R 5450   6.385   5.171   6.994  1.1714 -1.0013 -0.8909
   66SAPC   H3S 5451   6.367   5.064   6.848 -0.8271 -2.1739  0.5820
   66SAPC   C24 5452   6.252   5.005   7.023 -0.8495 -0.8245 -0.6878
   66SAPC   H4R 5453   6.338   4.945   7.059 -0.0394 -0.3577 -1.7879
   66SAPC   H4S 5454   6.193   4.943   6.952  0.4261 -1.2533 -1.4002
   66SAPC   C25 5455   6.171   5.063   7.136 -0.1825 -0.5718 -0.4947
   66SAPC   H5R 5456   6.071   5.102   7.110  0.8001  0.0536 -3.9059
   66SAPC   C26 5457   6.213   5.058   7.265  0.2283 -0.3271  0.2904
   66SAPC   H6R 5458   6.148   5.108   7.338 -1.4921  0.7221 -1.8502
   66SAPC   C27 5459   6.349   5.015   7.323  0.2069  0.4765 -0.0891
   66SAPC   H7R 5460   6.375   5.063   7.420  2.8185 -0.8304 -0.0368
   66SAPC   H7S 5461   6.426   5.036   7.245  1.4452  2.3418  1.5398
   66SAPC   C28 5462   6.347   4.866   7.344 -0.3124  0.3856 -0.4327
   66SAPC   H8R 5463   6.367   4.802   7.257 -1.3565 -1.1942  0.4388
   66SAPC   C29 5464   6.329   4.803   7.462  0.1344  0.2332 -0.4137
   66SAPC   H9R 5465   6.341   4.694   7.458 -0.0737  0.2344 -1.2080
   66SAPC  C210 5466   6.289   4.873   7.592 -0.3441 -0.5964 -0.5580
   66SAPC  H10R 5467   6.199   4.933   7.566 -0.3885 -0.9902 -1.3502
   66SAPC  H10S 5468   6.369   4.941   7.628 -0.2570 -1.0167  0.0593
   66SAPC  C211 5469   6.242   4.782   7.703 -0.0254 -0.9184 -0.3902
   66SAPC  H11R 5470   6.203   4.684   7.671 -1.1107 -1.0401  1.1926
   66SAPC  C212 5471   6.264   4.799   7.833 -0.0870  0.2399  0.3494
   66SAPC  H12R 5472   6.240   4.714   7.899  3.3001  0.1535  1.6836
   66SAPC  C213 5473   6.335   4.915   7.906 -0.3569 -0.4780  0.4868
   66SAPC  H13R 5474   6.387   4.977   7.830  0.0490  0.1254  1.2425
   66SAPC  H13S 5475   6.411   4.881   7.980  0.7522 -1.5591 -1.0933
   66SAPC  C214 5476   6.222   4.998   7.964  0.0755  0.0067 -0.8015
   66SAPC  H14R 5477   6.188   5.085   7.906 -1.6402  0.5242  0.8907
   66SAPC  C215 5478   6.175   4.991   8.092  0.5887  0.2575 -0.1871
   66SAPC  H15R 5479   6.080   5.045   8.104 -0.0981 -0.7754 -0.8100
   66SAPC  C216 5480   6.218   4.899   8.206 -0.2955  0.4956  0.2884
   66SAPC  H16R 5481   6.269   4.809   8.167 -1.9772 -0.3664 -0.0447
   66SAPC  H16S 5482   6.133   4.840   8.248  1.9390 -1.2912  2.5978
   66SAPC  C217 5483   6.282   4.982   8.317 -0.7296 -0.8868  1.4297
   66SAPC  H17R 5484   6.236   5.083   8.323  1.3280  0.3058 -1.1408
   66SAPC  H17S 5485   6.379   5.015   8.274 -1.1234  3.8773  3.5600
   66SAPC  C218 5486   6.302   4.912   8.450  0.5162  0.0612  0.4111
   66SAPC  H18R 5487   6.346   4.811   8.434  0.9471  0.1996  0.6906
   66SAPC  H18S 5488   6.201   4.898   8.493  0.1886 -1.7485 -0.8703
   66SAPC  C219 5489   6.388   4.994   8.537 -0.0376 -0.6355 -0.0484
   66SAPC  H19R 5490   6.353   5.098   8.556 -1.5380 -0.9781 -0.7903
   66SAPC  H19S 5491   6.478   5.018   8.476 -1.7439  4.0221 -1.1111
   66SAPC  C220 5492   6.422   4.945   8.681  0.0827  0.1620 -0.3072
   66SAPC  H20R 5493   6.336   4.955   8.751  0.9456 -2.2001  1.2062
   66SAPC  H20S 5494   6.502   5.008   8.726  2.6461 -4.1236  1.7127
   66SAPC  H20T 5495   6.454   4.839   8.689  1.6302  0.6930  1.0512
   66SAPC   C33 5496   6.330   5.633   7.069  0.0866 -0.0670  0.4447
   66SAPC   H3X 5497   6.219   5.627   7.072  0.1314 -2.4695 -0.6527
   66SAPC   H3Y 5498   6.362   5.690   7.159 -1.2582 -1.3175  1.7693
   66SAPC   C34 5499   6.399   5.499   7.072  0.5208  0.5188  0.1254
   66SAPC   H4X 5500   6.509   5.503   7.080  0.5657  0.2533 -0.3214
   66SAPC   H4Y 5501   6.375   5.443   6.979  2.6748 -0.2377 -0.0275
   66SAPC   C35 5502   6.348   5.405   7.182  0.2516  0.2866  0.2949
   66SAPC   H5X 5503   6.390   5.303   7.179 -3.7910 -1.5688 -2.6882
   66SAPC   H5Y 5504   6.239   5.388   7.166  0.3160 -0.7471  0.9222
   66SAPC   C36 5505   6.354   5.474   7.319 -0.4345  0.2117 -0.5870
   66SAPC   H6X 5506   6.275   5.551   7.314 -2.4276 -1.4907  2.0351
   66SAPC   H6Y 5507   6.457   5.515   7.323 -0.7353  1.0013 -0.8300
   66SAPC   C37 5508   6.327   5.389   7.441  0.2077  0.0728  0.2392
   66SAPC   H7X 5509   6.411   5.318   7.460  0.0445  0.3153  2.0013
   66SAPC   H7Y 5510   6.231   5.334   7.428  0.0947  0.5463 -1.1678
   66SAPC   C38 5511   6.305   5.473   7.566  0.0843  0.0307  0.0747
   66SAPC   H8X 5512   6.212   5.528   7.545 -0.8535 -1.7462 -0.6544
   66SAPC   H8Y 5513   6.378   5.554   7.585  0.5911 -0.3137 -0.3492
   66SAPC   C39 5514   6.292   5.385   7.698  0.1625  0.3416  0.1351
   66SAPC   H9X 5515   6.378   5.315   7.701 -0.3768 -0.3282  0.0004
   66SAPC   H9Y 5516   6.193   5.336   7.709 -0.1746  0.8333 -0.6061
   66SAPC  C310 5517   6.302   5.470   7.826 -0.7852 -0.3546 -0.6074
   66SAPC  H10X 5518   6.224   5.548   7.820 -0.6066 -0.0531  0.7085
   66SAPC  H10Y 5519   6.397   5.527   7.824  0.5206 -2.3404  0.6260
   66SAPC  C311 5520   6.308   5.381   7.951 -0.5089 -0.2807 -0.1190
   66SAPC  H11X 5521   6.406   5.331   7.939  0.1446  1.4301 -2.6166
   66SAPC  H11Y 5522   6.226   5.307   7.951  0.0003 -0.8611  0.6723
   66SAPC  C312 5523   6.312   5.464   8.074 -0.5521  0.2667 -0.2273
   66SAPC  H12X 5524   6.222   5.529   8.080  0.3593  1.6596 -1.1028
   66SAPC  H12Y 5525   6.402   5.529   8.077 -0.1049 -0.3518  2.4061
   66SAPC  C313 5526   6.322   5.374   8.206 -0.0334 -0.1031  0.8044
   66SAPC  H13X 5527   6.421   5.325   8.218  0.5346  1.3603  2.5288
   66SAPC  H13Y 5528   6.239   5.300   8.204 -0.0805 -0.0360 -0.6913
   66SAPC  C314 5529   6.308   5.449   8.336  0.4961 -1.3326  0.4808
   66SAPC  H14X 5530   6.202   5.484   8.334  1.5721  2.3510 -1.4816
   66SAPC  H14Y 5531   6.354   5.550   8.328  1.6871 -1.8449  0.7539
   66SAPC  C315 5532   6.349   5.378   8.461  0.1481 -0.2558  0.9220
   66SAPC  H15X 5533   6.456   5.349   8.465 -0.1407 -1.5039  0.1997
   66SAPC  H15Y 5534   6.299   5.279   8.454  1.3973 -0.8395 -0.4234
   66SAPC  C316 5535   6.311   5.446   8.594  0.3019  0.3202 -0.1224
   66SAPC  H16X 5536   6.213   5.498   8.585 -0.3435 -0.6219  1.0817
   66SAPC  H16Y 5537   6.390   5.523   8.605  2.1017 -1.6702  1.9138
   66SAPC  C317 5538   6.326   5.351   8.718  0.0575  1.0218 -0.1433
   66SAPC  H17X 5539   6.415   5.286   8.709 -1.9835 -1.9501 -0.5270
   66SAPC  H17Y 5540   6.249   5.272   8.734  1.4839 -0.4004 -0.0984
   66SAPC  C318 5541   6.339   5.432   8.848  0.0645  0.9910 -0.4418
   66SAPC  H18X 5542   6.258   5.508   8.846 -1.0020 -0.1139 -0.5265
   66SAPC  H18Y 5543   6.432   5.491   8.863 -1.3784  2.7224  2.8431
   66SAPC  H18Z 5544   6.316   5.366   8.934 -0.5755 -0.3456 -1.5945
   67SAPC     N 5545   1.062   2.459   6.627 -0.3161 -0.2636  0.0329
   67SAPC   C12 5546   1.165   2.461   6.743  0.4917  0.6923  0.5989
   67SAPC  H12A 5547   1.238   2.383   6.725  0.6512  0.3887  2.3770
   67SAPC  H12B 5548   1.121   2.439   6.839  0.2220  0.3483  0.3971
   67SAPC   C13 5549   0.998   2.323   6.635  0.0075  0.8205  0.1506
   67SAPC  H13A 5550   0.954   2.290   6.729 -2.2031  1.5941 -0.5605
   67SAPC  H13B 5551   0.917   2.330   6.564 -0.4717 -1.1307  0.4233
   67SAPC  H13C 5552   1.063   2.239   6.616 -0.8411 -0.5930  2.8508
   67SAPC   C14 5553   0.951   2.566   6.626 -0.4262  0.3680 -0.3463
   67SAPC  H14A 5554   0.883   2.541   6.706 -0.1119 -4.2896 -1.2129
   67SAPC  H14B 5555   0.998   2.663   6.634  0.4790 -0.1368  0.8820
   67SAPC  H14C 5556   0.896   2.567   6.534 -2.5317 -0.0853  0.8466
   67SAPC   C15 5557   1.130   2.461   6.497  0.3336  0.0132 -0.2361
   67SAPC  H15A 5558   1.063   2.469   6.413  0.0268  1.5810  0.1163
   67SAPC  H15B 5559   1.195   2.546   6.484  0.0629  0.2971  0.1912
   67SAPC  H15C 5560   1.194   2.377   6.476 -1.2827 -1.1256 -0.8828
   67SAPC   C11 5561   1.253   2.583   6.748  0.5437  0.0395  0.3051
   67SAPC  H11A 5562   1.313   2.570   6.840  1.0153 -1.2812 -0.1689
   67SAPC  H11B 5563   1.186   2.669   6.771 -1.7825 -1.8347  0.9483
   67SAPC     P 5564   1.473   2.542   6.616 -0.3565  0.0138  0.5257
   67SAPC   O13 5565   1.460   2.391   6.611 -0.1121 -0.1181  0.5021
   67SAPC   O14 5566   1.543   2.605   6.497  0.0167 -0.2746 -0.5699
   67SAPC   O12 5567   1.325   2.607   6.628 -0.1429 -0.0388 -0.5596
   67SAPC   O11 5568   1.555   2.589   6.742  0.2391 -0.8546 -0.0314
   67SAPC    C1 5569   1.600   2.727   6.742 -0.0712 -0.0432  0.4877
   67SAPC    HA 5570   1.663   2.745   6.653  0.7581 -0.1828  1.0400
   67SAPC    HB 5571   1.511   2.795   6.741  0.5200  0.7534 -0.9173
   67SAPC    C2 5572   1.693   2.752   6.862 -0.5545 -0.3425  0.0332
   67SAPC    HS 5573   1.772   2.674   6.855 -1.6431 -1.5107  0.1974
   67SAPC   O21 5574   1.621   2.726   6.985  0.1843 -0.2707 -0.1223
   67SAPC   C21 5575   1.675   2.699   7.100  0.2996 -0.0898  0.2379
   67SAPC   O22 5576   1.794   2.683   7.115  0.4336  0.5403  0.0134
   67SAPC   C22 5577   1.558   2.679   7.197 -0.4413 -0.5528 -0.5701
   67SAPC   H2R 5578   1.478   2.747   7.164 -0.0715 -0.0426 -0.4247
   67SAPC   H2S 5579   1.517   2.577   7.178 -3.2772  0.3595  0.2593
   67SAPC    C3 5580   1.751   2.895   6.859  0.4129  0.0332 -0.2532
   67SAPC    HX 5581   1.777   2.929   6.757 -0.6799  4.2854  0.7144
   67SAPC    HY 5582   1.851   2.895   6.908  0.5633 -0.9729 -0.5413
   67SAPC   O31 5583   1.654   2.993   6.917  0.0947  0.4069 -0.4064
   67SAPC   C31 5584   1.710   3.101   6.969  0.1431 -0.2380 -0.0285
   67SAPC   O32 5585   1.821   3.144   6.950 -0.7626  0.3065 -0.0913
   67SAPC   C32 5586   1.598   3.168   7.058 -0.4022  0.4152  0.2311
   67SAPC   H2X 5587   1.525   3.097   7.102  1.1206  0.1507  2.5076
   67SAPC   H2Y 5588   1.554   3.251   6.998 -1.8739 -0.9992 -0.7080
   67SAPC   C23 5589   1.575   2.697   7.354 -0.0852  0.0872 -0.1379
   67SAPC   H3R 5590   1.478   2.672   7.403 -0.1742  1.1313  0.2424
   67SAPC   H3S 5591   1.598   2.803   7.378  1.3054 -0.3449  0.5555
   67SAPC   C24 5592   1.683   2.606   7.415 -1.2460  0.3404 -0.1727
   67SAPC   H4R 5593   1.685   2.631   7.524  1.1495  3.4442 -0.7883
   67SAPC   H4S 5594   1.781   2.637   7.373 -1.5334  0.4859 -0.7344
   67SAPC   C25 5595   1.649   2.465   7.389  0.1094  0.7937  1.4156
   67SAPC   H5R 5596   1.696   2.445   7.292  1.5325  1.5040  1.9441
   67SAPC   C26 5597   1.568   2.370   7.453 -0.4434 -0.0268  0.6202
   67SAPC   H6R 5598   1.565   2.270   7.409 -0.9462  0.0648  0.4410
   67SAPC   C27 5599   1.487   2.379   7.581 -0.9663 -0.5208 -0.1790
   67SAPC   H7R 5600   1.532   2.448   7.656 -0.8980 -0.5838 -0.1613
   67SAPC   H7S 5601   1.484   2.278   7.626 -2.0322 -1.2508 -1.7892
   67SAPC   C28 5602   1.340   2.413   7.553 -0.6802  0.0526 -0.0372
   67SAPC   H8R 5603   1.295   2.377   7.459 -0.5577 -0.5828  0.1409
   67SAPC   C29 5604   1.254   2.480   7.639  0.4616  0.4987 -0.0625
   67SAPC   H9R 5605   1.145   2.479   7.622  0.2954  1.7020  0.8526
   67SAPC  C210 5606   1.293   2.537   7.771 -1.0843  0.2939 -0.3894
   67SAPC  H10R 5607   1.222   2.618   7.799 -0.2993  0.6834  0.5204
   67SAPC  H10S 5608   1.394   2.584   7.764 -0.6129 -0.9187 -2.5550
   67SAPC  C211 5609   1.306   2.429   7.876 -0.4773 -0.0085 -0.4540
   67SAPC  H11R 5610   1.384   2.354   7.856 -0.1496 -0.7147  2.9793
   67SAPC  C212 5611   1.233   2.407   7.984 -0.1560 -0.2507 -0.6452
   67SAPC  H12R 5612   1.242   2.314   8.043 -1.3512 -0.2289 -0.4006
   67SAPC  C213 5613   1.115   2.489   8.037 -0.1828 -0.3322  0.4648
   67SAPC  H13R 5614   1.093   2.570   7.963 -2.4610 -1.5692 -0.3032
   67SAPC  H13S 5615   1.156   2.537   8.129  1.5485 -2.5887  0.9466
   67SAPC  C214 5616   0.996   2.409   8.073  0.2160 -0.0549 -0.4667
   67SAPC  H14R 5617   0.988   2.302   8.049  0.6957  0.2071 -1.8683
   67SAPC  C215 5618   0.888   2.464   8.133 -0.8982  0.2886 -1.1398
   67SAPC  H15R 5619   0.808   2.398   8.166  0.5127 -1.5143 -1.1955
   67SAPC  C216 5620   0.858   2.610   8.166 -0.0020 -0.2918 -0.7580
   67SAPC  H16R 5621   0.763   2.629   8.111 -0.9047  3.8117  1.8137
   67SAPC  H16S 5622   0.942   2.677   8.139  0.7795  0.4420  3.0297
   67SAPC  C217 5623   0.826   2.642   8.318  0.3432 -0.0601  0.1682
   67SAPC  H17R 5624   0.798   2.748   8.332  0.2727 -0.4083  3.5441
   67SAPC  H17S 5625   0.919   2.625   8.376  0.5864 -0.0201 -0.2113
   67SAPC  C218 5626   0.719   2.545   8.378 -0.0218 -0.6597  0.3220
   67SAPC  H18R 5627   0.744   2.441   8.347  0.1496 -0.5545  0.1028
   67SAPC  H18S 5628   0.622   2.574   8.331  1.2632 -0.6559 -2.5522
   67SAPC  C219 5629   0.709   2.552   8.521  0.4265 -0.6189 -0.4332
   67SAPC  H19R 5630   0.669   2.647   8.564  1.0812 -0.2076 -0.7141
   67SAPC  H19S 5631   0.814   2.543   8.557 -0.2889  0.1427  2.0518
   67SAPC  C220 5632   0.627   2.438   8.580  0.4278 -0.1339  0.0187
   67SAPC  H20R 5633   0.639   2.445   8.690  2.1744  2.7388 -0.2570
   67SAPC  H20S 5634   0.673   2.344   8.543 -1.9693 -0.5312 -2.1816
   67SAPC  H20T 5635   0.518   2.443   8.560  0.4024  2.5440  0.4237
   67SAPC   C33 5636   1.656   3.220   7.188  0.1577 -0.8936 -0.3916
   67SAPC   H3X 5637   1.586   3.296   7.229  3.2824  2.2926 -0.4044
   67SAPC   H3Y 5638   1.749   3.279   7.172 -1.0506  1.0831 -0.3868
   67SAPC   C34 5639   1.677   3.101   7.280  0.0809  0.1057 -0.5714
   67SAPC   H4X 5640   1.735   3.020   7.231 -1.5698 -1.0685 -0.6666
   67SAPC   H4Y 5641   1.581   3.054   7.313  1.0916 -2.3906 -0.9418
   67SAPC   C35 5642   1.758   3.134   7.409  0.3565  0.0357 -0.9074
   67SAPC   H5X 5643   1.704   3.211   7.469  2.0216  2.4163 -2.2921
   67SAPC   H5Y 5644   1.846   3.192   7.376  0.4699  1.4207  1.6075
   67SAPC   C36 5645   1.786   3.016   7.501  0.3653  0.3251 -0.2791
   67SAPC   H6X 5646   1.878   3.033   7.561  0.2044 -2.3652  0.8923
   67SAPC   H6Y 5647   1.797   2.925   7.438  0.0151 -0.8413  1.2860
   67SAPC   C37 5648   1.666   2.984   7.593 -0.6730  0.1677  0.3829
   67SAPC   H7X 5649   1.580   2.953   7.531 -1.0543 -1.0826  1.5027
   67SAPC   H7Y 5650   1.637   3.077   7.645 -2.7863 -0.4470  0.3820
   67SAPC   C38 5651   1.698   2.869   7.680  0.2809 -0.3482  0.4094
   67SAPC   H8X 5652   1.776   2.903   7.750  1.6944 -1.3313 -0.6411
   67SAPC   H8Y 5653   1.732   2.782   7.619 -0.4387  0.1880 -0.7965
   67SAPC   C39 5654   1.581   2.820   7.764 -0.8067  0.1786  0.1828
   67SAPC   H9X 5655   1.593   2.712   7.785  2.4028  0.2231 -0.9008
   67SAPC   H9Y 5656   1.493   2.817   7.697 -0.1593  0.5711 -0.7035
   67SAPC  C310 5657   1.556   2.903   7.889 -0.4588  1.0783  0.1080
   67SAPC  H10X 5658   1.501   2.994   7.857 -1.7629  0.1817 -0.2583
   67SAPC  H10Y 5659   1.650   2.936   7.940 -0.7106 -0.1404  1.4123
   67SAPC  C311 5660   1.477   2.825   7.994  0.5370  0.5676  0.1872
   67SAPC  H11X 5661   1.534   2.731   8.012 -0.4110  0.6793  4.8798
   67SAPC  H11Y 5662   1.383   2.784   7.950  1.9041  0.2634 -2.6648
   67SAPC  C312 5663   1.460   2.889   8.129  0.7948 -0.1605  0.1434
   67SAPC  H12X 5664   1.564   2.907   8.163  0.7762 -1.2376  0.8285
   67SAPC  H12Y 5665   1.413   2.820   8.203 -2.4262 -0.1663 -1.7314
   67SAPC  C313 5666   1.373   3.015   8.130 -0.5009 -0.2420 -0.3541
   67SAPC  H13X 5667   1.289   2.994   8.062 -2.4238 -0.0994  1.8580
   67SAPC  H13Y 5668   1.435   3.102   8.100 -0.1831 -0.2707  0.1949
   67SAPC  C314 5669   1.314   3.044   8.272 -0.3837 -0.3760 -0.0069
   67SAPC  H14X 5670   1.390   3.079   8.344 -1.4307 -0.0552  0.9802
   67SAPC  H14Y 5671   1.272   2.951   8.318 -2.0257 -0.3196 -1.3169
   67SAPC  C315 5672   1.207   3.152   8.268 -0.4454 -0.0717  0.0257
   67SAPC  H15X 5673   1.165   3.159   8.371  0.9931 -3.4800  1.0002
   67SAPC  H15Y 5674   1.125   3.115   8.204  0.9508 -2.0891 -0.6908
   67SAPC  C316 5675   1.254   3.287   8.208  0.3997 -0.2176 -0.0659
   67SAPC  H16X 5676   1.164   3.333   8.161 -0.5046 -1.2983  0.5456
   67SAPC  H16Y 5677   1.327   3.279   8.125  0.9758  0.5353  0.3479
   67SAPC  C317 5678   1.319   3.361   8.322  0.7240 -0.3481  0.3116
   67SAPC  H17X 5679   1.415   3.310   8.346  1.3639  0.7148  0.0955
   67SAPC  H17Y 5680   1.254   3.359   8.412 -2.3785  1.1207 -1.7103
   67SAPC  C318 5681   1.354   3.510   8.284  0.5750  0.4940 -0.2230
   67SAPC  H18X 5682   1.440   3.503   8.213  1.1605 -0.0482  0.5262
   67SAPC  H18Y 5683   1.379   3.571   8.373 -1.5620  1.5044 -0.2415
   67SAPC  H18Z 5684   1.263   3.558   8.241 -0.6839 -0.3812  1.3561
   68SAPC     N 5685   6.184   4.569   6.344 -0.4387  0.1561 -0.1869
   68SAPC   C12 5686   6.093   4.522   6.452  0.3518 -0.2415 -0.0310
   68SAPC  H12A 5687   6.150   4.489   6.538  2.8572 -0.8986 -1.8171
   68SAPC  H12B 5688   6.048   4.428   6.424  1.7862 -0.9241 -0.1372
   68SAPC   C13 5689   6.116   4.598   6.219 -0.1064 -0.2553  0.0686
   68SAPC  H13A 5690   6.021   4.646   6.235 -0.0769 -0.1941  0.0642
   68SAPC  H13B 5691   6.168   4.667   6.153  2.3376 -0.0612  2.0500
   68SAPC  H13C 5692   6.092   4.504   6.172 -0.6143  0.2328 -0.6586
   68SAPC   C14 5693   6.259   4.693   6.378  0.4162  0.1879 -0.2468
   68SAPC  H14A 5694   6.330   4.674   6.457 -0.6183 -0.3474  0.5848
   68SAPC  H14B 5695   6.321   4.726   6.296  2.2750 -1.1441  0.5661
   68SAPC  H14C 5696   6.183   4.765   6.407 -1.1455 -1.1646 -0.8554
   68SAPC   C15 5697   6.293   4.471   6.322  0.5964 -0.6288  0.9291
   68SAPC  H15A 5698   6.242   4.383   6.285 -3.5263  2.0445 -0.5267
   68SAPC  H15B 5699   6.366   4.505   6.250 -0.9109 -0.1009 -0.4252
   68SAPC  H15C 5700   6.347   4.448   6.412 -3.9773 -2.0429  3.6280
   68SAPC   C11 5701   5.979   4.613   6.503  0.8761 -0.7296 -0.3042
   68SAPC  H11A 5702   6.034   4.702   6.541  0.5292 -0.2970 -0.8192
   68SAPC  H11B 5703   5.918   4.561   6.581 -2.7467  0.6026 -2.0299
   68SAPC     P 5704   5.751   4.596   6.379 -0.2465  0.0226  0.0053
   68SAPC   O13 5705   5.666   4.696   6.307  0.4882 -0.3374 -0.3082
   68SAPC   O14 5706   5.771   4.469   6.308 -0.7993  0.4902 -0.1148
   68SAPC   O12 5707   5.893   4.661   6.397 -0.8550  0.0882 -0.1969
   68SAPC   O11 5708   5.694   4.571   6.521 -0.2893  0.6908 -0.0535
   68SAPC    C1 5709   5.633   4.679   6.590 -0.3659  0.3927 -1.1280
   68SAPC    HA 5710   5.612   4.769   6.528 -1.2061  2.0432  1.3895
   68SAPC    HB 5711   5.529   4.656   6.621 -0.4030  1.0087 -0.7669
   68SAPC    C2 5712   5.727   4.737   6.704  0.2217  0.8553 -0.1639
   68SAPC    HS 5713   5.812   4.795   6.664  0.0598  1.4333  0.3238
   68SAPC   O21 5714   5.782   4.628   6.781 -0.0376  0.1850 -0.0543
   68SAPC   C21 5715   5.896   4.657   6.844  0.5653  0.4191  0.2084
   68SAPC   O22 5716   5.965   4.758   6.832 -0.2959  0.1266  0.2200
   68SAPC   C22 5717   5.916   4.534   6.935 -0.1234 -0.0302 -0.1779
   68SAPC   H2R 5718   5.813   4.521   6.974 -0.5371 -1.6433 -1.6990
   68SAPC   H2S 5719   5.951   4.451   6.871 -2.4309 -0.8376 -0.4589
   68SAPC    C3 5720   5.639   4.833   6.792  0.3632  0.7669 -0.1985
   68SAPC    HX 5721   5.553   4.783   6.840  0.1698 -2.0199 -3.1513
   68SAPC    HY 5722   5.603   4.905   6.716 -2.4483 -0.2844  0.0351
   68SAPC   O31 5723   5.723   4.894   6.891  0.2077  0.2151 -0.0407
   68SAPC   C31 5724   5.701   4.869   7.021  0.1831  0.3938 -0.5038
   68SAPC   O32 5725   5.628   4.783   7.063  0.8839  0.2616  0.3350
   68SAPC   C32 5726   5.775   4.970   7.113 -0.1998  0.9470  0.1929
   68SAPC   H2X 5727   5.795   5.061   7.052  1.1589  1.2886  1.0994
   68SAPC   H2Y 5728   5.871   4.920   7.141  0.1455 -0.5734 -3.1557
   68SAPC   C23 5729   6.019   4.551   7.049  0.8039 -0.9003 -0.0410
   68SAPC   H3R 5730   6.104   4.605   7.004  1.7463 -2.6144 -0.3827
   68SAPC   H3S 5731   6.059   4.457   7.093 -0.3954 -0.6204  1.7689
   68SAPC   C24 5732   5.963   4.623   7.175  0.8389 -0.4730 -0.4724
   68SAPC   H4R 5733   5.884   4.696   7.147 -0.1919 -0.4292  2.2219
   68SAPC   H4S 5734   6.029   4.697   7.226 -0.7874 -0.2534  1.4503
   68SAPC   C25 5735   5.898   4.520   7.261 -0.2722 -0.8887  0.1632
   68SAPC   H5R 5736   5.827   4.452   7.211 -0.8084  0.6985 -1.3400
   68SAPC   C26 5737   5.932   4.484   7.387  0.1420  0.0396  0.0442
   68SAPC   H6R 5738   5.868   4.406   7.432  0.1116  1.7563  3.3068
   68SAPC   C27 5739   6.035   4.538   7.484  0.0346 -0.6086  0.8617
   68SAPC   H7R 5740   5.997   4.635   7.521 -0.5330 -0.5390  0.1116
   68SAPC   H7S 5741   6.123   4.565   7.422 -0.0574 -2.1951 -0.0343
   68SAPC   C28 5742   6.069   4.450   7.598  0.1187  0.2468 -0.1017
   68SAPC   H8R 5743   6.142   4.372   7.570  0.6438  0.9009 -0.5624
   68SAPC   C29 5744   6.029   4.446   7.726 -0.3891  0.0194  0.4497
   68SAPC   H9R 5745   6.074   4.367   7.788  1.1929  1.0221  0.6607
   68SAPC  C210 5746   5.933   4.533   7.804  0.2141 -0.1255 -0.0064
   68SAPC  H10R 5747   5.931   4.638   7.768  2.5460  0.1698  0.5923
   68SAPC  H10S 5748   5.979   4.564   7.900 -0.4942  1.4015 -0.1284
   68SAPC  C211 5749   5.800   4.464   7.818  1.2501  0.6045  0.3179
   68SAPC  H11R 5750   5.741   4.452   7.725 -0.2503  0.0477  1.3090
   68SAPC  C212 5751   5.743   4.408   7.934 -0.1684 -0.3493 -0.3131
   68SAPC  H12R 5752   5.644   4.361   7.925 -0.3740 -0.6840  2.6965
   68SAPC  C213 5753   5.796   4.409   8.074 -0.0108 -0.2846 -0.4882
   68SAPC  H13R 5754   5.758   4.503   8.121  1.7172 -0.5766  1.6450
   68SAPC  H13S 5755   5.907   4.419   8.075  0.0216 -0.5265  1.1089
   68SAPC  C214 5756   5.750   4.277   8.138 -0.3381 -0.1961  0.4040
   68SAPC  H14R 5757   5.667   4.272   8.209 -0.2112 -0.1547  0.5549
   68SAPC  C215 5758   5.809   4.159   8.115  0.5985  0.5874 -0.1857
   68SAPC  H15R 5759   5.760   4.073   8.163 -0.0886 -0.2658 -2.2760
   68SAPC  C216 5760   5.920   4.111   8.029 -0.4709 -0.3590  0.1413
   68SAPC  H16R 5761   5.995   4.193   8.021 -1.8178  0.8511 -0.5333
   68SAPC  H16S 5762   5.891   4.097   7.922  0.1672  0.3770 -0.1386
   68SAPC  C217 5763   5.996   4.003   8.105 -1.3030 -0.6162 -0.4708
   68SAPC  H17R 5764   6.020   4.039   8.207  1.7120 -0.2932 -1.2030
   68SAPC  H17S 5765   6.089   3.980   8.048  0.0208  0.5442  1.1398
   68SAPC  C218 5766   5.927   3.871   8.126 -0.5122  0.7116  0.1898
   68SAPC  H18R 5767   5.855   3.878   8.210 -0.0190  1.5830  0.5540
   68SAPC  H18S 5768   6.007   3.801   8.160 -0.2771  1.2632  0.7818
   68SAPC  C219 5769   5.856   3.814   8.002 -0.3097  0.0487 -0.1378
   68SAPC  H19R 5770   5.925   3.814   7.915  0.2869  1.1806  0.3152
   68SAPC  H19S 5771   5.780   3.887   7.967  1.3115  1.1616 -1.5223
   68SAPC  C220 5772   5.789   3.672   8.016 -0.5848 -0.4684  0.3430
   68SAPC  H20R 5773   5.710   3.683   8.094 -0.8362  1.7026 -0.1391
   68SAPC  H20S 5774   5.868   3.601   8.048  0.7717  0.5928 -0.4980
   68SAPC  H20T 5775   5.745   3.647   7.917 -1.1032  0.5388  0.3079
   68SAPC   C33 5776   5.697   5.013   7.238  0.3780 -0.6213 -0.2240
   68SAPC   H3X 5777   5.590   5.025   7.211  0.3796  0.7554  0.3421
   68SAPC   H3Y 5778   5.724   5.114   7.273 -1.6525 -0.3808  0.8496
   68SAPC   C34 5779   5.693   4.917   7.366 -0.5549  0.2031  0.5593
   68SAPC   H4X 5780   5.641   4.822   7.340  1.4764 -0.0124 -3.6937
   68SAPC   H4Y 5781   5.625   4.966   7.439 -0.0146  0.6560  0.7663
   68SAPC   C35 5782   5.830   4.888   7.431 -0.3524  0.5056  0.4070
   68SAPC   H5X 5783   5.905   4.950   7.377  1.2967 -1.7836 -0.0822
   68SAPC   H5Y 5784   5.850   4.781   7.412 -0.4059  0.1849  2.0250
   68SAPC   C36 5785   5.824   4.921   7.584  1.0398 -0.1566 -0.0499
   68SAPC   H6X 5786   5.793   5.026   7.606  2.3020 -0.3796  3.2837
   68SAPC   H6Y 5787   5.925   4.906   7.627  0.6136 -0.0417  1.0081
   68SAPC   C37 5788   5.722   4.832   7.662  0.1454  0.1676  0.5297
   68SAPC   H7X 5789   5.769   4.731   7.658  1.7855  0.8475 -4.9146
   68SAPC   H7Y 5790   5.619   4.828   7.621 -0.4743 -0.2351  2.0453
   68SAPC   C38 5791   5.685   4.894   7.803  0.1337  0.0202 -0.1836
   68SAPC   H8X 5792   5.576   4.884   7.824 -0.0893 -0.3697 -1.4248
   68SAPC   H8Y 5793   5.710   5.002   7.810  2.2423 -0.4753  0.6074
   68SAPC   C39 5794   5.755   4.831   7.921  0.2785  0.3609 -0.0469
   68SAPC   H9X 5795   5.863   4.831   7.893  0.4765  0.0920  0.6869
   68SAPC   H9Y 5796   5.736   4.722   7.919  2.5093 -0.0849 -2.0562
   68SAPC  C310 5797   5.735   4.898   8.054  0.1336  0.2929 -0.2832
   68SAPC  H10X 5798   5.627   4.913   8.076  0.3500 -0.1047  1.1831
   68SAPC  H10Y 5799   5.786   4.995   8.071 -1.4507  0.7421  2.5418
   68SAPC  C311 5800   5.792   4.795   8.155 -0.6249 -0.0165  0.3121
   68SAPC  H11X 5801   5.894   4.761   8.127  0.7055  2.2763  1.9673
   68SAPC  H11Y 5802   5.725   4.706   8.154 -0.4937 -0.1612 -2.1831
   68SAPC  C312 5803   5.805   4.847   8.302 -0.0550 -0.7749 -0.0283
   68SAPC  H12X 5804   5.704   4.883   8.329  0.4616  0.6649  0.0785
   68SAPC  H12Y 5805   5.891   4.918   8.300  1.1220 -2.1589 -0.6204
   68SAPC  C313 5806   5.837   4.734   8.397  0.1709  0.4550 -0.6092
   68SAPC  H13X 5807   5.910   4.658   8.362  1.1700 -0.2358  2.6088
   68SAPC  H13Y 5808   5.743   4.684   8.429  0.9077 -0.6186 -0.1009
   68SAPC  C314 5809   5.904   4.782   8.525  0.2403  0.3346  0.3130
   68SAPC  H14X 5810   5.839   4.865   8.562 -0.2016  0.3274 -0.4281
   68SAPC  H14Y 5811   6.010   4.809   8.505  0.5491  1.1600  2.7449
   68SAPC  C315 5812   5.917   4.673   8.632 -0.6554 -0.3736 -0.1354
   68SAPC  H15X 5813   6.002   4.708   8.694 -0.8599 -1.7215  0.9605
   68SAPC  H15Y 5814   5.949   4.576   8.587  0.6246  1.0106 -2.4067
   68SAPC  C316 5815   5.809   4.663   8.735 -0.2024  0.4811 -0.1934
   68SAPC  H16X 5816   5.723   4.628   8.674 -0.2206  0.8072 -0.3583
   68SAPC  H16Y 5817   5.780   4.762   8.777 -0.8867 -0.0865  0.7155
   68SAPC  C317 5818   5.820   4.550   8.840 -0.0815  0.3791  0.7589
   68SAPC  H17X 5819   5.857   4.463   8.781 -3.2957 -1.1357  0.7675
   68SAPC  H17Y 5820   5.721   4.502   8.857  0.8087 -2.2169 -0.8230
   68SAPC  C318 5821   5.906   4.575   8.971 -0.7537 -0.6484  0.5251
   68SAPC  H18X 5822   5.902   4.481   9.031  0.3860 -1.8819 -1.2439
   68SAPC  H18Y 5823   5.876   4.669   9.021 -1.0215  0.3603 -1.4367
   68SAPC  H18Z 5824   6.014   4.576   8.947 -1.0130 -0.5284 -0.7072
   69SLPC     N 5825   0.869   4.577  11.394  0.0421  0.6808  0.1139
   69SLPC   C13 5826   0.795   4.705  11.378  0.2243 -0.3415  0.1995
   69SLPC  H13A 5827   0.688   4.699  11.394  0.1635 -0.3550 -0.1967
   69SLPC  H13B 5828   0.845   4.765  11.451 -0.0688  0.1866 -0.0299
   69SLPC  H13C 5829   0.808   4.751  11.281 -0.8358 -1.6144 -0.5958
   69SLPC   C14 5830   0.859   4.528  11.537  0.1045  0.8172  0.4399
   69SLPC  H14A 5831   0.902   4.597  11.608 -0.1252 -0.0744  1.4636
   69SLPC  H14B 5832   0.758   4.512  11.571  0.0638  0.3471  0.1059
   69SLPC  H14C 5833   0.902   4.430  11.550 -3.1467 -0.4866  2.7260
   69SLPC   C15 5834   1.007   4.617  11.389  0.1236  0.6864  0.2724
   69SLPC  H15A 5835   1.029   4.636  11.285 -1.6795 -2.7545 -0.8943
   69SLPC  H15B 5836   1.030   4.704  11.449  1.5916  0.0060  0.7598
   69SLPC  H15C 5837   1.063   4.527  11.411 -3.4819 -2.2442 -1.3599
   69SLPC   C12 5838   0.837   4.469  11.292  0.1452 -0.6307 -0.5935
   69SLPC  H12A 5839   0.736   4.440  11.314 -0.3103  0.9189 -0.4769
   69SLPC  H12B 5840   0.914   4.394  11.297  2.8098  1.9118 -0.0878
   69SLPC   C11 5841   0.851   4.519  11.146  0.1525  0.1667  0.8669
   69SLPC  H11A 5842   0.781   4.602  11.119 -0.1067 -0.4959 -0.5775
   69SLPC  H11B 5843   0.807   4.437  11.086 -0.5494  0.1288  1.4049
   69SLPC     P 5844   1.085   4.439  11.085  0.2456  0.3250  0.3676
   69SLPC   O13 5845   1.216   4.474  11.138 -0.2174  0.0385  0.5268
   69SLPC   O14 5846   1.032   4.307  11.123 -0.3509  0.0055  0.2974
   69SLPC   O12 5847   0.987   4.559  11.111  0.5300  0.6572 -0.0984
   69SLPC   O11 5848   1.101   4.459  10.930 -0.6607 -0.3689  0.2697
   69SLPC    C1 5849   0.988   4.441  10.843  0.5744 -0.3730 -0.0110
   69SLPC    HA 5850   0.915   4.363  10.876 -1.2199  0.6434 -1.4003
   69SLPC    HB 5851   0.920   4.529  10.842  0.8118 -0.1382  1.5663
   69SLPC    C2 5852   1.019   4.382  10.700  0.1644  0.2804 -0.2028
   69SLPC    HS 5853   1.067   4.284  10.721 -2.0062 -0.5430  1.3020
   69SLPC   O21 5854   1.103   4.475  10.635 -0.6927 -0.2524  0.2809
   69SLPC   C21 5855   1.209   4.423  10.580 -0.1570  0.0400 -0.5616
   69SLPC   O22 5856   1.239   4.302  10.573  0.0301  0.4134  0.1266
   69SLPC   C22 5857   1.296   4.542  10.527  0.6041  0.2041 -0.1948
   69SLPC   H2R 5858   1.262   4.635  10.578  0.2874 -1.1021  2.1007
   69SLPC   H2S 5859   1.398   4.530  10.569  0.6728  2.7357  0.5274
   69SLPC    C3 5860   0.901   4.354  10.611  0.2297  0.2835  0.4666
   69SLPC    HX 5861   0.843   4.448  10.593  0.0725  0.2703  0.8757
   69SLPC    HY 5862   0.827   4.287  10.660  0.2588 -1.2319 -1.4721
   69SLPC   O31 5863   0.945   4.280  10.496  0.1157 -0.6157  0.5466
   69SLPC   C31 5864   0.952   4.147  10.503 -0.0580 -0.1460  0.3191
   69SLPC   O32 5865   0.946   4.086  10.601  0.1681 -0.2720 -0.4652
   69SLPC   C32 5866   0.980   4.097  10.357  0.0482 -0.4975 -0.1280
   69SLPC   H2X 5867   1.044   4.007  10.362 -0.3298 -0.7302  0.7167
   69SLPC   H2Y 5868   1.037   4.172  10.297 -0.5216 -0.8495 -1.1312
   69SLPC   C23 5869   1.305   4.546  10.375  0.1921 -0.2500 -0.0776
   69SLPC   H3R 5870   1.351   4.454  10.333 -0.2463  0.0602 -1.2777
   69SLPC   H3S 5871   1.381   4.624  10.352 -0.1632  1.0078  2.6524
   69SLPC   C24 5872   1.185   4.594  10.295  0.2745 -0.1520 -0.6673
   69SLPC   H4R 5873   1.167   4.703  10.311 -0.6312 -0.6034  1.7024
   69SLPC   H4S 5874   1.090   4.551  10.334  1.0042 -2.2286 -1.0881
   69SLPC   C25 5875   1.196   4.574  10.146  0.4102  0.3639  0.4399
   69SLPC   H5R 5876   1.298   4.605  10.115  1.2937 -1.7338  1.0819
   69SLPC   H5S 5877   1.120   4.637  10.095 -0.1250 -0.5154  0.1278
   69SLPC   C26 5878   1.177   4.426  10.109  0.2251 -0.5874  0.8241
   69SLPC   H6R 5879   1.074   4.401  10.140  0.7863 -2.2019  1.4895
   69SLPC   H6S 5880   1.236   4.357  10.174  1.5184  1.2430  1.7073
   69SLPC   C27 5881   1.197   4.402   9.954 -0.2005 -0.4008  0.5996
   69SLPC   H7R 5882   1.177   4.294   9.937 -0.3055 -0.0088 -2.2721
   69SLPC   H7S 5883   1.299   4.442   9.934 -0.4442 -0.6842 -1.3963
   69SLPC   C28 5884   1.100   4.490   9.870 -0.3989  0.1976 -0.0384
   69SLPC   H8R 5885   1.147   4.589   9.853 -0.0490 -0.0244 -0.3770
   69SLPC   H8S 5886   1.006   4.507   9.926 -0.2711  0.8245 -0.0099
   69SLPC   C29 5887   1.067   4.411   9.748 -0.3997  0.3383  0.4478
   69SLPC   H9R 5888   1.045   4.305   9.768  1.7859 -0.4120 -0.7541
   69SLPC  C210 5889   1.066   4.458   9.622 -0.6790  0.1861 -0.1638
   69SLPC  H10R 5890   1.045   4.381   9.546  2.3433 -1.4636  0.5038
   69SLPC  C211 5891   1.103   4.596   9.581 -0.9441 -0.0254 -0.0946
   69SLPC  H11R 5892   1.060   4.668   9.653 -0.1272 -0.8580  1.2840
   69SLPC  H11S 5893   1.053   4.608   9.483 -0.1271 -3.4004 -1.0447
   69SLPC  C212 5894   1.253   4.610   9.573  0.0812 -0.3595  0.0367
   69SLPC  H12R 5895   1.300   4.623   9.672 -0.3639 -1.0935  0.3480
   69SLPC  C213 5896   1.325   4.609   9.458  0.4843  0.1122  0.5175
   69SLPC  H13R 5897   1.433   4.626   9.471  0.8458 -1.1083 -0.6572
   69SLPC  C214 5898   1.273   4.592   9.313  0.0111 -0.5155 -1.4615
   69SLPC  H14R 5899   1.253   4.692   9.270  0.1884 -0.5364 -1.5954
   69SLPC  H14S 5900   1.177   4.537   9.322  0.2914 -0.7671  0.4170
   69SLPC  C215 5901   1.371   4.519   9.216 -0.1656 -0.1775 -0.4535
   69SLPC  H15R 5902   1.402   4.422   9.260 -0.6629  0.1008  0.5562
   69SLPC  H15S 5903   1.458   4.588   9.210 -0.8328  0.6293 -1.2015
   69SLPC  C216 5904   1.322   4.519   9.077  0.0849  0.1454  0.2242
   69SLPC  H16R 5905   1.305   4.618   9.031 -1.2846 -0.2709 -0.2124
   69SLPC  H16S 5906   1.221   4.473   9.071  0.5370 -0.6707 -2.2151
   69SLPC  C217 5907   1.428   4.451   8.991  0.4587  0.5492 -0.0375
   69SLPC  H17R 5908   1.530   4.493   9.008 -0.1947  2.2421 -0.1123
   69SLPC  H17S 5909   1.400   4.478   8.887  0.3685 -0.8178 -0.3843
   69SLPC  C218 5910   1.421   4.303   9.006  0.2795 -0.0316  0.6549
   69SLPC  H18R 5911   1.427   4.259   9.108  0.1605 -0.1639  0.6049
   69SLPC  H18S 5912   1.496   4.242   8.952 -1.5297  0.3041 -2.4438
   69SLPC  H18T 5913   1.328   4.266   8.958 -0.5307  3.8810 -1.1946
   69SLPC   C33 5914   0.853   4.067  10.272  0.4631 -0.0368  0.9178
   69SLPC   H3X 5915   0.784   4.154  10.256  0.0056 -0.8791 -2.3911
   69SLPC   H3Y 5916   0.803   3.983  10.325  1.4961 -0.9522  0.4801
   69SLPC   C34 5917   0.884   4.004  10.135  0.2149 -0.6777  0.6120
   69SLPC   H4X 5918   0.793   3.944  10.115 -1.6909  2.6786 -1.9512
   69SLPC   H4Y 5919   0.975   3.940  10.133  1.1402  0.5838 -1.8312
   69SLPC   C35 5920   0.915   4.106  10.024  0.6070  0.0286  0.4161
   69SLPC   H5X 5921   0.994   4.177  10.058  2.8914 -1.4247 -1.5800
   69SLPC   H5Y 5922   0.819   4.161  10.011 -0.4115 -1.7118  0.4013
   69SLPC   C36 5923   0.948   4.035   9.895 -0.2793 -0.1787  0.1580
   69SLPC   H6X 5924   1.038   3.971   9.908 -1.2103 -1.6852 -0.5507
   69SLPC   H6Y 5925   0.971   4.107   9.813  0.5551  0.5175  0.9953
   69SLPC   C37 5926   0.834   3.957   9.829 -0.6404 -0.6922  0.3145
   69SLPC   H7X 5927   0.738   4.008   9.850 -0.1051 -0.4820  2.4340
   69SLPC   H7Y 5928   0.832   3.858   9.878  0.1490 -0.4374  0.8781
   69SLPC   C38 5929   0.855   3.942   9.679  0.6776  0.1544  0.5388
   69SLPC   H8X 5930   0.947   3.884   9.658  0.9494  1.3152 -1.9160
   69SLPC   H8Y 5931   0.865   4.042   9.630  0.8185 -0.2306 -0.2390
   69SLPC   C39 5932   0.738   3.864   9.605  0.7192  0.0909 -0.1273
   69SLPC   H9X 5933   0.638   3.913   9.610 -0.0405 -0.5462 -4.5599
   69SLPC   H9Y 5934   0.715   3.769   9.658  0.6304  0.4225  0.4342
   69SLPC  C310 5935   0.753   3.839   9.454  0.7826 -0.3785 -0.1504
   69SLPC  H10X 5936   0.822   3.753   9.445  0.7584 -0.4629  0.3980
   69SLPC  H10Y 5937   0.798   3.931   9.411 -0.3419 -0.1892 -0.9682
   69SLPC  C311 5938   0.622   3.812   9.391 -1.0652  0.3183  0.6381
   69SLPC  H11X 5939   0.555   3.898   9.365 -2.3556 -0.3361  1.6435
   69SLPC  H11Y 5940   0.565   3.760   9.472 -0.2986 -0.1242  0.9013
   69SLPC  C312 5941   0.634   3.708   9.278 -0.1738 -0.8305  0.7046
   69SLPC  H12X 5942   0.535   3.659   9.265 -0.8101  0.1211  1.7598
   69SLPC  H12Y 5943   0.703   3.632   9.321 -0.1298 -1.5223 -0.5439
   69SLPC  C313 5944   0.695   3.777   9.155 -0.5839 -0.4652 -0.3426
   69SLPC  H13X 5945   0.714   3.684   9.098 -0.8764 -0.2579 -0.7849
   69SLPC  H13Y 5946   0.790   3.828   9.180 -1.0032  0.3998 -0.4851
   69SLPC  C314 5947   0.611   3.865   9.053 -0.3371  0.2539 -0.0309
   69SLPC  H14X 5948   0.613   3.968   9.095 -1.5601 -0.3526  1.6164
   69SLPC  H14Y 5949   0.505   3.835   9.041 -0.4155  0.6987 -0.4784
   69SLPC  C315 5950   0.685   3.871   8.909  0.5237  0.3831  0.2104
   69SLPC  H15X 5951   0.786   3.913   8.927  0.9854 -1.0488  1.1534
   69SLPC  H15Y 5952   0.632   3.954   8.858 -1.8122 -0.7378  0.6510
   69SLPC  C316 5953   0.681   3.742   8.823 -0.1519 -0.0802 -0.6399
   69SLPC  H16X 5954   0.581   3.701   8.847  0.4820 -0.8521  0.7959
   69SLPC  H16Y 5955   0.750   3.664   8.863 -1.5411 -1.1927 -0.3337
   69SLPC  C317 5956   0.707   3.767   8.678  0.4097  0.2912 -0.6102
   69SLPC  H17X 5957   0.639   3.844   8.636 -0.4402 -0.1907 -0.1435
   69SLPC  H17Y 5958   0.683   3.678   8.616  0.8319  0.5295 -1.1264
   69SLPC  C318 5959   0.857   3.803   8.646  0.4784 -0.1828  0.1059
   69SLPC  H18X 5960   0.888   3.818   8.540 -2.3924 -1.9787 -1.1322
   69SLPC  H18Y 5961   0.925   3.728   8.691 -0.5157 -0.8699  0.5033
   69SLPC  H18Z 5962   0.884   3.895   8.701  2.7268  0.2004 -1.4891
   70SLPC     N 5963   2.859   1.813  11.292  0.6587 -0.3329 -0.6014
   70SLPC   C13 5964   2.804   1.688  11.355 -0.1389  0.0700  0.2444
   70SLPC  H13A 5965   2.885   1.622  11.382 -0.3755  0.0848  1.0330
   70SLPC  H13B 5966   2.755   1.719  11.447 -1.6902  0.1725 -0.5773
   70SLPC  H13C 5967   2.727   1.635  11.300 -0.3910  0.8241 -0.1424
   70SLPC   C14 5968   2.943   1.885  11.389  0.1762  0.0531  0.3001
   70SLPC  H14A 5969   2.974   1.979  11.344 -2.1850 -0.5045 -2.8692
   70SLPC  H14B 5970   2.889   1.902  11.482 -3.2541 -0.8017 -1.3497
   70SLPC  H14C 5971   3.033   1.827  11.389 -0.0806 -0.3795 -0.8532
   70SLPC   C15 5972   2.743   1.903  11.250  0.0698 -0.1082  1.0402
   70SLPC  H15A 5973   2.691   1.865  11.163 -2.2858  1.4882  1.6605
   70SLPC  H15B 5974   2.676   1.905  11.335  0.9431 -2.7621  1.9157
   70SLPC  H15C 5975   2.782   2.002  11.235 -0.6113 -0.1647 -1.4891
   70SLPC   C12 5976   2.936   1.778  11.165  0.3055  0.2329  0.1409
   70SLPC  H12A 5977   2.862   1.719  11.112  0.6557 -3.6984  3.4702
   70SLPC  H12B 5978   3.019   1.715  11.194 -1.2382 -1.3230  1.3900
   70SLPC   C11 5979   2.988   1.891  11.078 -0.2973 -0.2156 -0.6251
   70SLPC  H11A 5980   2.911   1.971  11.071 -1.0904 -0.9276 -0.1966
   70SLPC  H11B 5981   3.007   1.867  10.971  1.3330  2.3466 -1.0170
   70SLPC     P 5982   3.245   1.932  11.117 -0.0817 -0.1951 -0.2839
   70SLPC   O13 5983   3.328   2.039  11.182 -0.7966 -0.1926  0.4067
   70SLPC   O14 5984   3.279   1.793  11.160  0.0268  0.7477  0.2849
   70SLPC   O12 5985   3.095   1.955  11.147 -0.5710 -0.1477  0.2532
   70SLPC   O11 5986   3.254   1.940  10.966  0.1535  0.2597  0.3466
   70SLPC    C1 5987   3.255   2.070  10.897  0.3150  0.2469  0.2201
   70SLPC    HA 5988   3.238   2.158  10.962  0.7705  0.6368 -0.1792
   70SLPC    HB 5989   3.355   2.081  10.848  1.2114 -1.1267  1.6316
   70SLPC    C2 5990   3.148   2.071  10.786  0.2992  0.2290  0.2225
   70SLPC    HS 5991   3.051   2.075  10.840  0.0659  0.5265 -0.2122
   70SLPC   O21 5992   3.148   1.951  10.715 -0.3401 -0.1036 -0.2772
   70SLPC   C21 5993   3.026   1.913  10.673 -0.6292  0.3258 -0.5977
   70SLPC   O22 5994   2.918   1.969  10.697 -0.2026 -0.0669 -0.3508
   70SLPC   C22 5995   3.046   1.787  10.587 -0.3021  0.4488 -0.2538
   70SLPC   H2R 5996   3.147   1.787  10.540 -0.3934  1.9878 -0.4999
   70SLPC   H2S 5997   3.033   1.699  10.654  1.9437  1.4093  1.6244
   70SLPC    C3 5998   3.177   2.197  10.698  0.2662 -0.3718 -0.4864
   70SLPC    HX 5999   3.285   2.187  10.671  0.9046 -0.0749  1.7489
   70SLPC    HY 6000   3.160   2.284  10.764 -0.3565 -0.0895 -1.0163
   70SLPC   O31 6001   3.092   2.217  10.587  0.6807  0.2330 -0.3511
   70SLPC   C31 6002   3.137   2.310  10.500  0.7036 -0.0925  1.1008
   70SLPC   O32 6003   3.240   2.367  10.524 -0.6775 -0.1730 -0.3875
   70SLPC   C32 6004   3.051   2.313  10.373  0.1209 -0.9244  0.1779
   70SLPC   H2X 6005   2.949   2.276  10.397 -1.1375  0.9156 -1.9810
   70SLPC   H2Y 6006   3.100   2.257  10.290 -1.3857 -0.6468 -0.9467
   70SLPC   C23 6007   2.944   1.766  10.478  0.6176 -0.6912 -0.8144
   70SLPC   H3R 6008   2.839   1.787  10.507  0.6490  0.8392 -1.6637
   70SLPC   H3S 6009   2.947   1.667  10.428  0.2728 -0.4277 -1.3731
   70SLPC   C24 6010   2.957   1.872  10.365  0.1373 -0.6643  0.7752
   70SLPC   H4R 6011   3.051   1.878  10.307 -1.1041 -0.2822 -1.2872
   70SLPC   H4S 6012   2.943   1.967  10.420 -0.9187  0.0335 -0.6391
   70SLPC   C25 6013   2.842   1.859  10.271 -0.3463  0.6238  0.6069
   70SLPC   H5R 6014   2.746   1.831  10.319 -1.1240  1.8925 -0.1374
   70SLPC   H5S 6015   2.862   1.783  10.192 -2.5866 -0.4073  0.9508
   70SLPC   C26 6016   2.824   2.000  10.215  0.3296  0.1320  0.0128
   70SLPC   H6R 6017   2.916   2.056  10.241 -0.3742  1.2422  0.1805
   70SLPC   H6S 6018   2.749   2.066  10.262  1.7947  1.9635 -0.0946
   70SLPC   C27 6019   2.791   1.993  10.065 -0.0320 -0.0095  0.5340
   70SLPC   H7R 6020   2.685   1.961  10.058  0.0740 -0.4552  0.9413
   70SLPC   H7S 6021   2.850   1.922  10.003 -0.2398 -0.4033  0.7861
   70SLPC   C28 6022   2.834   2.124  10.001 -0.5885  0.4076  0.6796
   70SLPC   H8R 6023   2.940   2.146  10.028 -0.1243  2.1275 -2.1685
   70SLPC   H8S 6024   2.775   2.207  10.044 -0.3709  0.4145  0.9708
   70SLPC   C29 6025   2.815   2.135   9.856  0.3237 -0.1435 -0.5363
   70SLPC   H9R 6026   2.909   2.125   9.800 -0.0276  1.6330 -1.5291
   70SLPC  C210 6027   2.697   2.156   9.792 -0.3282 -0.2617  0.5375
   70SLPC  H10R 6028   2.697   2.148   9.682  0.1985  4.8022 -0.0367
   70SLPC  C211 6029   2.560   2.172   9.847  0.0056 -0.2183  0.1572
   70SLPC  H11R 6030   2.568   2.197   9.955  0.2946  1.6924 -0.2617
   70SLPC  H11S 6031   2.501   2.078   9.848  0.1494 -0.3075  0.2561
   70SLPC  C212 6032   2.480   2.277   9.767  0.4213  0.6788 -0.0219
   70SLPC  H12R 6033   2.517   2.380   9.769  2.3135  0.0298 -0.2652
   70SLPC  C213 6034   2.367   2.242   9.698  0.0611 -0.4722  0.1806
   70SLPC  H13R 6035   2.318   2.328   9.648  1.2550  1.1770  1.7348
   70SLPC  C214 6036   2.292   2.112   9.688  0.1899  1.3600 -0.2577
   70SLPC  H14R 6037   2.247   2.076   9.783  0.4972  0.9515 -0.2660
   70SLPC  H14S 6038   2.356   2.028   9.654 -2.2626 -1.4306  1.6056
   70SLPC  C215 6039   2.172   2.129   9.598 -0.2078 -0.0831  0.0650
   70SLPC  H15R 6040   2.089   2.180   9.651  1.2076  0.8797  1.4288
   70SLPC  H15S 6041   2.121   2.032   9.577 -0.0399 -0.5946  1.8496
   70SLPC  C216 6042   2.192   2.192   9.461 -0.8060  0.5444 -0.1746
   70SLPC  H16R 6043   2.208   2.302   9.468  0.7192  0.3370  0.0992
   70SLPC  H16S 6044   2.107   2.172   9.394 -0.1421  0.5145 -1.0285
   70SLPC  C217 6045   2.313   2.140   9.386  0.3515  0.5042  0.8837
   70SLPC  H17R 6046   2.330   2.030   9.395 -1.1315  0.2445  0.7177
   70SLPC  H17S 6047   2.404   2.183   9.433  0.7758  1.5018 -0.7699
   70SLPC  C218 6048   2.293   2.178   9.240  0.3011  0.5261 -0.1627
   70SLPC  H18R 6049   2.373   2.139   9.173  0.8429  0.1581  0.6731
   70SLPC  H18S 6050   2.283   2.289   9.243 -1.3417  0.4064 -0.6431
   70SLPC  H18T 6051   2.193   2.144   9.207 -0.0562  1.2040  0.2017
   70SLPC   C33 6052   3.025   2.459  10.317  0.5275 -0.2406 -0.2607
   70SLPC   H3X 6053   3.118   2.518  10.329 -0.5158  1.4199 -0.0910
   70SLPC   H3Y 6054   2.958   2.514  10.386  1.2298  0.3063 -0.0041
   70SLPC   C34 6055   2.972   2.467  10.177  0.4168  0.1727  0.4522
   70SLPC   H4X 6056   2.909   2.558  10.169 -0.7452 -0.6761 -0.3871
   70SLPC   H4Y 6057   2.915   2.378  10.143  1.2940 -0.5924  0.9402
   70SLPC   C35 6058   3.085   2.473  10.073  0.2506  0.4231 -0.0234
   70SLPC   H5X 6059   3.135   2.373  10.078 -1.3625 -0.5760 -2.1101
   70SLPC   H5Y 6060   3.161   2.549  10.101  0.8620 -0.7777  1.7446
   70SLPC   C36 6061   3.028   2.496   9.935  0.3610 -0.3649  0.6372
   70SLPC   H6X 6062   2.962   2.585   9.927  0.2042 -0.6372 -2.5719
   70SLPC   H6Y 6063   2.958   2.413   9.912  0.3535 -0.4128  0.8355
   70SLPC   C37 6064   3.140   2.521   9.828  0.2367 -0.0312 -0.2295
   70SLPC   H7X 6065   3.208   2.434   9.819  0.0356 -0.1077 -1.1821
   70SLPC   H7Y 6066   3.195   2.608   9.870  0.2495 -0.0258 -0.2573
   70SLPC   C38 6067   3.091   2.554   9.689  0.3452 -0.5337  0.0329
   70SLPC   H8X 6068   3.173   2.582   9.620 -1.5616 -0.1655 -2.2218
   70SLPC   H8Y 6069   3.011   2.631   9.692  0.9557  0.1704  3.6348
   70SLPC   C39 6070   3.006   2.443   9.618  0.3030  0.0918 -0.0090
   70SLPC   H9X 6071   2.901   2.443   9.653  1.0364  0.2596  2.3413
   70SLPC   H9Y 6072   3.052   2.342   9.618  1.9666  0.7737  2.3127
   70SLPC  C310 6073   2.996   2.480   9.468 -0.4232  0.2257 -0.6780
   70SLPC  H10X 6074   3.100   2.481   9.429 -1.1049 -0.8506 -2.6500
   70SLPC  H10Y 6075   2.945   2.579   9.464 -1.0651  0.1714  2.6544
   70SLPC  C311 6076   2.921   2.376   9.393  0.2555  0.3452  0.0131
   70SLPC  H11X 6077   2.811   2.384   9.407  0.0678 -0.9219 -0.6469
   70SLPC  H11Y 6078   2.948   2.274   9.428 -0.2228  0.9126  2.2332
   70SLPC  C312 6079   2.946   2.400   9.244 -0.1537  0.2488  0.1716
   70SLPC  H12X 6080   3.056   2.394   9.230 -0.2592  1.6227 -1.5930
   70SLPC  H12Y 6081   2.928   2.505   9.213 -1.1704  0.8746  2.6118
   70SLPC  C313 6082   2.872   2.298   9.150 -0.2070 -0.1784 -0.1769
   70SLPC  H13X 6083   2.762   2.318   9.153  0.0107  1.5538 -1.6524
   70SLPC  H13Y 6084   2.899   2.197   9.186 -2.4026 -0.6425  0.3237
   70SLPC  C314 6085   2.901   2.307   8.999  0.3344  0.5090  0.3188
   70SLPC  H14X 6086   3.010   2.289   8.993  0.2969 -0.4611  1.9635
   70SLPC  H14Y 6087   2.890   2.416   8.981  0.2585  0.4263 -0.1542
   70SLPC  C315 6088   2.804   2.230   8.904 -0.2034  0.3326  0.0619
   70SLPC  H15X 6089   2.776   2.132   8.948 -1.1367  1.4160  1.9880
   70SLPC  H15Y 6090   2.854   2.217   8.806 -0.5754 -1.6272  0.0933
   70SLPC  C316 6091   2.680   2.303   8.869 -0.3200 -1.2890 -0.1409
   70SLPC  H16X 6092   2.691   2.367   8.780 -2.2876  1.0766  1.1778
   70SLPC  H16Y 6093   2.675   2.369   8.958  0.7788  0.7255 -1.5175
   70SLPC  C317 6094   2.554   2.213   8.864  0.2058 -0.5739  0.2310
   70SLPC  H17X 6095   2.545   2.152   8.956  1.7549 -2.3515 -0.7286
   70SLPC  H17Y 6096   2.571   2.159   8.769  2.6845 -2.5459  1.6424
   70SLPC  C318 6097   2.430   2.297   8.835  0.2024 -0.4939 -0.5895
   70SLPC  H18X 6098   2.435   2.345   8.735 -1.7898 -1.2178 -1.0786
   70SLPC  H18Y 6099   2.423   2.377   8.911  2.0905 -0.0763 -0.8158
   70SLPC  H18Z 6100   2.341   2.230   8.827 -0.1509 -0.0306 -0.5482
   71SLPC     N 6101   3.511   1.469  11.059  0.3504  0.7747 -0.0814
   71SLPC   C13 6102   3.472   1.580  11.154 -0.1128  0.4178 -0.5520
   71SLPC  H13A 6103   3.405   1.646  11.102  0.8793  0.3687 -1.9552
   71SLPC  H13B 6104   3.422   1.552  11.245  0.1221  1.0642 -0.2209
   71SLPC  H13C 6105   3.565   1.627  11.182 -0.8306  0.3346  2.1928
   71SLPC   C14 6106   3.591   1.362  11.125  0.2718 -0.0827  0.3647
   71SLPC  H14A 6107   3.557   1.345  11.226 -0.1389 -0.6967  0.1308
   71SLPC  H14B 6108   3.579   1.271  11.068  3.5677 -1.1148  1.0548
   71SLPC  H14C 6109   3.697   1.380  11.114  0.5680 -2.1474 -0.7059
   71SLPC   C15 6110   3.594   1.522  10.945  0.7801 -0.4787 -0.0341
   71SLPC  H15A 6111   3.626   1.439  10.883  2.4591  0.8143 -1.0131
   71SLPC  H15B 6112   3.537   1.589  10.883  0.9008 -0.3074  0.0364
   71SLPC  H15C 6113   3.680   1.583  10.972  0.5071  0.3708 -1.0076
   71SLPC   C12 6114   3.392   1.411  10.995  0.5451  0.3348 -0.2759
   71SLPC  H12A 6115   3.324   1.490  10.964  1.1064  0.2131 -1.9176
   71SLPC  H12B 6116   3.336   1.351  11.066  0.8469  0.7340  0.3081
   71SLPC   C11 6117   3.408   1.309  10.879  0.3892  0.3652 -0.3684
   71SLPC  H11A 6118   3.421   1.375  10.790  0.9330  0.3539 -0.2978
   71SLPC  H11B 6119   3.309   1.259  10.866  0.4728  0.2617 -0.6078
   71SLPC     P 6120   3.550   1.087  10.807  0.0087 -0.4171 -0.3599
   71SLPC   O13 6121   3.686   1.112  10.760 -0.0951  0.0906  0.4218
   71SLPC   O14 6122   3.523   0.978  10.901  0.2967  0.2962 -0.6698
   71SLPC   O12 6123   3.506   1.211  10.899  0.3168  0.0826 -0.4913
   71SLPC   O11 6124   3.447   1.097  10.690  0.3894  0.3344  0.3611
   71SLPC    C1 6125   3.383   0.973  10.661  0.2235 -0.3430  0.6718
   71SLPC    HA 6126   3.447   0.890  10.624  0.3875 -0.4331  1.1557
   71SLPC    HB 6127   3.331   0.936  10.752 -1.3101  0.1190  0.0251
   71SLPC    C2 6128   3.261   1.004  10.569  0.9301 -0.1999 -0.3815
   71SLPC    HS 6129   3.207   0.909  10.551  0.0545  0.2020  0.0977
   71SLPC   O21 6130   3.306   1.071  10.445 -0.5634 -0.1424 -0.6605
   71SLPC   C21 6131   3.351   0.983  10.358  0.3697  0.6012 -0.5816
   71SLPC   O22 6132   3.340   0.862  10.377 -0.3081  0.6348  0.0967
   71SLPC   C22 6133   3.395   1.052  10.234  0.2847  1.3348  0.2218
   71SLPC   H2R 6134   3.408   1.161  10.255  1.9164  1.2636 -0.2728
   71SLPC   H2S 6135   3.492   1.004  10.211 -0.3995  0.3430 -0.6965
   71SLPC    C3 6136   3.173   1.104  10.649 -0.3697  0.3860 -0.3257
   71SLPC    HX 6137   3.224   1.202  10.638 -0.4085  0.3652 -0.6911
   71SLPC    HY 6138   3.184   1.086  10.758  1.5753  3.0737  0.0347
   71SLPC   O31 6139   3.038   1.122  10.593  0.0397 -0.0396 -0.1282
   71SLPC   C31 6140   2.958   1.023  10.625 -0.1166 -0.1409 -0.3547
   71SLPC   O32 6141   2.973   0.932  10.700 -0.8545  0.0280 -0.2863
   71SLPC   C32 6142   2.832   1.039  10.539 -0.4323 -0.1419  0.6175
   71SLPC   H2X 6143   2.825   1.144  10.504  0.2006 -0.0328  0.8041
   71SLPC   H2Y 6144   2.757   1.011  10.616  0.1048  2.1848  2.0756
   71SLPC   C23 6145   3.317   1.028  10.105  1.1180 -0.0788 -0.0547
   71SLPC   H3R 6146   3.229   1.097  10.106  2.1606  1.3480 -1.5642
   71SLPC   H3S 6147   3.290   0.920  10.110 -0.6733  0.3552  1.2877
   71SLPC   C24 6148   3.397   1.064   9.973 -0.1578 -0.6282 -1.0254
   71SLPC   H4R 6149   3.486   0.998   9.973 -0.1957 -0.6847 -0.2786
   71SLPC   H4S 6150   3.427   1.171   9.982  0.2688 -0.7126 -1.3796
   71SLPC   C25 6151   3.314   1.049   9.844  0.8391 -0.1300 -0.0852
   71SLPC   H5R 6152   3.241   1.133   9.840 -0.0997 -0.9700 -1.1895
   71SLPC   H5S 6153   3.252   0.957   9.850  1.5557 -0.7803 -1.9065
   71SLPC   C26 6154   3.398   1.053   9.715  0.2857  0.0675  0.4364
   71SLPC   H6R 6155   3.467   0.966   9.719 -0.3889 -0.4887  0.1916
   71SLPC   H6S 6156   3.458   1.146   9.728  0.7536 -0.5865  3.7909
   71SLPC   C27 6157   3.313   1.034   9.591  0.7578  0.5670  0.3748
   71SLPC   H7R 6158   3.223   1.099   9.599 -0.1327 -0.2704 -2.1656
   71SLPC   H7S 6159   3.272   0.932   9.604 -2.4632  1.4032 -2.0149
   71SLPC   C28 6160   3.398   1.063   9.469  0.4367 -0.5223  0.5043
   71SLPC   H8R 6161   3.502   1.026   9.488  0.6331  0.0820  0.6348
   71SLPC   H8S 6162   3.412   1.173   9.460  0.8331 -0.7501 -2.5483
   71SLPC   C29 6163   3.343   1.010   9.339  0.1738 -0.0733 -0.0730
   71SLPC   H9R 6164   3.289   0.915   9.352  0.1021 -0.1245 -0.7290
   71SLPC  C210 6165   3.341   1.066   9.214  0.4665 -0.0968  0.0237
   71SLPC  H10R 6166   3.305   1.006   9.129 -2.9230  0.3488  1.0137
   71SLPC  C211 6167   3.405   1.196   9.174 -1.1549 -0.8148  0.4318
   71SLPC  H11R 6168   3.413   1.260   9.265 -2.3936 -0.4456  0.3003
   71SLPC  H11S 6169   3.339   1.257   9.109  0.8288 -0.3625 -1.2321
   71SLPC  C212 6170   3.549   1.198   9.128 -0.1869  0.4304  0.8722
   71SLPC  H12R 6171   3.625   1.153   9.193  0.7018 -1.4888 -1.3502
   71SLPC  C213 6172   3.596   1.243   9.007  0.6287 -0.0472 -0.0808
   71SLPC  H13R 6173   3.703   1.223   8.989  0.3516 -0.5797 -1.1691
   71SLPC  C214 6174   3.519   1.296   8.886  0.3963 -0.2215  0.2427
   71SLPC  H14R 6175   3.511   1.407   8.890  3.6342  0.0976  0.2222
   71SLPC  H14S 6176   3.416   1.255   8.890 -0.4406  1.8811  2.6428
   71SLPC  C215 6177   3.589   1.274   8.752 -0.7150  0.0758  0.2648
   71SLPC  H15R 6178   3.615   1.166   8.751 -0.0416  0.2202  1.2191
   71SLPC  H15S 6179   3.685   1.329   8.748 -1.0741  0.7328  0.5946
   71SLPC  C216 6180   3.502   1.289   8.622  0.0000  0.0705 -0.3983
   71SLPC  H16R 6181   3.450   1.387   8.624  1.5083  0.9006 -0.4257
   71SLPC  H16S 6182   3.428   1.205   8.623  0.0876 -0.0015  0.1188
   71SLPC  C217 6183   3.591   1.290   8.494 -0.2101  0.4767  0.0255
   71SLPC  H17R 6184   3.683   1.231   8.516 -0.3643  0.9092  2.0426
   71SLPC  H17S 6185   3.633   1.390   8.469  1.3173 -0.4372 -1.3247
   71SLPC  C218 6186   3.517   1.241   8.371 -0.2339 -0.2239  0.0339
   71SLPC  H18R 6187   3.445   1.315   8.330  0.5742  0.3451 -0.3855
   71SLPC  H18S 6188   3.460   1.146   8.387 -0.4641  0.2695  2.4542
   71SLPC  H18T 6189   3.585   1.213   8.288 -3.4325 -2.2823 -2.1478
   71SLPC   C33 6190   2.834   0.940  10.420 -0.3220 -0.0121 -0.1069
   71SLPC   H3X 6191   2.731   0.935  10.380  0.3696 -0.2569 -1.9770
   71SLPC   H3Y 6192   2.855   0.834  10.446 -0.4245  0.0064  0.0497
   71SLPC   C34 6193   2.921   0.994  10.300  0.1506 -0.1620  0.2990
   71SLPC   H4X 6194   3.027   0.967  10.318 -0.2196 -1.7680  0.2677
   71SLPC   H4Y 6195   2.906   1.104  10.301 -2.1130 -0.4072 -0.0345
   71SLPC   C35 6196   2.881   0.933  10.170  0.1449  0.3357  0.2441
   71SLPC   H5X 6197   2.771   0.942  10.159  0.2541  1.3726 -0.1171
   71SLPC   H5Y 6198   2.909   0.825  10.170 -0.2988  0.1531 -2.4422
   71SLPC   C36 6199   2.927   1.019  10.048  0.1484  0.6416  0.0846
   71SLPC   H6X 6200   3.037   1.001  10.040 -0.1931 -2.0522  0.3628
   71SLPC   H6Y 6201   2.884   1.119  10.067 -0.7335  0.2435  0.2581
   71SLPC   C37 6202   2.869   0.963   9.918  0.0850  0.4202  0.1454
   71SLPC   H7X 6203   2.758   0.966   9.918 -0.1166 -3.0720  0.7370
   71SLPC   H7Y 6204   2.894   0.855   9.929  0.9713  0.6317  0.2757
   71SLPC   C38 6205   2.910   1.030   9.786 -0.6850  0.0263 -0.0240
   71SLPC   H8X 6206   3.019   1.023   9.765 -0.7899  0.5897 -0.8054
   71SLPC   H8Y 6207   2.888   1.137   9.804 -0.9689  0.2120 -1.3315
   71SLPC   C39 6208   2.843   0.988   9.650  1.0055 -0.4636 -0.3106
   71SLPC   H9X 6209   2.735   1.014   9.650  0.9424 -0.6869  0.6844
   71SLPC   H9Y 6210   2.844   0.877   9.640  0.7061 -0.5222  0.2509
   71SLPC  C310 6211   2.922   1.027   9.526 -0.5277 -0.3864 -0.4854
   71SLPC  H10X 6212   3.031   1.002   9.529 -0.3470 -0.7865 -4.3553
   71SLPC  H10Y 6213   2.923   1.138   9.513  0.0230 -0.3361 -0.0738
   71SLPC  C311 6214   2.867   0.959   9.400  0.5824 -0.0399 -0.5840
   71SLPC  H11X 6215   2.762   0.992   9.382 -0.0691 -0.9106  1.3201
   71SLPC  H11Y 6216   2.866   0.853   9.435 -0.6021  0.4122  0.8585
   71SLPC  C312 6217   2.942   0.983   9.278  0.1429 -0.1346 -0.0473
   71SLPC  H12X 6218   3.044   0.945   9.299 -0.0400 -0.5542  0.0868
   71SLPC  H12Y 6219   2.955   1.092   9.259 -0.4285  0.0105  0.3313
   71SLPC  C313 6220   2.878   0.919   9.155 -0.4400 -0.0962  0.0061
   71SLPC  H13X 6221   2.776   0.963   9.143  0.1936  1.3289 -0.4357
   71SLPC  H13Y 6222   2.872   0.812   9.185 -0.2603  0.3446  1.6760
   71SLPC  C314 6223   2.960   0.930   9.034 -0.0003  1.1930  0.3930
   71SLPC  H14X 6224   3.038   0.851   9.027  2.4166  3.5129 -0.8496
   71SLPC  H14Y 6225   3.017   1.025   9.030 -1.1972  1.9914  1.4344
   71SLPC  C315 6226   2.880   0.919   8.906 -0.1053 -0.3659 -0.3091
   71SLPC  H15X 6227   2.816   1.010   8.907  1.2562  0.6165  0.1691
   71SLPC  H15Y 6228   2.819   0.827   8.913  1.0178 -1.0608  0.7239
   71SLPC  C316 6229   2.978   0.931   8.777 -0.7394 -0.3904 -0.6098
   71SLPC  H16X 6230   3.066   0.863   8.781 -0.7083 -0.3614 -0.8077
   71SLPC  H16Y 6231   3.031   1.029   8.774  0.4441 -1.0413 -2.8896
   71SLPC  C317 6232   2.903   0.914   8.649 -0.3305 -0.4211  1.5499
   71SLPC  H17X 6233   2.830   0.832   8.671  0.9465 -1.4820  1.9540
   71SLPC  H17Y 6234   2.976   0.896   8.567 -0.5331  2.0071  0.7531
   71SLPC  C318 6235   2.833   1.035   8.600 -0.3877 -0.8611  0.5238
   71SLPC  H18X 6236   2.763   1.090   8.666 -0.7233  0.1268 -0.6153
   71SLPC  H18Y 6237   2.786   1.020   8.501  2.0062  0.7869 -0.9609
   71SLPC  H18Z 6238   2.915   1.105   8.573 -1.2761  1.1803  2.7157
   72SLPC     N 6239   3.806   5.292  11.462 -0.9114  0.2313 -0.3477
   72SLPC   C13 6240   3.697   5.279  11.562  0.1254 -0.1358  0.2152
   72SLPC  H13A 6241   3.705   5.333  11.656 -2.2580 -0.1762  0.4880
   72SLPC  H13B 6242   3.603   5.294  11.511  0.4570 -1.8046 -0.9463
   72SLPC  H13C 6243   3.698   5.175  11.589  1.2085 -1.2576 -3.5204
   72SLPC   C14 6244   3.794   5.198  11.350 -0.3683 -0.0474 -0.4164
   72SLPC  H14A 6245   3.808   5.097  11.386 -2.0934 -1.1258 -2.5067
   72SLPC  H14B 6246   3.697   5.202  11.303  0.1487  1.1656 -1.4390
   72SLPC  H14C 6247   3.861   5.223  11.269  1.0063  2.5633  1.4019
   72SLPC   C15 6248   3.931   5.255  11.532  0.2870 -0.0453  0.0408
   72SLPC  H15A 6249   3.953   5.324  11.613 -0.0988  0.3436 -0.1777
   72SLPC  H15B 6250   3.928   5.155  11.571  2.1255 -0.3440 -0.4683
   72SLPC  H15C 6251   4.017   5.258  11.467  0.8910 -0.5131  0.8047
   72SLPC   C12 6252   3.817   5.435  11.416  0.5221  0.5459 -0.0013
   72SLPC  H12A 6253   3.803   5.502  11.500 -2.2375  0.4841 -0.3188
   72SLPC  H12B 6254   3.730   5.455  11.353  0.2523  1.2603  0.5795
   72SLPC   C11 6255   3.931   5.470  11.328  0.0941  0.3404 -0.0526
   72SLPC  H11A 6256   4.027   5.426  11.364  0.6340  0.6914 -1.0125
   72SLPC  H11B 6257   3.935   5.581  11.319  0.4087  0.2011 -1.8792
   72SLPC     P 6258   3.795   5.459  11.101  0.0312 -0.3106 -0.0460
   72SLPC   O13 6259   3.680   5.514  11.177  0.9380  0.4942  0.0788
   72SLPC   O14 6260   3.862   5.549  11.005 -0.1185 -0.0353  0.1266
   72SLPC   O12 6261   3.905   5.407  11.199 -0.5058  0.0923 -0.3038
   72SLPC   O11 6262   3.736   5.328  11.030 -0.0054 -0.3281 -0.2223
   72SLPC    C1 6263   3.813   5.238  10.955 -0.0644  0.0425 -0.0183
   72SLPC    HA 6264   3.915   5.277  10.934  0.2782 -1.1797 -0.7099
   72SLPC    HB 6265   3.831   5.147  11.015 -1.3618  0.4667  1.0769
   72SLPC    C2 6266   3.734   5.200  10.820  0.6000  0.0058 -0.5008
   72SLPC    HS 6267   3.794   5.116  10.779 -0.1293  0.6437 -3.0093
   72SLPC   O21 6268   3.725   5.313  10.732 -0.4534 -0.4468 -0.6816
   72SLPC   C21 6269   3.840   5.328  10.665  0.5793  0.1793 -0.3316
   72SLPC   O22 6270   3.932   5.250  10.667 -0.5583  0.0572  0.6080
   72SLPC   C22 6271   3.830   5.461  10.583 -0.1353  0.3021 -0.2683
   72SLPC   H2R 6272   3.722   5.473  10.558  0.0613  0.2427 -1.1665
   72SLPC   H2S 6273   3.854   5.550  10.645  0.9430  1.1049 -1.7719
   72SLPC    C3 6274   3.587   5.155  10.849  0.2258  0.4724 -0.9899
   72SLPC    HX 6275   3.536   5.237  10.905 -1.7870 -2.6252  2.1624
   72SLPC    HY 6276   3.598   5.077  10.927 -1.4066  0.0987 -1.0895
   72SLPC   O31 6277   3.516   5.102  10.732 -0.8828  0.1624 -0.0310
   72SLPC   C31 6278   3.429   5.171  10.661  0.1213  0.0771  0.2904
   72SLPC   O32 6279   3.393   5.287  10.682  0.0379 -0.1672  0.2400
   72SLPC   C32 6280   3.381   5.086  10.539 -0.6970  0.0457 -0.1914
   72SLPC   H2X 6281   3.307   5.013  10.578  0.0184 -0.3012  0.5414
   72SLPC   H2Y 6282   3.472   5.028  10.512 -0.4372 -1.4978  3.4924
   72SLPC   C23 6283   3.912   5.486  10.453  0.0324  0.2400 -0.0675
   72SLPC   H3R 6284   4.021   5.472  10.468  0.1783 -0.3874 -1.5061
   72SLPC   H3S 6285   3.899   5.592  10.422 -0.6975 -0.4033 -2.1408
   72SLPC   C24 6286   3.860   5.405  10.335 -0.0654  0.1776 -0.0361
   72SLPC   H4R 6287   3.750   5.415  10.323 -0.3556 -1.4436  0.8897
   72SLPC   H4S 6288   3.893   5.299  10.331  0.1391  0.2664 -0.8836
   72SLPC   C25 6289   3.918   5.464  10.200  0.5342  0.3863  0.0467
   72SLPC   H5R 6290   4.027   5.454  10.216  0.9329  3.3858 -0.3245
   72SLPC   H5S 6291   3.891   5.572  10.197  1.0555  0.5146 -0.1174
   72SLPC   C26 6292   3.873   5.390  10.076 -0.3119  0.7351 -0.1658
   72SLPC   H6R 6293   3.766   5.408  10.053 -0.5986 -0.4019  0.2505
   72SLPC   H6S 6294   3.890   5.281  10.082  0.4646  0.8833  0.3899
   72SLPC   C27 6295   3.970   5.427   9.954 -0.5277  0.3355  0.3387
   72SLPC   H7R 6296   4.075   5.406   9.985 -0.4622 -0.4453 -0.3876
   72SLPC   H7S 6297   3.959   5.537   9.939 -0.3120  0.0702 -2.1601
   72SLPC   C28 6298   3.947   5.367   9.819 -0.4462 -0.7489 -0.0602
   72SLPC   H8R 6299   3.946   5.256   9.820  0.9930 -0.7860 -1.0345
   72SLPC   H8S 6300   4.033   5.398   9.757  1.0089 -2.0262  1.2309
   72SLPC   C29 6301   3.820   5.406   9.751  0.1367 -0.0871 -0.8358
   72SLPC   H9R 6302   3.738   5.427   9.822 -0.0285  0.8397 -1.2902
   72SLPC  C210 6303   3.798   5.423   9.621 -0.3335  0.1722  0.6318
   72SLPC  H10R 6304   3.696   5.449   9.588  0.2486  0.6167 -0.9055
   72SLPC  C211 6305   3.899   5.396   9.510 -0.0909  0.0675  0.2574
   72SLPC  H11R 6306   3.996   5.359   9.548  1.3651  3.2687 -0.0270
   72SLPC  H11S 6307   3.938   5.494   9.474  0.6779  0.0748  1.0749
   72SLPC  C212 6308   3.853   5.310   9.395  0.7328 -0.2658  0.1876
   72SLPC  H12R 6309   3.876   5.203   9.412 -3.5767 -1.2630  1.0350
   72SLPC  C213 6310   3.781   5.348   9.285 -0.0744 -0.3720 -0.1394
   72SLPC  H13R 6311   3.759   5.267   9.213  2.7219  0.1116 -1.7187
   72SLPC  C214 6312   3.733   5.489   9.247 -0.1093  0.6579 -0.0584
   72SLPC  H14R 6313   3.752   5.561   9.330  4.2697 -2.9973  2.6057
   72SLPC  H14S 6314   3.630   5.496   9.206  0.9478  0.2293 -2.9806
   72SLPC  C215 6315   3.804   5.537   9.112  0.1803 -0.4481 -0.1681
   72SLPC  H15R 6316   3.912   5.525   9.137  0.3694  0.1738 -0.6601
   72SLPC  H15S 6317   3.789   5.641   9.076  1.6546 -0.7117 -1.6490
   72SLPC  C216 6318   3.766   5.448   8.986 -0.4134 -0.0451  0.8423
   72SLPC  H16R 6319   3.658   5.424   8.990 -0.5439  0.3575 -0.1190
   72SLPC  H16S 6320   3.805   5.346   9.007 -2.1541 -0.7679  0.7485
   72SLPC  C217 6321   3.817   5.505   8.853  0.3315 -0.1088  0.1911
   72SLPC  H17R 6322   3.775   5.607   8.842  0.4993 -0.1854 -1.2346
   72SLPC  H17S 6323   3.761   5.461   8.768 -0.9251  2.0634 -0.1790
   72SLPC  C218 6324   3.964   5.488   8.837  0.2069  0.7790 -0.1987
   72SLPC  H18R 6325   3.990   5.508   8.731  1.5112 -1.5845 -0.3893
   72SLPC  H18S 6326   4.006   5.387   8.858  0.9851  1.3474  1.1531
   72SLPC  H18T 6327   4.019   5.563   8.898  2.1710 -0.8066  0.1151
   72SLPC   C33 6328   3.330   5.181  10.434  0.4639 -0.4266 -0.3028
   72SLPC   H3X 6329   3.393   5.255  10.381 -2.5768  1.7986 -1.0645
   72SLPC   H3Y 6330   3.247   5.243  10.474  0.4652  0.7100 -1.9514
   72SLPC   C34 6331   3.256   5.113  10.317  0.2125  0.3697 -0.4878
   72SLPC   H4X 6332   3.178   5.047  10.360  0.1139  1.7532  1.6121
   72SLPC   H4Y 6333   3.319   5.035  10.269 -0.1088 -1.9668  2.5858
   72SLPC   C35 6334   3.204   5.214  10.204 -0.0547  0.0133  0.0970
   72SLPC   H5X 6335   3.285   5.246  10.135 -0.2365  1.2420  0.4317
   72SLPC   H5Y 6336   3.170   5.306  10.257  0.9832  0.5533 -0.1349
   72SLPC   C36 6337   3.105   5.149  10.114  0.1714  0.2052 -0.0361
   72SLPC   H6X 6338   3.074   5.230  10.044 -0.5932  0.0004  0.0624
   72SLPC   H6Y 6339   3.018   5.117  10.174 -0.1796  3.4999  1.4178
   72SLPC   C37 6340   3.169   5.030  10.029 -0.2608 -0.2238 -0.0024
   72SLPC   H7X 6341   3.189   4.943  10.094  4.5994 -1.0210 -2.1610
   72SLPC   H7Y 6342   3.270   5.052   9.987  0.4969 -1.3656  1.1610
   72SLPC   C38 6343   3.076   4.985   9.914 -0.8153 -0.1826  0.0989
   72SLPC   H8X 6344   2.974   4.947   9.938 -1.2428  0.5100 -0.5981
   72SLPC   H8Y 6345   3.118   4.894   9.865 -3.6596 -1.3135 -0.5143
   72SLPC   C39 6346   3.077   5.095   9.797  0.2439 -0.0417 -0.1435
   72SLPC   H9X 6347   3.182   5.130   9.788  0.6002 -1.1161 -0.3192
   72SLPC   H9Y 6348   3.013   5.180   9.829  0.4886 -0.6755  2.2705
   72SLPC  C310 6349   3.014   5.034   9.666  0.1573 -0.4253  0.3869
   72SLPC  H10X 6350   2.905   5.022   9.681 -0.2337  1.2172 -0.9412
   72SLPC  H10Y 6351   3.069   4.942   9.637 -0.5861 -0.5738 -0.5722
   72SLPC  C311 6352   3.033   5.128   9.540 -0.3337  0.0431 -0.3061
   72SLPC  H11X 6353   3.142   5.148   9.527 -0.8057  1.8420 -1.8714
   72SLPC  H11Y 6354   2.994   5.226   9.576 -0.3562  0.7382 -2.1189
   72SLPC  C312 6355   2.969   5.067   9.412  0.1658  0.6000 -0.0062
   72SLPC  H12X 6356   2.859   5.060   9.425  0.0165  2.7273  0.3329
   72SLPC  H12Y 6357   3.009   4.964   9.400 -0.5116  0.2374  0.7695
   72SLPC  C313 6358   3.006   5.134   9.278 -0.0430  0.2374 -0.1545
   72SLPC  H13X 6359   3.116   5.151   9.277  0.3198 -1.8384 -0.9488
   72SLPC  H13Y 6360   2.957   5.234   9.278  0.9847  0.7740  0.9455
   72SLPC  C314 6361   2.969   5.058   9.149 -0.5757  0.0661  0.2047
   72SLPC  H14X 6362   3.008   5.124   9.068  0.3685  0.6828  1.1451
   72SLPC  H14Y 6363   2.859   5.068   9.143 -0.4657  1.2601 -0.0559
   72SLPC  C315 6364   3.020   4.912   9.137 -0.2414  0.0293  0.1514
   72SLPC  H15X 6365   2.959   4.855   9.211  0.3424  0.2289  0.7980
   72SLPC  H15Y 6366   3.122   4.912   9.179 -0.4817  0.6934  0.7696
   72SLPC  C316 6367   3.009   4.850   8.997 -0.3182  0.2099 -0.7829
   72SLPC  H16X 6368   2.904   4.851   8.959  0.1487 -0.3106 -2.1265
   72SLPC  H16Y 6369   3.030   4.741   9.000 -0.1813  0.2641  0.5478
   72SLPC  C317 6370   3.081   4.907   8.881  0.0918  0.0684  0.2226
   72SLPC  H17X 6371   3.188   4.933   8.899  0.9499 -2.6317 -0.5892
   72SLPC  H17Y 6372   3.035   5.006   8.859 -0.2522 -0.6849 -3.0370
   72SLPC  C318 6373   3.066   4.826   8.746 -0.5483 -0.1997  0.3626
   72SLPC  H18X 6374   3.082   4.900   8.666  1.0275  0.6338  1.3994
   72SLPC  H18Y 6375   2.970   4.770   8.746  0.5846 -2.2861  0.5957
   72SLPC  H18Z 6376   3.154   4.758   8.738  2.2973  3.2803 -0.4082
   73SLPC     N 6377   5.360   5.746  11.083  1.2343 -0.6142 -0.3689
   73SLPC   C13 6378   5.265   5.731  11.203 -0.8310 -0.1856  0.4481
   73SLPC  H13A 6379   5.281   5.644  11.265 -0.8623  1.7684  3.4044
   73SLPC  H13B 6380   5.279   5.809  11.276  2.0920 -0.0455 -0.1792
   73SLPC  H13C 6381   5.163   5.738  11.166 -2.0073  0.5239  3.4749
   73SLPC   C14 6382   5.497   5.743  11.128  0.7161 -0.4017  0.0195
   73SLPC  H14A 6383   5.567   5.754  11.046 -0.3625 -0.4448 -0.9320
   73SLPC  H14B 6384   5.509   5.823  11.199 -0.1204 -1.2826  1.1843
   73SLPC  H14C 6385   5.512   5.649  11.179  0.4066 -1.2580 -1.4143
   73SLPC   C15 6386   5.331   5.874  11.013  0.1924  0.6132 -0.5363
   73SLPC  H15A 6387   5.375   5.951  11.074  0.0577 -0.5650  1.0952
   73SLPC  H15B 6388   5.379   5.899  10.919 -0.5613 -2.1501 -1.7749
   73SLPC  H15C 6389   5.224   5.881  10.997  0.0326 -0.8204 -0.2166
   73SLPC   C12 6390   5.332   5.631  10.985  0.0941 -0.4934 -0.1913
   73SLPC  H12A 6391   5.375   5.541  11.026  0.8793 -0.1820 -0.3137
   73SLPC  H12B 6392   5.402   5.645  10.904 -1.9464 -0.1334 -1.9925
   73SLPC   C11 6393   5.187   5.612  10.936 -0.0898 -0.2740 -0.7914
   73SLPC  H11A 6394   5.129   5.580  11.025  0.6443  0.9410  0.1621
   73SLPC  H11B 6395   5.193   5.525  10.867 -3.3954 -2.3157  1.2126
   73SLPC     P 6396   4.984   5.764  10.883  0.3905  0.4954 -0.0796
   73SLPC   O13 6397   4.903   5.645  10.934 -0.2355 -0.4631  0.1243
   73SLPC   O14 6398   4.971   5.882  10.981  0.2967 -0.3870  0.7909
   73SLPC   O12 6399   5.141   5.725  10.859  0.1133 -0.8610  0.1471
   73SLPC   O11 6400   4.942   5.817  10.739 -0.0516  0.0353 -0.1481
   73SLPC    C1 6401   5.024   5.893  10.656 -0.9712 -0.2794  0.9804
   73SLPC    HA 6402   4.979   5.991  10.630 -1.0473 -1.1748 -2.7783
   73SLPC    HB 6403   5.125   5.902  10.702  0.4889 -1.2480 -1.7729
   73SLPC    C2 6404   5.058   5.808  10.526 -0.5927 -0.1885 -0.0877
   73SLPC    HS 6405   5.112   5.874  10.455  0.4122 -0.1086  0.7184
   73SLPC   O21 6406   4.951   5.741  10.458  0.6625  0.6818  0.2493
   73SLPC   C21 6407   4.864   5.829  10.404  1.2220 -0.3943 -0.7619
   73SLPC   O22 6408   4.877   5.951  10.411 -0.0367 -0.1289 -0.5874
   73SLPC   C22 6409   4.755   5.767  10.326 -0.4601  0.4531 -0.6189
   73SLPC   H2R 6410   4.764   5.658  10.347  2.6122  0.8629  0.8212
   73SLPC   H2S 6411   4.655   5.801  10.358  0.4309  0.4846  2.4104
   73SLPC    C3 6412   5.164   5.692  10.556  0.3245 -0.4490 -0.2003
   73SLPC    HX 6413   5.119   5.632  10.638 -2.0555  0.3694 -0.8199
   73SLPC    HY 6414   5.249   5.754  10.591  0.7541  0.4530 -2.6582
   73SLPC   O31 6415   5.202   5.619  10.438 -0.0508 -0.0489 -0.6875
   73SLPC   C31 6416   5.281   5.691  10.357  0.6985  0.4381 -0.2943
   73SLPC   O32 6417   5.328   5.799  10.374  0.0939 -0.0290 -0.1125
   73SLPC   C32 6418   5.297   5.597  10.234  0.5884 -0.3029 -0.4248
   73SLPC   H2X 6419   5.199   5.588  10.183  0.6975 -1.6507 -0.4419
   73SLPC   H2Y 6420   5.326   5.500  10.282  0.2712 -0.8576 -1.3310
   73SLPC   C23 6421   4.760   5.810  10.170  0.2189 -0.0375 -0.5223
   73SLPC   H3R 6422   4.786   5.917  10.154 -2.5386  0.8037  0.1598
   73SLPC   H3S 6423   4.653   5.821  10.142  0.5442  1.1367 -1.4135
   73SLPC   C24 6424   4.842   5.711  10.084 -0.0577 -0.3387 -0.1651
   73SLPC   H4R 6425   4.814   5.608  10.115 -2.0079  0.0945 -0.3596
   73SLPC   H4S 6426   4.950   5.735  10.083 -0.1206 -0.0523 -0.6796
   73SLPC   C25 6427   4.800   5.734   9.934 -0.5628  0.2181  0.2546
   73SLPC   H5R 6428   4.831   5.840   9.920  1.0986 -0.0811  1.3180
   73SLPC   H5S 6429   4.693   5.715   9.915 -1.0830  2.2085  0.8873
   73SLPC   C26 6430   4.883   5.664   9.831 -0.3240 -0.9914  0.6073
   73SLPC   H6R 6431   4.873   5.553   9.823  3.5505 -1.3495 -1.7005
   73SLPC   H6S 6432   4.990   5.690   9.847 -0.6027  1.7921 -1.3694
   73SLPC   C27 6433   4.884   5.712   9.684  0.8049 -0.8251  0.2262
   73SLPC   H7R 6434   4.969   5.666   9.630  2.3407  2.6037 -0.5108
   73SLPC   H7S 6435   4.909   5.819   9.667  1.6989 -1.5703 -4.6869
   73SLPC   C28 6436   4.751   5.685   9.612 -0.2452 -0.2768 -0.0372
   73SLPC   H8R 6437   4.763   5.727   9.510 -0.7685  0.4107  0.1770
   73SLPC   H8S 6438   4.671   5.748   9.657  2.2805  2.2761  1.2004
   73SLPC   C29 6439   4.705   5.542   9.603  0.8643 -0.1706  0.1833
   73SLPC   H9R 6440   4.706   5.490   9.700 -1.2410  1.0570  0.9354
   73SLPC  C210 6441   4.672   5.470   9.500 -0.4438 -0.0211 -0.8029
   73SLPC  H10R 6442   4.655   5.363   9.522  1.9683  0.0770  2.0985
   73SLPC  C211 6443   4.680   5.503   9.352  0.1326 -0.0070 -0.2178
   73SLPC  H11R 6444   4.695   5.407   9.299 -0.5872 -0.6531  0.7134
   73SLPC  H11S 6445   4.768   5.567   9.328  1.8571 -1.9903  0.5685
   73SLPC  C212 6446   4.548   5.556   9.292 -0.1239 -0.6357  0.7401
   73SLPC  H12R 6447   4.453   5.550   9.347 -1.6630  3.1118 -1.1466
   73SLPC  C213 6448   4.538   5.605   9.163 -0.4215 -0.0146  0.5562
   73SLPC  H13R 6449   4.442   5.637   9.119  0.4235  1.3931 -0.3366
   73SLPC  C214 6450   4.652   5.625   9.070  0.2288  0.6564  0.7158
   73SLPC  H14R 6451   4.754   5.605   9.109  1.0416 -0.0494 -1.6394
   73SLPC  H14S 6452   4.659   5.733   9.045  0.5823  0.4313 -0.1960
   73SLPC  C215 6453   4.619   5.556   8.934 -0.4317  0.0873  0.2570
   73SLPC  H15R 6454   4.691   5.589   8.856  1.2525 -2.3459  0.6778
   73SLPC  H15S 6455   4.514   5.570   8.898 -0.5827 -1.5099 -0.0232
   73SLPC  C216 6456   4.638   5.400   8.959  0.0760 -0.0411 -0.4041
   73SLPC  H16R 6457   4.556   5.386   9.033  0.3695  4.2055  0.9526
   73SLPC  H16S 6458   4.740   5.376   8.996 -0.5026 -0.3957  1.0487
   73SLPC  C217 6459   4.609   5.317   8.830  0.4520 -0.5244  0.0907
   73SLPC  H17R 6460   4.677   5.349   8.748 -1.5115  0.0729 -1.3921
   73SLPC  H17S 6461   4.508   5.353   8.800 -0.3584 -1.0104  2.0913
   73SLPC  C218 6462   4.595   5.169   8.848 -0.0291 -0.8140  1.1996
   73SLPC  H18R 6463   4.578   5.128   8.746 -0.7257  1.5977  0.2559
   73SLPC  H18S 6464   4.507   5.136   8.907 -0.3488 -0.1417  1.1088
   73SLPC  H18T 6465   4.689   5.121   8.880  1.3170 -0.4989 -1.9471
   73SLPC   C33 6466   5.416   5.649  10.147 -0.0787  0.5522  0.3278
   73SLPC   H3X 6467   5.507   5.638  10.210 -0.8367  0.3180  1.4169
   73SLPC   H3Y 6468   5.399   5.757  10.130  1.5982  0.7539 -0.2268
   73SLPC   C34 6469   5.434   5.578  10.010 -0.3468  0.0172 -0.0986
   73SLPC   H4X 6470   5.468   5.472  10.019 -0.4779 -0.0684 -0.5962
   73SLPC   H4Y 6471   5.519   5.629   9.961  0.5698 -0.3010  1.1117
   73SLPC   C35 6472   5.318   5.583   9.910  0.2238 -0.0932 -0.2710
   73SLPC   H5X 6473   5.325   5.680   9.856 -3.1487 -0.0608 -0.8580
   73SLPC   H5Y 6474   5.223   5.569   9.965  0.7315 -0.3229  0.5587
   73SLPC   C36 6475   5.316   5.472   9.804  0.1471 -0.1026  0.0521
   73SLPC   H6X 6476   5.320   5.371   9.851  0.9568  0.3583  1.0286
   73SLPC   H6Y 6477   5.408   5.481   9.741 -0.3953  2.3543 -0.4937
   73SLPC   C37 6478   5.203   5.479   9.702  0.6584  0.3571 -0.4200
   73SLPC   H7X 6479   5.226   5.567   9.638  0.2199  0.2653 -0.7011
   73SLPC   H7Y 6480   5.120   5.506   9.770  1.2584 -0.6055  0.7303
   73SLPC   C38 6481   5.200   5.346   9.626  1.2196  0.2803  0.1497
   73SLPC   H8X 6482   5.202   5.265   9.703  0.4053  0.1777  0.0728
   73SLPC   H8Y 6483   5.289   5.334   9.562  2.0985 -0.2473  1.4364
   73SLPC   C39 6484   5.070   5.342   9.538 -0.6041  0.8088  0.0523
   73SLPC   H9X 6485   5.086   5.431   9.474  1.9098  0.1653 -0.3419
   73SLPC   H9Y 6486   4.989   5.351   9.613 -0.0816  0.8894  0.6141
   73SLPC  C310 6487   5.051   5.210   9.459  0.1359 -0.0850  0.3495
   73SLPC  H10X 6488   5.061   5.119   9.523  1.0817 -1.0471 -1.1123
   73SLPC  H10Y 6489   5.128   5.196   9.381 -0.2254 -1.1995  0.1699
   73SLPC  C311 6490   4.911   5.219   9.396  0.2751  0.1822 -1.1816
   73SLPC  H11X 6491   4.902   5.303   9.324  1.0941  1.1974 -0.1326
   73SLPC  H11Y 6492   4.841   5.238   9.480 -1.5497  1.9057 -2.9881
   73SLPC  C312 6493   4.875   5.088   9.333  0.4316  0.6353  0.5077
   73SLPC  H12X 6494   4.863   5.010   9.412 -1.8535 -0.1465 -0.5062
   73SLPC  H12Y 6495   4.956   5.058   9.264 -0.1256 -0.8569  0.4543
   73SLPC  C313 6496   4.746   5.099   9.251  0.9646  0.2362 -0.4755
   73SLPC  H13X 6497   4.742   5.158   9.157 -2.3821  2.3354  0.7896
   73SLPC  H13Y 6498   4.673   5.158   9.311 -0.4276 -1.8626 -0.0319
   73SLPC  C314 6499   4.675   4.956   9.229 -0.4498  0.3890  1.0650
   73SLPC  H14X 6500   4.668   4.899   9.323 -0.7113  0.6271  1.1931
   73SLPC  H14Y 6501   4.749   4.890   9.179  0.6602  1.5919  1.0557
   73SLPC  C315 6502   4.553   4.946   9.137  0.3701  0.2435  0.2174
   73SLPC  H15X 6503   4.593   4.940   9.033  0.4479 -0.8415  0.2999
   73SLPC  H15Y 6504   4.505   5.046   9.135  0.6007  0.3524 -1.4237
   73SLPC  C316 6505   4.458   4.829   9.167  0.0868  0.2522  0.0115
   73SLPC  H16X 6506   4.433   4.811   9.274  0.4631  0.2867  0.1079
   73SLPC  H16Y 6507   4.513   4.736   9.140  0.3752  0.2443  0.6115
   73SLPC  C317 6508   4.322   4.823   9.082 -0.2784 -0.0808 -0.3659
   73SLPC  H17X 6509   4.258   4.909   9.112 -0.0061  0.0512 -0.1582
   73SLPC  H17Y 6510   4.287   4.721   9.111 -0.5531  0.5715  1.8502
   73SLPC  C318 6511   4.324   4.833   8.933  0.9242  0.8292  1.2520
   73SLPC  H18X 6512   4.403   4.763   8.896  1.1156  0.9910  1.3538
   73SLPC  H18Y 6513   4.357   4.932   8.896  0.2381  0.3927 -0.6178
   73SLPC  H18Z 6514   4.225   4.807   8.889  1.4795 -2.6563  1.7460
   74SLPC     N 6515   4.906   0.730  11.009  0.2431 -0.3802  0.9470
   74SLPC   C13 6516   4.960   0.860  11.054 -0.5622 -0.0876 -0.3409
   74SLPC  H13A 6517   5.067   0.871  11.045 -0.3234 -2.1332 -0.4225
   74SLPC  H13B 6518   4.917   0.944  11.000 -3.5793 -0.5055  1.1660
   74SLPC  H13C 6519   4.938   0.868  11.160  0.7016 -3.1434  0.2468
   74SLPC   C14 6520   4.765   0.718  11.016 -0.0872 -0.4096  0.0945
   74SLPC  H14A 6521   4.712   0.789  10.955 -1.9929 -1.0241  0.9567
   74SLPC  H14B 6522   4.737   0.623  10.972  1.9015 -0.3571 -1.4419
   74SLPC  H14C 6523   4.736   0.744  11.117 -1.0651 -0.2190 -0.2281
   74SLPC   C15 6524   4.972   0.630  11.097 -0.1278 -0.0778 -0.2431
   74SLPC  H15A 6525   4.913   0.629  11.188  0.8595  2.0957  0.4942
   74SLPC  H15B 6526   4.963   0.528  11.063  2.1172 -0.9296  1.4804
   74SLPC  H15C 6527   5.076   0.649  11.119  0.6174 -0.7756 -2.8664
   74SLPC   C12 6528   4.963   0.706  10.862  0.4169  0.5236 -0.4320
   74SLPC  H12A 6529   5.071   0.707  10.870  0.8071  2.4131 -3.8377
   74SLPC  H12B 6530   4.938   0.791  10.801 -1.8269 -0.3760 -0.8510
   74SLPC   C11 6531   4.925   0.570  10.785 -0.4213 -0.0480  0.5293
   74SLPC  H11A 6532   4.970   0.580  10.684  1.6799  1.0734  1.5271
   74SLPC  H11B 6533   4.814   0.571  10.777 -0.3240 -1.0892 -2.2131
   74SLPC     P 6534   4.941   0.318  10.752  0.7103 -0.2105 -0.4381
   74SLPC   O13 6535   4.963   0.195  10.835 -0.3460  0.3427  0.1512
   74SLPC   O14 6536   4.814   0.329  10.683  0.8031  0.0655 -0.1455
   74SLPC   O12 6537   4.977   0.454  10.839  0.1154  0.4019 -0.5028
   74SLPC   O11 6538   5.043   0.324  10.633 -0.1657  0.0694  0.4143
   74SLPC    C1 6539   5.054   0.243  10.522 -0.3926 -0.1655 -0.3055
   74SLPC    HA 6540   4.962   0.181  10.510 -1.9336  1.6309  1.6018
   74SLPC    HB 6541   5.064   0.302  10.429 -1.3714 -0.5200 -0.6485
   74SLPC    C2 6542   5.180   0.152  10.521  0.0246  0.5994  0.7195
   74SLPC    HS 6543   5.234   0.182  10.614  1.2285  2.0866 -0.4022
   74SLPC   O21 6544   5.250   0.190  10.399 -0.0354  0.0475 -0.0993
   74SLPC   C21 6545   5.369   0.127  10.382 -0.3101 -0.0354  0.6245
   74SLPC   O22 6546   5.429   0.064  10.465  0.3062  0.2754  0.4609
   74SLPC   C22 6547   5.415   0.150  10.235 -0.1511 -0.2637  0.6864
   74SLPC   H2R 6548   5.426   0.260  10.225  4.1951 -0.5296  0.3424
   74SLPC   H2S 6549   5.512   0.097  10.216  0.8359  1.9759 -1.1002
   74SLPC    C3 6550   5.137   0.005  10.520  0.5059 -0.9891 -0.9371
   74SLPC    HX 6551   5.084  -0.014  10.616  1.2634  3.5653  0.6218
   74SLPC    HY 6552   5.227  -0.060  10.520  0.6765 -0.9533  2.6552
   74SLPC   O31 6553   5.045  -0.025  10.415  0.0916  0.5155 -0.1889
   74SLPC   C31 6554   5.073  -0.110  10.318  0.0417  0.5184  0.4606
   74SLPC   O32 6555   5.171  -0.180  10.310 -0.3507  0.3462 -0.0922
   74SLPC   C32 6556   4.963  -0.092  10.205 -0.0010  0.4972 -0.2002
   74SLPC   H2X 6557   4.932   0.014  10.201  0.8878  0.7732  0.0128
   74SLPC   H2Y 6558   4.865  -0.138  10.233  0.1674  0.7861  0.9371
   74SLPC   C23 6559   5.306   0.096  10.136 -1.0448 -0.1594 -0.1812
   74SLPC   H3R 6560   5.206   0.134  10.166 -1.2048 -1.2559  0.7474
   74SLPC   H3S 6561   5.297  -0.014  10.151 -1.6275 -0.3081 -1.4872
   74SLPC   C24 6562   5.324   0.139   9.989 -0.2605 -0.1555  0.1909
   74SLPC   H4R 6563   5.429   0.114   9.962 -0.3349  0.9625 -1.2441
   74SLPC   H4S 6564   5.318   0.250   9.992 -0.6638 -0.0925 -1.7457
   74SLPC   C25 6565   5.241   0.080   9.882 -0.2359 -0.0365 -0.0059
   74SLPC   H5R 6566   5.135   0.113   9.891  0.1704  1.0708  0.9886
   74SLPC   H5S 6567   5.244  -0.031   9.885 -0.0659 -0.1032 -1.9007
   74SLPC   C26 6568   5.294   0.121   9.746 -0.4979 -0.2776 -0.0155
   74SLPC   H6R 6569   5.399   0.088   9.728 -0.8251 -1.0426 -0.5711
   74SLPC   H6S 6570   5.283   0.230   9.727 -0.3036 -0.3149 -0.3398
   74SLPC   C27 6571   5.216   0.061   9.629 -0.5724 -0.4266  0.5395
   74SLPC   H7R 6572   5.106   0.055   9.649 -0.7468  0.7421 -0.0004
   74SLPC   H7S 6573   5.245  -0.042   9.600 -1.7944 -0.0833 -2.1691
   74SLPC   C28 6574   5.233   0.140   9.500 -0.1855 -0.7676 -0.8974
   74SLPC   H8R 6575   5.189   0.240   9.520 -0.2885 -1.1028  0.6498
   74SLPC   H8S 6576   5.173   0.087   9.423 -0.6242  1.4989 -2.2012
   74SLPC   C29 6577   5.366   0.159   9.442  0.0060  0.8288  0.5071
   74SLPC   H9R 6578   5.447   0.187   9.511 -1.4812  1.5887  2.0209
   74SLPC  C210 6579   5.384   0.166   9.311  0.5191  0.8676  0.2132
   74SLPC  H10R 6580   5.484   0.195   9.276  0.2517 -0.6352 -1.9831
   74SLPC  C211 6581   5.286   0.136   9.203 -0.3335  1.0244  0.0085
   74SLPC  H11R 6582   5.182   0.117   9.236 -0.9256  0.9434 -1.7809
   74SLPC  H11S 6583   5.327   0.038   9.172 -2.4275 -0.9140  2.8311
   74SLPC  C212 6584   5.279   0.239   9.091 -0.2404  0.8145  0.1472
   74SLPC  H12R 6585   5.305   0.339   9.128 -0.1898  0.9457 -0.2374
   74SLPC  C213 6586   5.272   0.208   8.963 -0.2708  0.7740  0.1076
   74SLPC  H13R 6587   5.262   0.287   8.887 -1.4226 -0.0170 -0.5908
   74SLPC  C214 6588   5.248   0.063   8.911 -0.6647  0.1223 -0.9150
   74SLPC  H14R 6589   5.171   0.008   8.968 -0.3786  0.0173 -0.6234
   74SLPC  H14S 6590   5.347   0.012   8.915 -1.0240 -0.4649  1.5115
   74SLPC  C215 6591   5.199   0.064   8.773  0.8743  0.6689  0.5332
   74SLPC  H15R 6592   5.248   0.142   8.710  1.7808 -0.1488  0.2059
   74SLPC  H15S 6593   5.093   0.096   8.771  1.6176  3.4453 -1.6284
   74SLPC  C216 6594   5.199  -0.074   8.713  0.1280 -0.0737 -0.6908
   74SLPC  H16R 6595   5.141  -0.077   8.618  1.6497 -0.7001 -1.6402
   74SLPC  H16S 6596   5.151  -0.145   8.783 -2.2607  1.0134 -1.1193
   74SLPC  C217 6597   5.340  -0.121   8.667  0.0854 -0.4494 -0.7572
   74SLPC  H17R 6598   5.410  -0.110   8.752  0.7632 -1.4349 -1.1608
   74SLPC  H17S 6599   5.366  -0.049   8.587 -1.8506  1.5847  0.3471
   74SLPC  C218 6600   5.356  -0.271   8.609  0.3278 -0.5507  0.1942
   74SLPC  H18R 6601   5.326  -0.346   8.684  0.7268  0.9403  1.9050
   74SLPC  H18S 6602   5.466  -0.286   8.594  0.3244  0.9310 -1.7347
   74SLPC  H18T 6603   5.291  -0.269   8.519  0.4556  2.5079  0.0562
   74SLPC   C33 6604   5.002  -0.150  10.066 -0.0010  0.1167 -0.0161
   74SLPC   H3X 6605   5.006  -0.261  10.076 -0.5993  0.0028 -0.9645
   74SLPC   H3Y 6606   5.103  -0.113  10.041  0.1959 -1.3741 -1.5760
   74SLPC   C34 6607   4.907  -0.135   9.945 -0.1561  0.4605 -0.5294
   74SLPC   H4X 6608   4.892  -0.025   9.936  0.4812  0.6007  0.0475
   74SLPC   H4Y 6609   4.805  -0.178   9.954  0.6142 -1.6283 -1.2288
   74SLPC   C35 6610   4.965  -0.190   9.816 -0.3764  0.1068  0.1093
   74SLPC   H5X 6611   4.985  -0.299   9.821  1.0054  0.3413  0.0556
   74SLPC   H5Y 6612   5.071  -0.157   9.806 -0.9088  3.1360  2.8969
   74SLPC   C36 6613   4.890  -0.155   9.684 -0.2160 -0.0391 -0.3940
   74SLPC   H6X 6614   4.894  -0.044   9.681 -1.2932 -0.0051 -1.2314
   74SLPC   H6Y 6615   4.790  -0.202   9.678  0.1033 -1.4210  2.9350
   74SLPC   C37 6616   4.959  -0.194   9.556 -0.0863  0.1907  0.4331
   74SLPC   H7X 6617   4.936  -0.302   9.540  2.6503 -0.4815  0.5344
   74SLPC   H7Y 6618   5.070  -0.196   9.551 -0.0763 -2.1863  0.2287
   74SLPC   C38 6619   4.917  -0.123   9.420 -0.1078  0.2412  0.3624
   74SLPC   H8X 6620   4.951  -0.017   9.415  0.8513  0.0064  1.3640
   74SLPC   H8Y 6621   4.807  -0.113   9.417 -0.2932 -1.3737 -2.8643
   74SLPC   C39 6622   4.974  -0.202   9.295  0.3929  0.1204 -0.1600
   74SLPC   H9X 6623   4.927  -0.302   9.307  1.7226 -0.6386 -0.9736
   74SLPC   H9Y 6624   5.084  -0.219   9.302  0.1895 -1.6580 -0.7612
   74SLPC  C310 6625   4.940  -0.140   9.164 -0.0228  0.6524 -0.5275
   74SLPC  H10X 6626   4.977  -0.209   9.086 -0.5552 -0.7561  0.4315
   74SLPC  H10Y 6627   4.994  -0.045   9.144  0.1088  0.7150  0.0987
   74SLPC  C311 6628   4.788  -0.121   9.133 -1.2711  0.1165 -0.1403
   74SLPC  H11X 6629   4.756  -0.045   9.207  2.1430 -1.0803  2.8332
   74SLPC  H11Y 6630   4.726  -0.213   9.134 -0.0076 -0.7825 -0.7684
   74SLPC  C312 6631   4.786  -0.052   8.992 -0.1743  0.1583  0.3285
   74SLPC  H12X 6632   4.837   0.046   9.001 -2.8146  1.8002 -1.1717
   74SLPC  H12Y 6633   4.677  -0.036   8.973 -0.3457  0.5220  1.5362
   74SLPC  C313 6634   4.828  -0.138   8.873 -0.9890 -0.2240 -0.6805
   74SLPC  H13X 6635   4.938  -0.148   8.880 -1.1273 -2.3811 -0.9070
   74SLPC  H13Y 6636   4.798  -0.089   8.777  0.7282  0.9531 -0.6528
   74SLPC  C314 6637   4.773  -0.279   8.866 -0.3537  0.0232 -0.3164
   74SLPC  H14X 6638   4.829  -0.348   8.932  1.8788  2.1554  0.1967
   74SLPC  H14Y 6639   4.796  -0.306   8.761  1.8630  0.5762 -0.0453
   74SLPC  C315 6640   4.622  -0.295   8.879 -0.3187 -0.4672 -0.0289
   74SLPC  H15X 6641   4.586  -0.278   8.983  2.2459  0.2374  0.8286
   74SLPC  H15Y 6642   4.612  -0.403   8.856  2.7519 -0.5331 -1.5917
   74SLPC  C316 6643   4.538  -0.206   8.784 -0.2617  0.5822 -0.9005
   74SLPC  H16X 6644   4.563  -0.215   8.677  3.8634 -0.7659 -0.0123
   74SLPC  H16Y 6645   4.560  -0.100   8.808  0.1470  0.5162 -0.9727
   74SLPC  C317 6646   4.385  -0.233   8.808 -0.2540 -0.9716 -0.1334
   74SLPC  H17X 6647   4.360  -0.236   8.916  0.0139 -1.3109 -0.0778
   74SLPC  H17Y 6648   4.349  -0.326   8.759 -1.1085 -0.8687  0.2955
   74SLPC  C318 6649   4.297  -0.115   8.747 -0.4080 -0.2330  0.2001
   74SLPC  H18X 6650   4.344  -0.016   8.769  0.9258 -0.9277  0.6397
   74SLPC  H18Y 6651   4.192  -0.128   8.781 -0.5553 -0.5587 -0.3785
   74SLPC  H18Z 6652   4.300  -0.116   8.636  0.8737  1.7498  0.1576
   75SLPC     N 6653   4.396   1.317   6.415 -0.3846 -0.6944  1.1536
   75SLPC   C13 6654   4.420   1.418   6.304 -0.3443 -0.0482  0.6820
   75SLPC  H13A 6655   4.326   1.442   6.257  0.6252  0.4190 -1.1226
   75SLPC  H13B 6656   4.476   1.503   6.339 -0.1988  1.1847 -2.2939
   75SLPC  H13C 6657   4.478   1.369   6.227 -0.4763  1.1821 -0.2233
   75SLPC   C14 6658   4.309   1.203   6.359 -0.2057 -0.2807 -0.2815
   75SLPC  H14A 6659   4.361   1.164   6.274 -1.1323 -1.3519 -0.3765
   75SLPC  H14B 6660   4.282   1.128   6.432 -2.0643  0.3595 -0.2629
   75SLPC  H14C 6661   4.212   1.239   6.328 -0.2296 -0.6374 -0.6255
   75SLPC   C15 6662   4.326   1.370   6.532 -0.9181  0.2499 -0.4221
   75SLPC  H15A 6663   4.382   1.450   6.578  0.8985 -1.6841  0.8918
   75SLPC  H15B 6664   4.225   1.403   6.511 -0.8386  0.2717 -0.7863
   75SLPC  H15C 6665   4.309   1.292   6.604 -0.9487  0.5042 -0.1504
   75SLPC   C12 6666   4.539   1.264   6.458  0.4390 -0.1704 -0.1722
   75SLPC  H12A 6667   4.587   1.215   6.375  1.9091  0.0039  0.5356
   75SLPC  H12B 6668   4.520   1.182   6.526 -2.7503 -0.4330 -1.2195
   75SLPC   C11 6669   4.641   1.359   6.510  1.2367  0.6119 -0.4690
   75SLPC  H11A 6670   4.666   1.419   6.420  1.5520  0.6697 -0.3461
   75SLPC  H11B 6671   4.733   1.306   6.543  0.7960 -0.9091 -1.5858
   75SLPC     P 6672   4.594   1.418   6.769  0.2293  0.2299 -0.2633
   75SLPC   O13 6673   4.498   1.510   6.827  0.1698 -0.6146  0.0396
   75SLPC   O14 6674   4.567   1.276   6.808  0.1029 -0.1725 -0.0371
   75SLPC   O12 6675   4.594   1.446   6.613  0.4410 -0.2902  0.7525
   75SLPC   O11 6676   4.737   1.451   6.824  0.6703  0.2517 -0.3793
   75SLPC    C1 6677   4.796   1.583   6.812  0.9589 -0.0053  0.2316
   75SLPC    HA 6678   4.902   1.579   6.780  1.2550  1.9063  0.8533
   75SLPC    HB 6679   4.760   1.636   6.721  2.7979  0.6035 -0.1735
   75SLPC    C2 6680   4.792   1.681   6.941  0.8794 -0.1343  0.2946
   75SLPC    HS 6681   4.888   1.735   6.922  2.2263 -2.1695  0.9389
   75SLPC   O21 6682   4.793   1.609   7.065 -0.3249 -0.0104  0.3487
   75SLPC   C21 6683   4.887   1.513   7.072  0.8302 -0.2033 -0.1292
   75SLPC   O22 6684   4.984   1.502   7.006 -0.1213 -0.0115  0.3367
   75SLPC   C22 6685   4.859   1.428   7.203 -0.3587 -0.2493  0.1743
   75SLPC   H2R 6686   4.812   1.501   7.272  0.8492  0.6630  0.0616
   75SLPC   H2S 6687   4.788   1.348   7.174 -1.3064  0.3600  0.7660
   75SLPC    C3 6688   4.666   1.773   6.935 -0.0348 -0.0081  0.0179
   75SLPC    HX 6689   4.588   1.695   6.937  1.3060 -1.4402 -1.0435
   75SLPC    HY 6690   4.657   1.844   6.850 -0.9766  0.8323  0.7891
   75SLPC   O31 6691   4.660   1.850   7.056  0.5589 -0.6754 -0.0644
   75SLPC   C31 6692   4.748   1.957   7.066  0.4758 -0.1603 -0.1170
   75SLPC   O32 6693   4.822   1.993   6.979 -0.0919  0.0078 -0.0619
   75SLPC   C32 6694   4.718   2.023   7.191 -0.4904  0.0792 -0.1093
   75SLPC   H2X 6695   4.610   2.041   7.206 -0.3041  0.5206  0.7783
   75SLPC   H2Y 6696   4.755   2.128   7.188  0.9180 -0.3687  0.7642
   75SLPC   C23 6697   4.993   1.378   7.270  0.0814  0.4752  0.4737
   75SLPC   H3R 6698   5.066   1.455   7.303  1.0405 -1.1599  2.3546
   75SLPC   H3S 6699   5.030   1.318   7.184 -1.3460  1.8490 -1.1974
   75SLPC   C24 6700   4.966   1.278   7.387  0.2807 -0.3006  0.2762
   75SLPC   H4R 6701   5.061   1.266   7.442 -0.2161  0.7896  1.4027
   75SLPC   H4S 6702   4.911   1.188   7.351 -0.9985  0.6597 -0.2494
   75SLPC   C25 6703   4.887   1.327   7.503  0.1834  0.5850 -0.2498
   75SLPC   H5R 6704   4.796   1.365   7.451 -0.1628 -2.0134 -1.6773
   75SLPC   H5S 6705   4.943   1.409   7.552  0.4299 -0.5117  1.3904
   75SLPC   C26 6706   4.849   1.228   7.613  0.9373 -0.0351 -0.1683
   75SLPC   H6R 6707   4.810   1.139   7.560  1.0664 -0.5170  0.5213
   75SLPC   H6S 6708   4.764   1.270   7.670  1.3397 -1.6761  1.7670
   75SLPC   C27 6709   4.960   1.196   7.713  0.2430 -0.1483 -0.8980
   75SLPC   H7R 6710   5.066   1.188   7.682  0.9583 -0.1882  1.3418
   75SLPC   H7S 6711   4.930   1.110   7.777  2.2056  1.1028  1.8902
   75SLPC   C28 6712   4.982   1.323   7.811  0.5434  0.4864 -0.5517
   75SLPC   H8R 6713   4.886   1.377   7.825 -0.4544 -1.6194  1.2448
   75SLPC   H8S 6714   5.042   1.402   7.761  1.1928  0.6968  0.5451
   75SLPC   C29 6715   5.056   1.294   7.940  0.8616  0.6530 -0.2172
   75SLPC   H9R 6716   5.164   1.272   7.945  0.5112 -0.9978  1.0077
   75SLPC  C210 6717   4.997   1.287   8.067 -0.2846  0.7668  0.4912
   75SLPC  H10R 6718   5.061   1.246   8.146 -0.6962 -0.3279  0.2778
   75SLPC  C211 6719   4.854   1.302   8.093  0.7194 -0.2195 -0.2726
   75SLPC  H11R 6720   4.788   1.298   8.004  1.6754  1.0148 -1.0706
   75SLPC  H11S 6721   4.832   1.400   8.139 -2.2982 -1.2691  0.7568
   75SLPC  C212 6722   4.817   1.193   8.188  0.3094 -0.3145  0.0208
   75SLPC  H12R 6723   4.765   1.107   8.142 -0.7659  0.2119  0.2385
   75SLPC  C213 6724   4.826   1.203   8.327  0.2616  0.5257  0.1840
   75SLPC  H13R 6725   4.799   1.120   8.394  0.8725  0.3593  0.2284
   75SLPC  C214 6726   4.878   1.321   8.406 -0.0041  0.1932 -0.0342
   75SLPC  H14R 6727   4.789   1.379   8.439  1.4734  2.5289  0.0520
   75SLPC  H14S 6728   4.957   1.375   8.350 -0.7802  2.1571  0.6831
   75SLPC  C215 6729   4.943   1.250   8.523 -0.0046 -0.0776 -0.1653
   75SLPC  H15R 6730   5.002   1.165   8.482 -0.3188 -0.2223 -0.3246
   75SLPC  H15S 6731   4.859   1.200   8.576 -1.6454  2.4059 -0.2820
   75SLPC  C216 6732   4.993   1.324   8.645  0.0305 -0.1170  0.6809
   75SLPC  H16R 6733   5.004   1.252   8.729 -0.8003 -1.4138 -0.2949
   75SLPC  H16S 6734   4.914   1.391   8.684  0.6178  1.6905 -1.0462
   75SLPC  C217 6735   5.121   1.407   8.621  0.0953 -0.1985 -0.5385
   75SLPC  H17R 6736   5.149   1.460   8.715 -1.4455  0.7700 -0.5937
   75SLPC  H17S 6737   5.105   1.480   8.540 -0.1484 -0.8381 -1.0713
   75SLPC  C218 6738   5.244   1.329   8.581 -0.1546  0.2351 -0.3996
   75SLPC  H18R 6739   5.223   1.271   8.489 -0.3433 -0.2619 -0.0466
   75SLPC  H18S 6740   5.276   1.256   8.659  0.3590 -2.4135 -2.9189
   75SLPC  H18T 6741   5.331   1.394   8.555 -1.1758  1.4345 -0.8935
   75SLPC   C33 6742   4.778   1.947   7.312 -0.0945 -0.4115  0.0695
   75SLPC   H3X 6743   4.745   1.841   7.316 -1.4739 -0.0582 -0.9872
   75SLPC   H3Y 6744   4.888   1.957   7.302 -0.4024  2.2942 -1.4347
   75SLPC   C34 6745   4.757   2.023   7.440  0.2423 -0.1115 -0.2652
   75SLPC   H4X 6746   4.810   1.974   7.524  0.9375  1.2618  0.1286
   75SLPC   H4Y 6747   4.646   2.015   7.452  0.5115 -1.9600  1.4568
   75SLPC   C35 6748   4.819   2.164   7.448  0.0985 -0.1061 -0.9330
   75SLPC   H5X 6749   4.754   2.241   7.402  1.0517  5.0123  4.9610
   75SLPC   H5Y 6750   4.908   2.161   7.382  2.1240 -1.7842  1.6584
   75SLPC   C36 6751   4.849   2.214   7.590 -0.0769  0.1882  0.1723
   75SLPC   H6X 6752   4.773   2.185   7.665  1.1648  0.4519  1.5861
   75SLPC   H6Y 6753   4.855   2.325   7.586  0.2310  0.1334 -1.7881
   75SLPC   C37 6754   4.983   2.155   7.649 -0.1321 -0.7001  0.1979
   75SLPC   H7X 6755   5.058   2.112   7.579  2.4283  2.2772  0.8889
   75SLPC   H7Y 6756   4.945   2.065   7.702 -0.2670 -0.3871  0.6361
   75SLPC   C38 6757   5.046   2.255   7.752 -0.3277  0.4557  0.0800
   75SLPC   H8X 6758   4.981   2.253   7.842 -1.3178  0.1340 -0.6240
   75SLPC   H8Y 6759   5.047   2.357   7.707  1.3233  0.7830  0.7811
   75SLPC   C39 6760   5.187   2.215   7.786 -0.2024  0.4173  0.1563
   75SLPC   H9X 6761   5.241   2.295   7.841 -0.1540  0.2992  0.2801
   75SLPC   H9Y 6762   5.243   2.199   7.691  1.2059 -0.2665  1.0616
   75SLPC  C310 6763   5.193   2.073   7.854 -0.4930 -0.5529  0.3262
   75SLPC  H10X 6764   5.179   1.991   7.780 -0.0886 -0.9499  0.6886
   75SLPC  H10Y 6765   5.107   2.073   7.924 -2.0280  0.8002 -1.4158
   75SLPC  C311 6766   5.314   2.045   7.941 -0.1848  0.1460  0.2659
   75SLPC  H11X 6767   5.317   2.125   8.018 -0.3433  1.0640 -0.6599
   75SLPC  H11Y 6768   5.415   2.047   7.895 -1.0244  0.5072 -1.6510
   75SLPC  C312 6769   5.284   1.918   8.022  0.1549  0.0617 -0.0917
   75SLPC  H12X 6770   5.299   1.826   7.962 -2.9031 -0.9230  0.4740
   75SLPC  H12Y 6771   5.175   1.912   8.042 -0.0118  0.0913 -0.9430
   75SLPC  C313 6772   5.353   1.914   8.156 -0.1149 -0.0229 -0.2903
   75SLPC  H13X 6773   5.315   2.000   8.216 -0.6827 -1.0562  0.8663
   75SLPC  H13Y 6774   5.461   1.929   8.130  0.0133  1.2313  0.8195
   75SLPC  C314 6775   5.332   1.785   8.232  0.9622 -0.4654 -0.3461
   75SLPC  H14X 6776   5.227   1.751   8.220 -0.3420  2.4601  1.3550
   75SLPC  H14Y 6777   5.333   1.816   8.339  0.9375 -0.1581 -0.4326
   75SLPC  C315 6778   5.432   1.680   8.198 -0.6843 -0.2022 -0.0878
   75SLPC  H15X 6779   5.535   1.710   8.229 -0.1425  1.9319 -3.4872
   75SLPC  H15Y 6780   5.432   1.656   8.090 -0.8241  1.7842 -0.5736
   75SLPC  C316 6781   5.408   1.546   8.273 -0.0964 -0.7645  0.1985
   75SLPC  H16X 6782   5.300   1.527   8.256  0.4010 -0.7854 -3.9084
   75SLPC  H16Y 6783   5.427   1.554   8.382  0.9255  2.1596 -0.1013
   75SLPC  C317 6784   5.480   1.425   8.205  0.1425 -0.7750  0.2366
   75SLPC  H17X 6785   5.588   1.436   8.229 -0.0076 -0.9587  1.0158
   75SLPC  H17Y 6786   5.474   1.439   8.095  1.1605 -1.4966  0.0739
   75SLPC  C318 6787   5.424   1.297   8.254 -0.4058  0.8099 -0.5243
   75SLPC  H18X 6788   5.474   1.214   8.199  0.1807  2.4185 -2.5357
   75SLPC  H18Y 6789   5.316   1.283   8.233 -0.4072 -2.2629  0.9301
   75SLPC  H18Z 6790   5.437   1.302   8.365  0.0448  0.1172 -0.5358
   76SLPC     N 6791   3.777   1.573   6.270 -0.1963  0.5714  0.3246
   76SLPC   C13 6792   3.675   1.545   6.382  0.0654  0.0740  0.8068
   76SLPC  H13A 6793   3.709   1.582   6.478 -0.0039 -0.1958  0.9366
   76SLPC  H13B 6794   3.580   1.595   6.366  1.0734  1.3144 -1.8084
   76SLPC  H13C 6795   3.653   1.440   6.390  0.1365  0.0795  1.0870
   76SLPC   C14 6796   3.796   1.728   6.272 -0.2958 -0.2957  0.4377
   76SLPC  H14A 6797   3.888   1.758   6.224 -0.0834 -1.8195 -0.1424
   76SLPC  H14B 6798   3.708   1.775   6.232  0.2664  2.4337  2.1336
   76SLPC  H14C 6799   3.814   1.761   6.374 -0.2277 -1.1294  0.7037
   76SLPC   C15 6800   3.725   1.527   6.142 -0.1597 -0.3322  0.2270
   76SLPC  H15A 6801   3.800   1.548   6.067  0.0789 -0.3273  0.4613
   76SLPC  H15B 6802   3.712   1.421   6.134 -0.3081 -0.3493  0.6630
   76SLPC  H15C 6803   3.632   1.576   6.116  0.2221 -0.5441 -1.6502
   76SLPC   C12 6804   3.916   1.504   6.290  0.4325  0.1521 -0.6085
   76SLPC  H12A 6805   3.971   1.507   6.197  1.2679  1.9712 -0.0944
   76SLPC  H12B 6806   3.905   1.397   6.300  2.6081 -0.0299  0.2918
   76SLPC   C11 6807   4.007   1.555   6.407 -0.0130 -0.1086 -0.4491
   76SLPC  H11A 6808   4.086   1.478   6.395 -1.0450 -1.0174 -1.6465
   76SLPC  H11B 6809   3.964   1.545   6.509  1.6130  1.1960  0.4102
   76SLPC     P 6810   4.155   1.770   6.454 -0.1040 -0.3099  0.4379
   76SLPC   O13 6811   4.291   1.741   6.405 -0.0239 -0.1857  0.3638
   76SLPC   O14 6812   4.108   1.910   6.447  0.9065  0.0094 -0.5995
   76SLPC   O12 6813   4.055   1.682   6.373  0.2244 -0.0600  0.1529
   76SLPC   O11 6814   4.132   1.726   6.600 -0.3025  0.2636 -0.2812
   76SLPC    C1 6815   4.021   1.758   6.679  0.4380 -0.0829  0.1603
   76SLPC    HA 6816   3.931   1.773   6.616  0.0678 -1.9539  0.1746
   76SLPC    HB 6817   3.990   1.681   6.753  1.2506  0.6300  1.2614
   76SLPC    C2 6818   4.039   1.892   6.749 -0.0501 -0.4720  0.1764
   76SLPC    HS 6819   4.097   1.964   6.688 -1.2107  0.9010  0.6475
   76SLPC   O21 6820   4.106   1.870   6.865  0.2194  0.4766 -0.4705
   76SLPC   C21 6821   4.192   1.962   6.906 -0.1943 -0.6850 -0.0744
   76SLPC   O22 6822   4.217   2.069   6.850 -0.5397 -0.7296  0.0280
   76SLPC   C22 6823   4.260   1.923   7.036  0.4646  0.1215 -0.5504
   76SLPC   H2R 6824   4.342   1.850   7.019 -2.1534 -2.8143 -1.4373
   76SLPC   H2S 6825   4.301   2.017   7.080 -0.8289  0.9893 -1.1287
   76SLPC    C3 6826   3.899   1.949   6.777 -1.1183  0.0768  0.0426
   76SLPC    HX 6827   3.843   1.880   6.843 -1.5247  0.5106  0.1580
   76SLPC    HY 6828   3.840   1.958   6.684 -0.6625 -0.3593 -0.2925
   76SLPC   O31 6829   3.906   2.077   6.842  0.5491 -0.0301  0.6904
   76SLPC   C31 6830   3.935   2.180   6.762  0.6696 -0.0272  0.0762
   76SLPC   O32 6831   3.973   2.168   6.645  0.1134  0.2759  0.0045
   76SLPC   C32 6832   3.902   2.314   6.836  0.4324  0.4626 -0.0049
   76SLPC   H2X 6833   3.801   2.310   6.880  1.0589  0.1389  1.4638
   76SLPC   H2Y 6834   3.919   2.388   6.754  2.8831 -0.8123 -0.7635
   76SLPC   C23 6835   4.168   1.843   7.138  0.6234 -0.3615 -0.1878
   76SLPC   H3R 6836   4.134   1.752   7.082  0.0823 -0.2657 -0.0213
   76SLPC   H3S 6837   4.068   1.880   7.169  0.1859 -0.5434 -1.3089
   76SLPC   C24 6838   4.257   1.809   7.260  0.3195 -1.2797  0.1189
   76SLPC   H4R 6839   4.350   1.755   7.231  0.1873 -0.9847 -0.8989
   76SLPC   H4S 6840   4.196   1.747   7.329  0.1535 -0.2728  0.8926
   76SLPC   C25 6841   4.275   1.933   7.344  0.4510  0.6457  0.0628
   76SLPC   H5R 6842   4.175   1.976   7.366 -0.4989 -1.5975  0.3631
   76SLPC   H5S 6843   4.356   2.002   7.310  0.8562  0.3756  0.4605
   76SLPC   C26 6844   4.327   1.892   7.484 -0.2784  0.2300 -0.2410
   76SLPC   H6R 6845   4.430   1.853   7.473 -0.2791  0.2894 -0.4601
   76SLPC   H6S 6846   4.265   1.808   7.523  0.2721 -0.7720 -1.4584
   76SLPC   C27 6847   4.340   2.012   7.585  0.4327 -0.5514  0.6356
   76SLPC   H7R 6848   4.235   2.041   7.605 -0.1430  1.9008 -4.3104
   76SLPC   H7S 6849   4.384   2.103   7.538 -0.9041 -0.7778 -1.1853
   76SLPC   C28 6850   4.422   1.975   7.710  0.4411 -1.0158 -0.0118
   76SLPC   H8R 6851   4.515   1.925   7.675  0.8518 -0.3400  0.1160
   76SLPC   H8S 6852   4.450   2.072   7.755  1.0681 -0.4652 -1.5069
   76SLPC   C29 6853   4.356   1.890   7.817  0.2348  0.9726 -0.0601
   76SLPC   H9R 6854   4.296   1.805   7.781  0.7328  1.0034 -1.0060
   76SLPC  C210 6855   4.361   1.910   7.951 -0.0840  0.1273  0.3356
   76SLPC  H10R 6856   4.326   1.829   8.017  3.2689 -3.0246 -1.4272
   76SLPC  C211 6857   4.437   2.020   8.009 -0.6238 -0.8493 -1.1553
   76SLPC  H11R 6858   4.379   2.035   8.103 -2.0991 -3.2787 -1.6052
   76SLPC  H11S 6859   4.427   2.115   7.951  0.3104 -0.8066 -1.2661
   76SLPC  C212 6860   4.585   2.008   8.035  0.0653  0.0557  0.7600
   76SLPC  H12R 6861   4.647   1.945   7.968 -0.5651  1.2068 -0.9729
   76SLPC  C213 6862   4.650   2.064   8.140 -0.7255 -0.1517  0.1002
   76SLPC  H13R 6863   4.758   2.042   8.142 -0.6307  0.1426 -1.1833
   76SLPC  C214 6864   4.607   2.146   8.261 -0.4304 -0.1224 -0.8638
   76SLPC  H14R 6865   4.638   2.100   8.357  1.5932 -0.4190 -1.6194
   76SLPC  H14S 6866   4.498   2.141   8.285 -0.0181  0.6281  1.4487
   76SLPC  C215 6867   4.646   2.301   8.267 -0.2177  0.6743  0.1332
   76SLPC  H15R 6868   4.618   2.358   8.176 -0.3784  1.1450  0.4692
   76SLPC  H15S 6869   4.756   2.299   8.272 -0.2674  0.1784  1.4150
   76SLPC  C216 6870   4.569   2.378   8.380 -0.5505 -0.6019 -0.4050
   76SLPC  H16R 6871   4.583   2.330   8.479 -1.2219  2.5240  1.3290
   76SLPC  H16S 6872   4.458   2.368   8.370 -0.5381  0.1417 -1.3765
   76SLPC  C217 6873   4.624   2.519   8.411 -0.0937 -0.2306  0.9774
   76SLPC  H17R 6874   4.589   2.583   8.328  1.6490 -2.0512 -1.3081
   76SLPC  H17S 6875   4.735   2.515   8.417 -0.1758  0.0324  3.4139
   76SLPC  C218 6876   4.566   2.579   8.533  0.6673 -0.3517 -0.3783
   76SLPC  H18R 6877   4.616   2.672   8.570 -0.0107 -0.3010  0.4474
   76SLPC  H18S 6878   4.581   2.510   8.619  1.8396 -0.0883 -0.3432
   76SLPC  H18T 6879   4.457   2.597   8.526  0.7229  0.6214  0.8656
   76SLPC   C33 6880   4.005   2.355   6.949  0.6712  0.3649 -0.3597
   76SLPC   H3X 6881   3.973   2.456   6.983  0.4521  0.4593 -0.8259
   76SLPC   H3Y 6882   4.108   2.368   6.910 -0.0366  0.2530 -2.3979
   76SLPC   C34 6883   4.008   2.259   7.066 -0.0013  0.4183 -0.4434
   76SLPC   H4X 6884   4.055   2.165   7.030 -0.0553  0.4531 -0.6051
   76SLPC   H4Y 6885   3.902   2.228   7.076 -0.0364  0.0243 -1.9284
   76SLPC   C35 6886   4.068   2.299   7.198  0.9587  0.2640 -0.2483
   76SLPC   H5X 6887   4.058   2.410   7.205 -2.3362  0.0538 -0.1888
   76SLPC   H5Y 6888   4.172   2.266   7.219  0.3226 -1.2924  0.5745
   76SLPC   C36 6889   3.976   2.220   7.304  0.0158  0.0101 -0.4673
   76SLPC   H6X 6890   3.971   2.117   7.264  1.0644 -0.8916  1.5984
   76SLPC   H6Y 6891   3.877   2.271   7.294 -0.5028 -1.0290 -0.7493
   76SLPC   C37 6892   4.021   2.218   7.450 -0.0139 -0.2649 -0.1655
   76SLPC   H7X 6893   4.011   2.318   7.499 -1.0895 -1.3484  1.9503
   76SLPC   H7Y 6894   4.120   2.169   7.446 -0.7718 -1.7898 -0.8544
   76SLPC   C38 6895   3.923   2.132   7.530  0.6279  0.1114 -0.1215
   76SLPC   H8X 6896   3.919   2.033   7.480 -0.0079 -0.0545  0.2549
   76SLPC   H8Y 6897   3.823   2.179   7.522  0.2207 -0.4040  1.5686
   76SLPC   C39 6898   3.950   2.119   7.678  0.3782  0.2213  0.7460
   76SLPC   H9X 6899   4.058   2.097   7.686  0.4149  0.8260  2.4004
   76SLPC   H9Y 6900   3.890   2.037   7.724 -4.1927  1.1039 -2.8541
   76SLPC  C310 6901   3.919   2.244   7.761 -0.0154  0.0939 -0.4002
   76SLPC  H10X 6902   3.814   2.278   7.745 -1.0392 -2.7587 -0.4767
   76SLPC  H10Y 6903   4.000   2.317   7.741  0.2279 -0.6950 -2.6862
   76SLPC  C311 6904   3.913   2.200   7.907 -0.0727  0.5388 -0.3583
   76SLPC  H11X 6905   3.981   2.116   7.930 -1.0145 -0.2453 -0.3378
   76SLPC  H11Y 6906   3.808   2.166   7.920  0.7220 -1.4481  1.3494
   76SLPC  C312 6907   3.920   2.319   8.001 -0.0707 -0.1815 -0.5713
   76SLPC  H12X 6908   3.845   2.393   7.966 -0.1482 -0.7568 -1.6864
   76SLPC  H12Y 6909   4.018   2.366   7.978  0.0450 -0.1429 -0.0116
   76SLPC  C313 6910   3.917   2.280   8.151  0.0971  0.5168  0.3686
   76SLPC  H13X 6911   3.817   2.235   8.170 -0.6691  1.6103 -0.8603
   76SLPC  H13Y 6912   3.922   2.370   8.216 -0.4549  1.0931 -0.3663
   76SLPC  C314 6913   4.021   2.170   8.190 -0.2031 -0.3800 -0.5235
   76SLPC  H14X 6914   4.118   2.221   8.170 -0.0061 -1.0217 -1.2613
   76SLPC  H14Y 6915   4.024   2.082   8.122 -0.6372  1.4281 -3.0442
   76SLPC  C315 6916   4.016   2.116   8.334 -0.0622  0.2370  0.2866
   76SLPC  H15X 6917   3.925   2.053   8.347  1.1337 -2.2751 -2.2879
   76SLPC  H15Y 6918   4.007   2.203   8.402 -1.9390 -0.6668  1.2678
   76SLPC  C316 6919   4.135   2.021   8.360  0.7614 -0.4315  0.1098
   76SLPC  H16X 6920   4.231   2.060   8.319  0.2264  0.3790 -0.4091
   76SLPC  H16Y 6921   4.121   1.925   8.305  4.0359 -0.2556 -1.2557
   76SLPC  C317 6922   4.168   2.001   8.504  0.4897 -0.4883 -0.0307
   76SLPC  H17X 6923   4.079   1.958   8.554 -0.6772  2.4268  0.6270
   76SLPC  H17Y 6924   4.177   2.097   8.560 -0.2526 -0.8349  0.6943
   76SLPC  C318 6925   4.283   1.906   8.527  0.4653 -0.3576  0.0991
   76SLPC  H18X 6926   4.270   1.816   8.464 -0.7313 -0.6489  0.7182
   76SLPC  H18Y 6927   4.273   1.870   8.632 -1.7181  1.2943  0.5450
   76SLPC  H18Z 6928   4.376   1.965   8.515 -0.1656  0.4096 -1.2522
   77SLPC     N 6929   3.456   2.362   6.196  0.8677  0.1802  0.1494
   77SLPC   C13 6930   3.392   2.372   6.062 -0.6075  0.8758  0.4455
   77SLPC  H13A 6931   3.294   2.328   6.066 -0.6691  0.4611 -2.9284
   77SLPC  H13B 6932   3.401   2.475   6.030  1.6187  0.8799  0.8845
   77SLPC  H13C 6933   3.434   2.307   5.987 -4.5513  0.1449 -1.3579
   77SLPC   C14 6934   3.365   2.415   6.307 -0.1985 -0.2178  0.2874
   77SLPC  H14A 6935   3.282   2.351   6.335 -2.1533  1.7440 -0.7240
   77SLPC  H14B 6936   3.429   2.423   6.394 -1.0424  0.3926  0.8747
   77SLPC  H14C 6937   3.335   2.518   6.302  1.2581  0.2829  1.2452
   77SLPC   C15 6938   3.569   2.450   6.203 -0.1536 -0.4611 -0.1679
   77SLPC  H15A 6939   3.635   2.426   6.285 -0.3612 -0.0458  0.1276
   77SLPC  H15B 6940   3.636   2.447   6.119 -0.7489  0.4153 -0.6913
   77SLPC  H15C 6941   3.558   2.556   6.221  3.8028  0.7304 -3.3511
   77SLPC   C12 6942   3.511   2.226   6.228 -0.7836 -0.3994  0.4532
   77SLPC  H12A 6943   3.540   2.224   6.332 -0.6567  2.0412  0.5216
   77SLPC  H12B 6944   3.602   2.204   6.175 -1.9318 -0.1349 -1.7720
   77SLPC   C11 6945   3.400   2.111   6.220  0.0993  0.3279 -0.4942
   77SLPC  H11A 6946   3.450   2.016   6.250 -1.3634 -0.1211  0.6212
   77SLPC  H11B 6947   3.362   2.094   6.117 -2.5647 -2.7491  0.8144
   77SLPC     P 6948   3.294   2.088   6.457 -0.3193  0.3883  0.0644
   77SLPC   O13 6949   3.157   2.086   6.504 -0.3034 -0.2733 -0.2664
   77SLPC   O14 6950   3.377   1.963   6.467  0.3236  0.4053  0.2135
   77SLPC   O12 6951   3.290   2.142   6.308  0.2662  0.3750  0.1554
   77SLPC   O11 6952   3.366   2.203   6.532 -0.2521  0.3348  0.0171
   77SLPC    C1 6953   3.463   2.185   6.637 -0.2841 -0.0884 -0.5549
   77SLPC    HA 6954   3.553   2.128   6.607 -0.2837 -0.8252  0.7414
   77SLPC    HB 6955   3.492   2.285   6.676  0.1406 -0.7464  0.9093
   77SLPC    C2 6956   3.408   2.103   6.761 -0.6587  0.5167 -0.3389
   77SLPC    HS 6957   3.396   1.999   6.722  1.3321  0.2260 -0.2807
   77SLPC   O21 6958   3.290   2.159   6.814 -0.5345  0.4560 -0.2846
   77SLPC   C21 6959   3.199   2.073   6.860  0.0921 -0.4290 -0.0486
   77SLPC   O22 6960   3.209   1.954   6.880  0.8672 -0.6281  0.0922
   77SLPC   C22 6961   3.061   2.147   6.861 -0.5185 -0.4362 -0.6701
   77SLPC   H2R 6962   3.083   2.256   6.850 -2.5807 -0.0856 -1.8085
   77SLPC   H2S 6963   2.997   2.112   6.777  2.2702 -3.1657 -1.8544
   77SLPC    C3 6964   3.508   2.106   6.877 -0.3635  0.2427 -0.1122
   77SLPC    HX 6965   3.508   2.212   6.908 -1.6719  0.0332  0.6790
   77SLPC    HY 6966   3.610   2.072   6.848 -0.3985  0.4151 -0.4334
   77SLPC   O31 6967   3.465   2.031   6.995 -0.1376  0.4581 -0.3020
   77SLPC   C31 6968   3.489   1.902   6.988 -0.2290 -0.3280 -0.5949
   77SLPC   O32 6969   3.538   1.844   6.895  0.4938 -0.2422 -0.0541
   77SLPC   C32 6970   3.455   1.835   7.125 -0.2728 -0.6149  0.0390
   77SLPC   H2X 6971   3.515   1.742   7.135  2.5799  1.3736  3.5275
   77SLPC   H2Y 6972   3.347   1.808   7.127 -0.9025  1.5516 -1.2670
   77SLPC   C23 6973   2.983   2.119   6.993 -0.9489  0.3468  0.4401
   77SLPC   H3R 6974   2.952   2.013   6.994 -0.4641  0.2062  0.9619
   77SLPC   H3S 6975   2.893   2.184   6.987 -0.1068  1.4073 -1.7628
   77SLPC   C24 6976   3.070   2.147   7.117 -0.7375  0.7905 -0.0366
   77SLPC   H4R 6977   3.107   2.251   7.119  0.9150  0.3350 -2.7054
   77SLPC   H4S 6978   3.152   2.073   7.117 -0.6834  0.8472 -0.5528
   77SLPC   C25 6979   2.998   2.131   7.247 -0.4202  0.4637  0.0256
   77SLPC   H5R 6980   2.949   2.033   7.266 -2.5093  1.6394  0.9309
   77SLPC   H5S 6981   2.916   2.204   7.259 -2.0922 -1.5643  1.6612
   77SLPC   C26 6982   3.082   2.154   7.373 -0.3806 -0.1393  1.1631
   77SLPC   H6R 6983   3.121   2.258   7.374 -2.9025  0.8942  0.1351
   77SLPC   H6S 6984   3.178   2.099   7.371  1.2238  2.4964  1.4916
   77SLPC   C27 6985   3.014   2.122   7.503  0.0113  0.5352 -0.1366
   77SLPC   H7R 6986   2.993   2.014   7.518 -0.3477  0.9946  3.8250
   77SLPC   H7S 6987   2.913   2.168   7.510 -0.0018  0.2940  1.9759
   77SLPC   C28 6988   3.098   2.168   7.627  0.3862  0.0631  0.4284
   77SLPC   H8R 6989   3.124   2.273   7.603 -0.2777  0.1164 -0.0744
   77SLPC   H8S 6990   3.197   2.120   7.644  1.5293  1.3234 -2.0651
   77SLPC   C29 6991   3.013   2.181   7.752 -0.2521  0.8668 -0.0937
   77SLPC   H9R 6992   2.918   2.234   7.736  0.4134  2.0204 -0.3166
   77SLPC  C210 6993   3.041   2.140   7.876 -0.9607 -0.0959  0.4631
   77SLPC  H10R 6994   2.971   2.186   7.948 -0.6546  1.7986 -0.3753
   77SLPC  C211 6995   3.161   2.055   7.917 -0.6443 -0.1372  0.3363
   77SLPC  H11R 6996   3.252   2.118   7.905  1.2117 -2.6106  0.7699
   77SLPC  H11S 6997   3.168   1.971   7.846 -0.4114  0.8230 -0.8024
   77SLPC  C212 6998   3.149   2.004   8.058  0.4589  0.8830  1.0133
   77SLPC  H12R 6999   3.098   1.907   8.067  1.5339  0.2529  0.4091
   77SLPC  C213 7000   3.189   2.067   8.166  0.7126 -0.1856 -0.4428
   77SLPC  H13R 7001   3.196   2.018   8.264  0.5379 -0.4173 -0.5464
   77SLPC  C214 7002   3.247   2.209   8.172 -0.5661  0.2751  0.2216
   77SLPC  H14R 7003   3.239   2.270   8.080 -1.1359 -0.7918 -0.4570
   77SLPC  H14S 7004   3.356   2.201   8.192 -0.4317  0.0089 -0.5997
   77SLPC  C215 7005   3.195   2.286   8.301 -0.3096  0.1852 -0.3412
   77SLPC  H15R 7006   3.084   2.283   8.300 -0.2835 -1.6942 -0.8497
   77SLPC  H15S 7007   3.218   2.395   8.294  1.1066  0.3016  3.5440
   77SLPC  C216 7008   3.233   2.224   8.435 -0.2736 -0.1759  0.4411
   77SLPC  H16R 7009   3.333   2.180   8.411  0.5402  0.3535  2.6487
   77SLPC  H16S 7010   3.172   2.133   8.455 -0.9126  0.3614  0.9576
   77SLPC  C217 7011   3.225   2.309   8.557 -0.2821 -1.0302 -0.5475
   77SLPC  H17R 7012   3.141   2.381   8.553 -0.7558 -1.3515  1.9000
   77SLPC  H17S 7013   3.314   2.375   8.554 -0.9161 -0.2021 -2.9211
   77SLPC  C218 7014   3.191   2.229   8.684  0.3260 -0.3572 -0.2775
   77SLPC  H18R 7015   3.273   2.165   8.723  0.7229  0.4032  0.1803
   77SLPC  H18S 7016   3.113   2.155   8.656 -1.2232  0.8114  0.7909
   77SLPC  H18T 7017   3.162   2.303   8.762  1.5287  0.3310 -0.4494
   77SLPC   C33 7018   3.490   1.916   7.248  0.8510  0.6665  0.2672
   77SLPC   H3X 7019   3.448   2.019   7.242  1.5487  1.0007  0.8649
   77SLPC   H3Y 7020   3.601   1.918   7.261  0.9975  0.4676 -0.8396
   77SLPC   C34 7021   3.435   1.862   7.379  0.1705  1.1983  0.9913
   77SLPC   H4X 7022   3.460   1.757   7.403 -1.5138 -0.1037 -2.3276
   77SLPC   H4Y 7023   3.324   1.855   7.370  0.1155  1.1686  1.6604
   77SLPC   C35 7024   3.496   1.943   7.498  0.4995 -0.3369 -0.4729
   77SLPC   H5X 7025   3.445   2.042   7.499  0.7823 -0.1800  1.3613
   77SLPC   H5Y 7026   3.604   1.956   7.476  1.5385 -1.4597  3.2266
   77SLPC   C36 7027   3.480   1.886   7.635 -0.1299 -0.1558 -0.0694
   77SLPC   H6X 7028   3.548   1.798   7.642  0.3733  0.3267  1.6185
   77SLPC   H6Y 7029   3.375   1.855   7.657 -0.1555 -0.0349 -0.0199
   77SLPC   C37 7030   3.525   1.984   7.750  0.1172 -0.1968 -0.4107
   77SLPC   H7X 7031   3.463   2.076   7.746  1.0090  0.5214  1.3656
   77SLPC   H7Y 7032   3.630   2.015   7.734  0.5646 -1.2168  0.4277
   77SLPC   C38 7033   3.507   1.923   7.896 -0.7801  0.4513 -0.2809
   77SLPC   H8X 7034   3.549   1.820   7.901  1.9520  1.4336 -1.0667
   77SLPC   H8Y 7035   3.398   1.913   7.913 -0.9298  1.1654 -0.7874
   77SLPC   C39 7036   3.583   2.004   8.000 -0.4984  0.2119  0.7896
   77SLPC   H9X 7037   3.542   2.106   7.987 -0.8595 -0.0602 -0.2904
   77SLPC   H9Y 7038   3.692   2.012   7.979 -0.6862  0.5626 -0.0708
   77SLPC  C310 7039   3.555   1.957   8.142  0.6782 -0.5008  1.0151
   77SLPC  H10X 7040   3.587   1.851   8.150  1.7422 -0.7259 -3.4503
   77SLPC  H10Y 7041   3.446   1.967   8.156  0.8454  0.6627  1.5821
   77SLPC  C311 7042   3.629   2.046   8.247  1.6593 -0.7148  0.1897
   77SLPC  H11X 7043   3.594   2.151   8.237  0.0823 -1.1007  1.3527
   77SLPC  H11Y 7044   3.739   2.043   8.235  1.8588  0.1047  1.5554
   77SLPC  C312 7045   3.588   2.000   8.392 -0.0069  0.2225 -0.2687
   77SLPC  H12X 7046   3.649   1.912   8.419  2.9256  2.4603  1.0108
   77SLPC  H12Y 7047   3.477   1.987   8.389 -0.0832  0.8182 -0.3299
   77SLPC  C313 7048   3.628   2.109   8.492 -0.5579 -0.1926  0.9029
   77SLPC  H13X 7049   3.577   2.204   8.468  0.2660  0.5404  1.9700
   77SLPC  H13Y 7050   3.738   2.122   8.495 -0.7956  2.2403  0.5253
   77SLPC  C314 7051   3.574   2.066   8.630  0.6214 -0.7262 -1.0619
   77SLPC  H14X 7052   3.613   1.966   8.659  1.0336 -0.0098  1.0563
   77SLPC  H14Y 7053   3.464   2.062   8.621  0.3587  0.2465  1.0854
   77SLPC  C315 7054   3.625   2.158   8.741  0.3213 -0.5613 -0.0502
   77SLPC  H15X 7055   3.554   2.243   8.726  0.1811 -0.0004  3.1292
   77SLPC  H15Y 7056   3.726   2.189   8.706  0.3631 -1.7539 -1.0516
   77SLPC  C316 7057   3.629   2.094   8.877 -0.5363  0.6448  0.0908
   77SLPC  H16X 7058   3.709   2.017   8.865 -1.5675 -0.1737 -1.8847
   77SLPC  H16Y 7059   3.538   2.032   8.890  0.4387 -0.8229  0.0983
   77SLPC  C317 7060   3.649   2.190   8.986  0.0080  0.1090 -0.2262
   77SLPC  H17X 7061   3.555   2.245   9.007  0.6430  1.4571 -0.7737
   77SLPC  H17Y 7062   3.719   2.269   8.951  0.6500 -1.1031 -1.8163
   77SLPC  C318 7063   3.712   2.126   9.114  0.0435  0.3740 -0.5803
   77SLPC  H18X 7064   3.637   2.066   9.171  0.6725  1.2113  1.2053
   77SLPC  H18Y 7065   3.741   2.203   9.188 -0.9935 -1.3832  1.7946
   77SLPC  H18Z 7066   3.803   2.070   9.083  0.2394  0.3573  0.0080
   78SLPC     N 7067   6.048   0.612   6.171 -0.3921  0.8436  0.2947
   78SLPC   C13 7068   6.127   0.526   6.088 -0.6014 -0.3700  0.8170
   78SLPC  H13A 7069   6.129   0.556   5.984  1.3193 -3.4462 -0.1820
   78SLPC  H13B 7070   6.229   0.525   6.123 -0.3434 -2.6037  0.1453
   78SLPC  H13C 7071   6.093   0.423   6.091 -0.4910 -0.3853  2.5838
   78SLPC   C14 7072   6.073   0.564   6.309  0.3135 -0.1622 -0.8827
   78SLPC  H14A 7073   6.032   0.465   6.321 -0.8608  0.1129 -2.3667
   78SLPC  H14B 7074   6.177   0.573   6.339 -0.4437  0.2407  1.9357
   78SLPC  H14C 7075   6.019   0.631   6.374  0.0993  0.7262 -1.9577
   78SLPC   C15 7076   5.898   0.594   6.154 -1.0576  0.4954  0.4727
   78SLPC  H15A 7077   5.867   0.601   6.051 -0.0392  0.4112  0.1536
   78SLPC  H15B 7078   5.862   0.503   6.200 -0.8189 -0.4405 -1.1293
   78SLPC  H15C 7079   5.864   0.676   6.216 -0.6873  0.4753  0.7082
   78SLPC   C12 7080   6.095   0.754   6.157 -0.5227 -0.1493 -1.0705
   78SLPC  H12A 7081   6.065   0.786   6.059  1.2739  2.6896 -0.7882
   78SLPC  H12B 7082   6.202   0.763   6.168 -0.6590 -0.8504  1.7852
   78SLPC   C11 7083   6.033   0.862   6.253  0.6131  0.3881  0.2098
   78SLPC  H11A 7084   6.087   0.958   6.244  0.8869  0.3382  1.1990
   78SLPC  H11B 7085   6.062   0.814   6.349  2.0508  0.6877 -0.0618
   78SLPC     P 7086   5.813   0.964   6.347 -0.0624  0.0108 -0.1876
   78SLPC   O13 7087   5.729   1.052   6.265  0.2612 -0.4085  0.2870
   78SLPC   O14 7088   5.745   0.872   6.443  0.0348 -0.1486 -0.5313
   78SLPC   O12 7089   5.894   0.874   6.239  0.7807  0.7280 -0.3118
   78SLPC   O11 7090   5.931   1.043   6.412  0.1349 -0.1300  0.4560
   78SLPC    C1 7091   5.986   1.013   6.548  0.2131  0.5268 -0.0683
   78SLPC    HA 7092   6.030   0.911   6.543  0.1247  0.5508 -2.9831
   78SLPC    HB 7093   6.075   1.077   6.567  0.0428  0.6614  0.2839
   78SLPC    C2 7094   5.894   1.054   6.660 -0.2001  0.3710 -0.4351
   78SLPC    HS 7095   5.799   0.998   6.646 -0.0674 -0.9081  2.8603
   78SLPC   O21 7096   5.866   1.198   6.648  0.0443  0.5866 -0.0037
   78SLPC   C21 7097   5.744   1.232   6.681  0.4397  0.5533 -0.0978
   78SLPC   O22 7098   5.649   1.160   6.697 -0.2813 -0.2465  0.2535
   78SLPC   C22 7099   5.739   1.388   6.694  0.0028 -0.0241 -0.0834
   78SLPC   H2R 7100   5.834   1.429   6.735  0.2354 -0.9560  0.3345
   78SLPC   H2S 7101   5.725   1.427   6.591 -3.1367 -1.0442 -0.1224
   78SLPC    C3 7102   5.944   1.012   6.800  0.1003  0.0513 -0.4942
   78SLPC    HX 7103   6.037   1.071   6.818  0.3096 -0.2890 -0.4569
   78SLPC    HY 7104   5.962   0.903   6.798  0.4106  0.0709  0.6738
   78SLPC   O31 7105   5.834   1.033   6.894 -0.2081  0.7324  0.6477
   78SLPC   C31 7106   5.822   0.953   6.996  0.8138  0.3647  0.5690
   78SLPC   O32 7107   5.900   0.865   7.028  0.3727 -0.1500  0.0322
   78SLPC   C32 7108   5.693   0.999   7.070  0.2293  0.0535 -0.5649
   78SLPC   H2X 7109   5.605   0.952   7.021 -0.0760  1.3736 -1.2999
   78SLPC   H2Y 7110   5.680   1.109   7.064 -2.8130 -0.2169 -0.1211
   78SLPC   C23 7111   5.616   1.441   6.775 -0.3990  0.5858  0.8596
   78SLPC   H3R 7112   5.525   1.382   6.751 -1.6471  2.5965  0.3923
   78SLPC   H3S 7113   5.586   1.542   6.739  2.5854  0.6823 -1.8585
   78SLPC   C24 7114   5.634   1.446   6.926 -0.3041  0.0474  0.2691
   78SLPC   H4R 7115   5.685   1.351   6.952  2.0975  0.9531 -0.8449
   78SLPC   H4S 7116   5.531   1.440   6.968 -0.9373 -1.1820 -1.3164
   78SLPC   C25 7117   5.703   1.583   6.968 -0.4704  0.7578  0.8288
   78SLPC   H5R 7118   5.641   1.664   6.923 -0.4381  0.9612  1.1529
   78SLPC   H5S 7119   5.795   1.567   6.907 -0.8885 -1.4416  0.6887
   78SLPC   C26 7120   5.720   1.599   7.119  0.1316  0.2693  0.4432
   78SLPC   H6R 7121   5.797   1.678   7.121  1.4523 -0.9107 -1.0573
   78SLPC   H6S 7122   5.773   1.516   7.171 -0.8377  0.3815  1.6681
   78SLPC   C27 7123   5.594   1.616   7.200 -0.3973 -0.6001  0.1651
   78SLPC   H7R 7124   5.560   1.513   7.225  3.2940 -1.4942  2.2373
   78SLPC   H7S 7125   5.520   1.671   7.138  0.2891 -1.6351 -1.6207
   78SLPC   C28 7126   5.621   1.698   7.334 -0.0256  1.1272 -0.2209
   78SLPC   H8R 7127   5.639   1.804   7.306 -2.2692  1.5499 -0.1926
   78SLPC   H8S 7128   5.715   1.657   7.378  0.4572  2.8064  0.3711
   78SLPC   C29 7129   5.497   1.712   7.418 -0.0880 -0.0070 -0.4020
   78SLPC   H9R 7130   5.409   1.666   7.370  0.5476 -1.5933 -0.1219
   78SLPC  C210 7131   5.489   1.738   7.550 -0.0072 -0.0767 -0.1438
   78SLPC  H10R 7132   5.389   1.736   7.596  0.6047 -0.9138  1.2075
   78SLPC  C211 7133   5.604   1.768   7.643 -0.2119  0.1683  0.4414
   78SLPC  H11R 7134   5.615   1.877   7.627  2.4183  0.0413  0.9080
   78SLPC  H11S 7135   5.700   1.731   7.599 -1.5238 -3.6843  0.4118
   78SLPC  C212 7136   5.606   1.720   7.787  0.4199 -0.2839  0.2726
   78SLPC  H12R 7137   5.607   1.801   7.862  2.8194  0.1800 -0.1833
   78SLPC  C213 7138   5.588   1.595   7.831 -0.1570  0.7059 -0.6587
   78SLPC  H13R 7139   5.588   1.573   7.939  2.7540  1.1949 -0.4746
   78SLPC  C214 7140   5.565   1.471   7.751 -0.4799 -0.8177  0.4681
   78SLPC  H14R 7141   5.622   1.384   7.792 -0.4381 -0.6848  0.6944
   78SLPC  H14S 7142   5.596   1.484   7.645  0.2835  0.8603  0.8746
   78SLPC  C215 7143   5.415   1.437   7.744  0.3406 -0.2474 -0.7430
   78SLPC  H15R 7144   5.368   1.508   7.672 -1.2668 -0.1130  0.3944
   78SLPC  H15S 7145   5.367   1.448   7.843  1.8783  0.7717 -0.0723
   78SLPC  C216 7146   5.388   1.294   7.685  0.4423 -0.3566 -0.4094
   78SLPC  H16R 7147   5.278   1.295   7.667  0.3450  1.2466  0.0897
   78SLPC  H16S 7148   5.408   1.217   7.762 -3.7749 -2.6259 -1.2578
   78SLPC  C217 7149   5.457   1.253   7.558 -0.1298 -0.1568 -0.1722
   78SLPC  H17R 7150   5.427   1.151   7.526  0.9440 -0.1602 -1.2178
   78SLPC  H17S 7151   5.567   1.246   7.568 -0.1447 -0.2854 -0.0923
   78SLPC  C218 7152   5.423   1.355   7.439 -0.1465 -0.3969 -0.1502
   78SLPC  H18R 7153   5.471   1.308   7.350  1.2487  1.3708 -0.3792
   78SLPC  H18S 7154   5.460   1.458   7.460  1.9690 -1.3023  0.9639
   78SLPC  H18T 7155   5.318   1.360   7.405  0.1829  1.4314 -0.9745
   78SLPC   C33 7156   5.702   0.947   7.215  0.2531  0.9009 -0.0971
   78SLPC   H3X 7157   5.751   0.850   7.239  0.2547  0.7729 -0.6085
   78SLPC   H3Y 7158   5.594   0.935   7.237  0.2703 -1.5246 -1.0224
   78SLPC   C34 7159   5.753   1.059   7.313  0.0117  0.3445  0.0721
   78SLPC   H4X 7160   5.706   1.158   7.293  1.6897  1.4062  1.0661
   78SLPC   H4Y 7161   5.861   1.066   7.289  0.7102  1.6517  3.0313
   78SLPC   C35 7162   5.744   1.009   7.455 -0.1892 -0.2501  0.5048
   78SLPC   H5X 7163   5.798   0.914   7.474  0.0036 -0.1213  0.6078
   78SLPC   H5Y 7164   5.642   1.014   7.499  0.3440  2.2315  1.6644
   78SLPC   C36 7165   5.818   1.114   7.543  0.5067 -0.2781  0.6437
   78SLPC   H6X 7166   5.781   1.218   7.537  1.0221  0.0341  2.2126
   78SLPC   H6Y 7167   5.921   1.116   7.501  0.4992  0.8805  0.6626
   78SLPC   C37 7168   5.805   1.075   7.690 -0.2789  0.1296  0.5283
   78SLPC   H7X 7169   5.848   0.975   7.709  2.2380  0.9616 -0.3517
   78SLPC   H7Y 7170   5.697   1.080   7.714 -0.4514 -1.2094  0.0718
   78SLPC   C38 7171   5.889   1.168   7.777  0.5880 -0.1152  0.5119
   78SLPC   H8X 7172   5.880   1.271   7.736  1.2100 -0.9162 -1.8242
   78SLPC   H8Y 7173   5.994   1.144   7.752  1.7226  1.2668  3.5364
   78SLPC   C39 7174   5.841   1.168   7.918 -0.4286  0.1670 -0.2631
   78SLPC   H9X 7175   5.858   1.063   7.950  0.3735  0.6910  1.0863
   78SLPC   H9Y 7176   5.735   1.199   7.927 -0.2174  0.9238 -0.3119
   78SLPC  C310 7177   5.934   1.258   8.004 -0.2660  0.1614 -0.0375
   78SLPC  H10X 7178   5.934   1.363   7.968 -0.7770  0.1926  0.0468
   78SLPC  H10Y 7179   6.039   1.220   7.999 -1.1155 -2.4862  0.5759
   78SLPC  C311 7180   5.883   1.271   8.148 -0.8239  0.2633 -0.1560
   78SLPC  H11X 7181   5.773   1.279   8.149 -0.9655 -1.3483 -0.8279
   78SLPC  H11Y 7182   5.931   1.362   8.190 -0.0880 -1.0001  1.9363
   78SLPC  C312 7183   5.931   1.155   8.241  0.2662  0.0110  0.3512
   78SLPC  H12X 7184   6.042   1.145   8.240  0.2836  0.2123 -0.5403
   78SLPC  H12Y 7185   5.883   1.067   8.192  1.0137  0.6454 -1.5996
   78SLPC  C313 7186   5.889   1.147   8.384  0.8312 -0.7316 -0.4854
   78SLPC  H13X 7187   5.935   1.233   8.438 -1.5456  1.6126 -1.9224
   78SLPC  H13Y 7188   5.927   1.051   8.425 -1.2114 -1.7362 -0.8480
   78SLPC  C314 7189   5.740   1.159   8.397  0.4018 -0.1063  0.4162
   78SLPC  H14X 7190   5.702   1.079   8.330 -0.4165  0.9524 -0.4171
   78SLPC  H14Y 7191   5.701   1.257   8.362 -0.0436 -0.0849  0.9666
   78SLPC  C315 7192   5.702   1.126   8.541 -0.0735  0.1596 -0.2504
   78SLPC  H15X 7193   5.800   1.148   8.590  0.9719  0.4842 -2.3800
   78SLPC  H15Y 7194   5.677   1.019   8.555 -0.4787  0.4375  1.3668
   78SLPC  C316 7195   5.589   1.222   8.604 -0.0629 -0.2256  0.1655
   78SLPC  H16X 7196   5.493   1.201   8.551 -0.7734  0.0773  1.3094
   78SLPC  H16Y 7197   5.619   1.329   8.604  1.5173 -0.6317 -0.0593
   78SLPC  C317 7198   5.552   1.192   8.751  0.2982  0.3325  0.2632
   78SLPC  H17X 7199   5.488   1.275   8.787  0.6923  1.4685 -1.5263
   78SLPC  H17Y 7200   5.647   1.194   8.809 -1.0572  0.5052  2.5945
   78SLPC  C318 7201   5.480   1.059   8.775 -0.3930  1.0134  0.5532
   78SLPC  H18X 7202   5.371   1.065   8.750  0.2693  0.2599 -3.1941
   78SLPC  H18Y 7203   5.481   1.034   8.883 -1.6227  0.3859  0.4375
   78SLPC  H18Z 7204   5.505   0.962   8.727 -1.2011  0.6769  0.7860
   79SLPC     N 7205   1.714   4.440   6.235  0.0449 -0.0156 -0.4718
   79SLPC   C13 7206   1.650   4.409   6.100  0.0468 -0.2372 -0.0430
   79SLPC  H13A 7207   1.603   4.312   6.106  1.0042 -0.6454  1.4129
   79SLPC  H13B 7208   1.593   4.499   6.080  0.9352  0.9266  2.2337
   79SLPC  H13C 7209   1.730   4.389   6.030 -0.3880 -0.0366 -0.5996
   79SLPC   C14 7210   1.780   4.576   6.221  0.2354 -0.1168 -0.0156
   79SLPC  H14A 7211   1.718   4.663   6.204  0.1384 -0.3689 -1.0416
   79SLPC  H14B 7212   1.825   4.598   6.317  0.4460  1.6624 -0.4809
   79SLPC  H14C 7213   1.853   4.580   6.141  1.5770  0.1723  1.1766
   79SLPC   C15 7214   1.827   4.339   6.271 -0.5174 -0.5634  0.7545
   79SLPC  H15A 7215   1.908   4.365   6.205  0.9676  0.9629  3.0525
   79SLPC  H15B 7216   1.862   4.357   6.371  2.7599  3.2036 -0.8305
   79SLPC  H15C 7217   1.789   4.239   6.256 -1.0565 -0.1185 -1.1056
   79SLPC   C12 7218   1.616   4.445   6.347 -0.4949  0.8395 -0.3104
   79SLPC  H12A 7219   1.561   4.352   6.345  0.4231  0.2600  0.3472
   79SLPC  H12B 7220   1.541   4.521   6.335 -1.9096 -0.4535  0.0783
   79SLPC   C11 7221   1.668   4.464   6.496 -0.0879  0.2347  0.5167
   79SLPC  H11A 7222   1.741   4.384   6.519  0.6224 -0.5468 -3.5562
   79SLPC  H11B 7223   1.575   4.460   6.556  0.1291  0.6532  0.8908
   79SLPC     P 7224   1.687   4.705   6.601  0.5138  0.0099  0.2973
   79SLPC   O13 7225   1.777   4.822   6.580 -0.5357  0.3961 -0.8382
   79SLPC   O14 7226   1.532   4.728   6.576  0.3459  0.4292  0.0764
   79SLPC   O12 7227   1.736   4.591   6.509  0.2127  0.5880  0.4448
   79SLPC   O11 7228   1.719   4.639   6.749  0.0956  0.3744  1.1864
   79SLPC    C1 7229   1.862   4.607   6.767 -0.2850 -0.2973  0.3999
   79SLPC    HA 7230   1.883   4.503   6.734 -0.7192 -0.5703  0.9674
   79SLPC    HB 7231   1.933   4.685   6.732 -1.7449  1.5283  1.3759
   79SLPC    C2 7232   1.888   4.597   6.920 -0.6150 -0.2658 -0.0712
   79SLPC    HS 7233   1.857   4.693   6.967 -1.5568 -1.0194  0.9005
   79SLPC   O21 7234   2.029   4.568   6.943 -0.3407 -0.1096  0.4758
   79SLPC   C21 7235   2.113   4.673   6.939 -0.7854 -0.1556  0.0226
   79SLPC   O22 7236   2.083   4.790   6.923 -0.2462 -0.4804 -0.1882
   79SLPC   C22 7237   2.259   4.616   6.946 -0.5133 -0.3736 -0.1890
   79SLPC   H2R 7238   2.274   4.525   6.884 -0.9392 -0.1992 -0.5568
   79SLPC   H2S 7239   2.326   4.703   6.929 -0.8509 -0.1625 -0.4499
   79SLPC    C3 7240   1.814   4.487   6.990 -0.0936  0.4005 -0.0253
   79SLPC    HX 7241   1.847   4.389   6.950 -0.8855  0.2927 -0.4337
   79SLPC    HY 7242   1.707   4.504   6.964  0.1161  2.6513  0.3642
   79SLPC   O31 7243   1.834   4.496   7.127  0.4372  0.4744  0.0457
   79SLPC   C31 7244   1.729   4.481   7.211 -0.2430  0.2899  0.5398
   79SLPC   O32 7245   1.616   4.458   7.183 -0.3776 -0.1114  0.2605
   79SLPC   C32 7246   1.776   4.524   7.347  0.5311 -0.4134  0.1613
   79SLPC   H2X 7247   1.735   4.627   7.359  1.3590 -0.1577  0.8481
   79SLPC   H2Y 7248   1.887   4.529   7.344  0.5041 -0.0843 -3.1089
   79SLPC   C23 7249   2.309   4.574   7.083  0.8957  0.3186  0.0141
   79SLPC   H3R 7250   2.420   4.566   7.076  0.9872 -1.0312  2.1596
   79SLPC   H3S 7251   2.273   4.474   7.115 -0.2194  0.7720  0.2013
   79SLPC   C24 7252   2.275   4.675   7.193  0.9860  0.1552 -0.1150
   79SLPC   H4R 7253   2.166   4.692   7.200  0.9650  0.4163 -0.9658
   79SLPC   H4S 7254   2.320   4.769   7.154 -1.3296  1.3373 -0.1069
   79SLPC   C25 7255   2.322   4.620   7.327 -0.7741 -0.1128 -0.5192
   79SLPC   H5R 7256   2.426   4.652   7.349 -0.4165 -1.7938  0.4803
   79SLPC   H5S 7257   2.327   4.509   7.323  0.7118 -0.0497 -1.1485
   79SLPC   C26 7258   2.227   4.650   7.452 -0.7408 -0.0232 -0.1920
   79SLPC   H6R 7259   2.144   4.577   7.464 -2.1389  1.5485  0.0893
   79SLPC   H6S 7260   2.186   4.751   7.429  0.5094  0.7447  0.8887
   79SLPC   C27 7261   2.311   4.643   7.580 -0.3866 -0.1967  0.0895
   79SLPC   H7R 7262   2.400   4.709   7.584 -0.1908 -0.4995  1.1223
   79SLPC   H7S 7263   2.352   4.542   7.601  0.6960 -0.0581 -1.2675
   79SLPC   C28 7264   2.232   4.678   7.707 -0.4226  0.1948 -0.4053
   79SLPC   H8R 7265   2.296   4.674   7.798 -1.6110  3.9447  0.7409
   79SLPC   H8S 7266   2.147   4.607   7.719  0.1103 -0.4191 -0.1873
   79SLPC   C29 7267   2.167   4.817   7.703 -0.7334  0.4460 -0.3092
   79SLPC   H9R 7268   2.193   4.868   7.610  0.5742 -0.7568 -0.6324
   79SLPC  C210 7269   2.126   4.887   7.809  0.0656 -0.3201 -0.5127
   79SLPC  H10R 7270   2.090   4.989   7.786 -0.7548 -0.4160  0.3012
   79SLPC  C211 7271   2.132   4.855   7.960  0.4720 -0.5620 -0.6174
   79SLPC  H11R 7272   2.119   4.956   8.007 -0.5610 -0.8851 -0.1716
   79SLPC  H11S 7273   2.238   4.833   7.984  0.3425  0.2171  0.7544
   79SLPC  C212 7274   2.038   4.744   8.000  0.0734 -0.2196 -0.0119
   79SLPC  H12R 7275   2.015   4.665   7.928  0.5890 -1.1257  0.8024
   79SLPC  C213 7276   1.984   4.727   8.124 -0.0914 -0.0560  1.0639
   79SLPC  H13R 7277   1.939   4.627   8.139 -0.3739 -0.4077 -1.6837
   79SLPC  C214 7278   1.983   4.827   8.241 -0.2720 -0.1036  1.0593
   79SLPC  H14R 7279   1.880   4.860   8.265  0.1841  3.0257 -0.6952
   79SLPC  H14S 7280   2.043   4.918   8.219  0.0980 -1.0654 -2.7269
   79SLPC  C215 7281   2.037   4.765   8.372 -0.3171  0.4918  0.4623
   79SLPC  H15R 7282   1.977   4.674   8.392  0.4897 -0.1044  0.2304
   79SLPC  H15S 7283   2.020   4.827   8.463  3.0673  2.5899 -0.1672
   79SLPC  C216 7284   2.188   4.726   8.361 -0.3072  0.3384  0.2688
   79SLPC  H16R 7285   2.241   4.823   8.356 -1.6805  1.0988 -0.2644
   79SLPC  H16S 7286   2.217   4.656   8.279  0.5027  0.0045  0.8229
   79SLPC  C217 7287   2.245   4.664   8.492  0.1403 -0.2365  0.4584
   79SLPC  H17R 7288   2.199   4.721   8.576 -0.1732  1.3352 -0.7265
   79SLPC  H17S 7289   2.355   4.672   8.493  0.3444 -1.9243 -1.8455
   79SLPC  C218 7290   2.205   4.516   8.505 -0.1445  0.1864 -0.2551
   79SLPC  H18R 7291   2.259   4.452   8.432  0.4882  1.7469 -1.2196
   79SLPC  H18S 7292   2.095   4.502   8.495 -0.2801 -3.5702  3.9177
   79SLPC  H18T 7293   2.221   4.483   8.609 -2.1671 -3.3591 -0.9169
   79SLPC   C33 7294   1.720   4.428   7.457 -0.5666 -0.1942  0.1430
   79SLPC   H3X 7295   1.781   4.336   7.447 -0.4313 -0.1089  0.1746
   79SLPC   H3Y 7296   1.613   4.408   7.437 -0.3708 -1.0515 -0.0853
   79SLPC   C34 7297   1.733   4.476   7.606  0.0012 -0.4722  0.2223
   79SLPC   H4X 7298   1.691   4.579   7.612 -1.6026 -1.0610 -0.4450
   79SLPC   H4Y 7299   1.840   4.494   7.631 -0.2540 -0.1040  1.0816
   79SLPC   C35 7300   1.680   4.388   7.711  0.1218  0.3722 -0.4262
   79SLPC   H5X 7301   1.727   4.288   7.722 -1.0260 -0.3654 -1.8920
   79SLPC   H5Y 7302   1.574   4.365   7.688 -0.5702  1.7033  1.1942
   79SLPC   C36 7303   1.677   4.473   7.841 -1.0642 -0.0897  0.9301
   79SLPC   H6X 7304   1.614   4.563   7.824 -0.0095  0.5172  0.1660
   79SLPC   H6Y 7305   1.783   4.506   7.848 -1.8791  3.1994 -0.5777
   79SLPC   C37 7306   1.647   4.399   7.965  0.2489  0.4740 -0.1640
   79SLPC   H7X 7307   1.721   4.317   7.977  0.0700  0.1656 -1.0258
   79SLPC   H7Y 7308   1.544   4.359   7.951  0.7254 -0.2792 -1.9101
   79SLPC   C38 7309   1.660   4.481   8.094 -0.0928 -0.9046  0.4000
   79SLPC   H8X 7310   1.567   4.543   8.095 -1.0370 -2.2756  0.5067
   79SLPC   H8Y 7311   1.748   4.549   8.091 -0.9232  0.1674 -1.1935
   79SLPC   C39 7312   1.660   4.387   8.218 -0.0564 -0.7061  0.2626
   79SLPC   H9X 7313   1.738   4.311   8.197  1.2131  0.2242  1.4228
   79SLPC   H9Y 7314   1.566   4.330   8.232  0.0153 -2.4288 -4.5300
   79SLPC  C310 7315   1.697   4.448   8.359 -0.2119 -0.1996 -0.0836
   79SLPC  H10X 7316   1.620   4.527   8.373  1.5762  1.7515 -0.7228
   79SLPC  H10Y 7317   1.792   4.506   8.354 -2.0966  3.3855  1.4724
   79SLPC  C311 7318   1.705   4.339   8.468  0.6574 -0.0205 -0.6169
   79SLPC  H11X 7319   1.788   4.274   8.433  2.2800  1.2195  0.7076
   79SLPC  H11Y 7320   1.605   4.291   8.474  1.0507 -0.9084 -0.9737
   79SLPC  C312 7321   1.730   4.388   8.614 -0.4319  0.6583  0.1388
   79SLPC  H12X 7322   1.648   4.457   8.642 -0.3846  0.5389  0.5874
   79SLPC  H12Y 7323   1.829   4.438   8.615 -0.6358  1.0690 -0.0437
   79SLPC  C313 7324   1.731   4.270   8.715 -0.0201  0.4326  0.3158
   79SLPC  H13X 7325   1.662   4.187   8.687 -0.6711 -0.1904  3.4431
   79SLPC  H13Y 7326   1.713   4.298   8.821  0.4817 -1.3784  0.9263
   79SLPC  C314 7327   1.867   4.208   8.709 -0.6465  0.1079  0.2825
   79SLPC  H14X 7328   1.939   4.287   8.738 -2.4956  2.0789 -0.2206
   79SLPC  H14Y 7329   1.897   4.184   8.605  0.3148 -0.2615  0.6355
   79SLPC  C315 7330   1.875   4.087   8.791  0.1057  0.5500 -0.2159
   79SLPC  H15X 7331   1.821   4.001   8.745 -1.4122  1.6091 -0.5073
   79SLPC  H15Y 7332   1.822   4.098   8.888  0.8875 -0.2344  0.3025
   79SLPC  C316 7333   2.020   4.049   8.825  0.8381 -0.2423 -0.1952
   79SLPC  H16X 7334   2.066   4.127   8.890 -0.0399  0.7294 -0.7017
   79SLPC  H16Y 7335   2.086   4.070   8.738  0.9928 -1.4106 -0.3679
   79SLPC  C317 7336   2.042   3.904   8.874  0.2814  0.2340  0.4539
   79SLPC  H17X 7337   1.991   3.838   8.801 -0.3751  1.8848 -0.6326
   79SLPC  H17Y 7338   1.980   3.886   8.965 -2.9257  1.5929 -1.3175
   79SLPC  C318 7339   2.188   3.868   8.900  0.3243 -0.2419 -0.2863
   79SLPC  H18X 7340   2.259   3.849   8.817  2.7038 -0.2635  1.6490
   79SLPC  H18Y 7341   2.196   3.776   8.962  3.5278  1.1252  1.5836
   79SLPC  H18Z 7342   2.220   3.949   8.969 -0.4875  0.3258 -0.5552
   80SLPC     N 7343   2.526   0.677   6.144 -0.1080  0.5457 -0.3504
   80SLPC   C13 7344   2.495   0.629   6.004  0.2138  0.3789 -0.2686
   80SLPC  H13A 7345   2.443   0.698   5.939  0.4106 -0.2823 -1.1586
   80SLPC  H13B 7346   2.585   0.607   5.947  0.0464  0.4813 -0.5758
   80SLPC  H13C 7347   2.444   0.534   6.012  3.5204 -1.5149  0.3059
   80SLPC   C14 7348   2.390   0.695   6.208  0.1759 -0.0025  0.0744
   80SLPC  H14A 7349   2.334   0.773   6.158  1.8337  1.9552  1.1317
   80SLPC  H14B 7350   2.324   0.609   6.211 -1.2238  0.9813 -0.8892
   80SLPC  H14C 7351   2.396   0.735   6.308 -1.3379  2.2379 -0.6444
   80SLPC   C15 7352   2.601   0.801   6.133 -1.1473  0.3522  0.6398
   80SLPC  H15A 7353   2.597   0.874   6.211  1.4993  1.5899 -0.2843
   80SLPC  H15B 7354   2.704   0.775   6.117 -1.4486 -1.2870  1.1587
   80SLPC  H15C 7355   2.566   0.844   6.040 -3.3843 -3.3486 -0.4858
   80SLPC   C12 7356   2.612   0.577   6.222  0.2303  0.4873  0.7089
   80SLPC  H12A 7357   2.557   0.484   6.231  1.2893 -0.3607 -1.0122
   80SLPC  H12B 7358   2.619   0.611   6.324  0.2363  0.5310  0.6937
   80SLPC   C11 7359   2.761   0.560   6.172 -0.1864  0.5504  0.0256
   80SLPC  H11A 7360   2.757   0.536   6.064 -2.6716 -0.1389  0.1931
   80SLPC  H11B 7361   2.807   0.469   6.217  1.0505  0.6736 -0.9519
   80SLPC     P 7362   2.925   0.707   6.306 -0.0238  0.0498 -0.0364
   80SLPC   O13 7363   3.032   0.604   6.318 -0.1174  0.6856 -0.1241
   80SLPC   O14 7364   2.969   0.848   6.295 -0.1799 -0.0908  0.9357
   80SLPC   O12 7365   2.843   0.676   6.191  0.0956 -0.4654  0.3591
   80SLPC   O11 7366   2.833   0.698   6.436  0.4488 -0.5755  0.6781
   80SLPC    C1 7367   2.882   0.608   6.547 -1.0626 -0.0654  0.6567
   80SLPC    HA 7368   2.853   0.503   6.528  0.3512 -0.2931 -0.3795
   80SLPC    HB 7369   2.992   0.609   6.560 -1.1553  0.0603  1.5416
   80SLPC    C2 7370   2.811   0.649   6.679  0.7668  0.0132  0.9698
   80SLPC    HS 7371   2.711   0.600   6.669 -0.1804  1.8356  1.1025
   80SLPC   O21 7372   2.790   0.791   6.679 -0.2374 -0.5569  0.7127
   80SLPC   C21 7373   2.659   0.825   6.690 -0.5801 -0.2447 -0.1892
   80SLPC   O22 7374   2.569   0.752   6.713 -0.0807  0.4210  0.1482
   80SLPC   C22 7375   2.653   0.977   6.677 -0.3853 -0.9854  0.7579
   80SLPC   H2R 7376   2.723   1.022   6.750 -2.4066  0.4996  1.9100
   80SLPC   H2S 7377   2.693   1.005   6.577  2.7862  1.4895  2.5444
   80SLPC    C3 7378   2.889   0.593   6.807 -0.0518 -0.2993  0.8900
   80SLPC    HX 7379   2.981   0.655   6.807  0.1474 -0.5986  0.5820
   80SLPC    HY 7380   2.919   0.490   6.781  0.2414 -0.2133  0.8821
   80SLPC   O31 7381   2.808   0.610   6.923  0.1850  0.1180  0.1912
   80SLPC   C31 7382   2.800   0.503   7.000  0.3263  0.4479 -1.0377
   80SLPC   O32 7383   2.847   0.395   6.977  0.5214 -0.7439  0.1426
   80SLPC   C32 7384   2.730   0.546   7.129 -0.3034  0.3671 -1.0011
   80SLPC   H2X 7385   2.619   0.546   7.120 -0.2380 -0.0601 -1.8772
   80SLPC   H2Y 7386   2.749   0.651   7.159 -2.4116  0.3014  0.7717
   80SLPC   C23 7387   2.512   1.041   6.706 -0.8326  0.0513 -0.1368
   80SLPC   H3R 7388   2.431   0.971   6.677  1.1144 -2.3096 -0.2097
   80SLPC   H3S 7389   2.503   1.131   6.641  3.4137  0.0759 -0.9497
   80SLPC   C24 7390   2.494   1.081   6.857 -0.0399 -0.3323 -0.3768
   80SLPC   H4R 7391   2.394   1.126   6.875  1.3332  3.1065 -0.6276
   80SLPC   H4S 7392   2.554   1.171   6.880 -4.2520  2.8361 -0.6334
   80SLPC   C25 7393   2.494   0.966   6.956  0.0525  0.3762 -0.2951
   80SLPC   H5R 7394   2.595   0.920   6.955  0.0606  0.1805  2.2548
   80SLPC   H5S 7395   2.424   0.888   6.920 -0.4488  0.6214  0.1365
   80SLPC   C26 7396   2.443   0.990   7.095  0.7881 -0.8261 -0.2693
   80SLPC   H6R 7397   2.338   1.026   7.087 -0.5065 -4.3488 -0.6327
   80SLPC   H6S 7398   2.506   1.067   7.146 -0.3397  1.0122 -1.5344
   80SLPC   C27 7399   2.450   0.860   7.172 -0.2915  0.0748 -0.5280
   80SLPC   H7R 7400   2.559   0.838   7.172 -0.4480 -1.2038  2.4487
   80SLPC   H7S 7401   2.379   0.792   7.120 -0.7892 -1.1017  1.5929
   80SLPC   C28 7402   2.405   0.879   7.315  0.1984 -0.5412  0.0386
   80SLPC   H8R 7403   2.301   0.917   7.322  0.1197  0.2327 -3.7323
   80SLPC   H8S 7404   2.471   0.963   7.344 -1.1193  0.6784 -0.4080
   80SLPC   C29 7405   2.432   0.752   7.383 -0.0374 -0.2441 -0.2865
   80SLPC   H9R 7406   2.516   0.695   7.338  2.0582  3.0898 -0.9760
   80SLPC  C210 7407   2.362   0.697   7.485  0.4037  0.6452 -0.6733
   80SLPC  H10R 7408   2.400   0.607   7.536 -0.9623  0.0276 -0.6817
   80SLPC  C211 7409   2.245   0.746   7.563 -0.4307 -0.3952  0.0135
   80SLPC  H11R 7410   2.160   0.680   7.592 -0.8067  0.9401  2.1692
   80SLPC  H11S 7411   2.200   0.823   7.496 -0.0014  0.7089  0.9451
   80SLPC  C212 7412   2.296   0.796   7.695 -0.3756  0.2494 -0.3017
   80SLPC  H12R 7413   2.339   0.897   7.692  2.5774 -0.8586  1.0435
   80SLPC  C213 7414   2.323   0.723   7.809  0.1815 -0.2958 -0.4037
   80SLPC  H13R 7415   2.360   0.773   7.900  0.0622 -0.3293 -0.3371
   80SLPC  C214 7416   2.291   0.582   7.830 -0.6051  0.7013 -0.9973
   80SLPC  H14R 7417   2.347   0.526   7.752 -0.5691 -0.8800  0.1141
   80SLPC  H14S 7418   2.184   0.560   7.809 -0.8624  1.7600 -0.8255
   80SLPC  C215 7419   2.329   0.529   7.970 -0.3463 -0.6525  0.8555
   80SLPC  H15R 7420   2.440   0.534   7.977 -0.3359  3.8626  0.7381
   80SLPC  H15S 7421   2.295   0.428   7.999 -0.6074  0.0401  3.2246
   80SLPC  C216 7422   2.268   0.611   8.084  0.3969  0.5475 -0.3575
   80SLPC  H16R 7423   2.160   0.615   8.059  0.8397  1.4417 -2.3179
   80SLPC  H16S 7424   2.293   0.719   8.082  0.5381  0.5097 -1.0067
   80SLPC  C217 7425   2.302   0.555   8.223  0.4813 -0.3942  0.2160
   80SLPC  H17R 7426   2.235   0.476   8.262  2.5440 -1.0175  2.7344
   80SLPC  H17S 7427   2.276   0.641   8.289  1.1663  0.3470 -0.4538
   80SLPC  C218 7428   2.445   0.518   8.255  0.0206 -0.0211 -0.2318
   80SLPC  H18R 7429   2.526   0.585   8.218  0.1001 -0.6337 -1.2165
   80SLPC  H18S 7430   2.475   0.423   8.205 -1.3172 -0.0093 -1.0989
   80SLPC  H18T 7431   2.462   0.512   8.365 -1.0007 -1.3351 -0.1198
   80SLPC   C33 7432   2.776   0.448   7.236 -0.4450  0.1863 -0.0958
   80SLPC   H3X 7433   2.887   0.438   7.234 -0.5051 -0.4913 -0.3648
   80SLPC   H3Y 7434   2.732   0.350   7.208  1.6125 -1.8956  3.2650
   80SLPC   C34 7435   2.713   0.467   7.377 -0.8510  0.8684 -0.4701
   80SLPC   H4X 7436   2.606   0.494   7.380 -0.8313  0.8813  0.3104
   80SLPC   H4Y 7437   2.778   0.547   7.420  1.5086 -0.5879 -1.1421
   80SLPC   C35 7438   2.745   0.336   7.448 -0.0113 -0.3165 -0.4390
   80SLPC   H5X 7439   2.856   0.336   7.451  0.0390  0.7790 -1.4985
   80SLPC   H5Y 7440   2.699   0.252   7.392 -2.2986 -1.1915  2.5013
   80SLPC   C36 7441   2.691   0.320   7.589 -0.1374  0.8383 -0.2895
   80SLPC   H6X 7442   2.742   0.228   7.627 -1.0619 -0.5730 -2.2925
   80SLPC   H6Y 7443   2.583   0.307   7.567 -0.0485 -0.4411 -0.0693
   80SLPC   C37 7444   2.711   0.434   7.678 -0.2957 -0.6827  0.6400
   80SLPC   H7X 7445   2.642   0.517   7.650 -0.9337 -1.1501  0.8000
   80SLPC   H7Y 7446   2.814   0.476   7.686 -0.3988 -0.6182  1.7848
   80SLPC   C38 7447   2.674   0.390   7.820 -0.6714  0.3843 -0.9909
   80SLPC   H8X 7448   2.580   0.331   7.810  0.3712 -1.0191 -3.5821
   80SLPC   H8Y 7449   2.642   0.473   7.886 -1.3853 -1.4612  1.1300
   80SLPC   C39 7450   2.774   0.296   7.891  0.2757 -0.3200  0.4446
   80SLPC   H9X 7451   2.876   0.339   7.882 -0.6069  1.7738 -0.1253
   80SLPC   H9Y 7452   2.772   0.199   7.837 -0.2667 -0.2861  0.3946
   80SLPC  C310 7453   2.741   0.290   8.035  0.1989  0.5398  1.2151
   80SLPC  H10X 7454   2.633   0.262   8.039  0.9110 -2.5127  1.1416
   80SLPC  H10Y 7455   2.764   0.391   8.075 -0.5519  0.6584  1.3661
   80SLPC  C311 7456   2.815   0.182   8.118 -0.8861  0.2293  0.7220
   80SLPC  H11X 7457   2.919   0.218   8.132 -0.4694 -0.4340 -0.4890
   80SLPC  H11Y 7458   2.810   0.083   8.069  0.1557  0.1137  0.8225
   80SLPC  C312 7459   2.758   0.166   8.261 -0.4489 -0.3178  0.1368
   80SLPC  H12X 7460   2.649   0.188   8.253 -0.7621 -1.5645  0.7301
   80SLPC  H12Y 7461   2.804   0.247   8.321 -0.1902 -0.1548 -0.2740
   80SLPC  C313 7462   2.773   0.026   8.316  0.0002  0.3544  0.4999
   80SLPC  H13X 7463   2.877  -0.011   8.321  0.9254  2.7665  0.2616
   80SLPC  H13Y 7464   2.715  -0.043   8.251 -0.8494  0.4074  1.1814
   80SLPC  C314 7465   2.713   0.005   8.458  0.1737  1.0229 -0.0704
   80SLPC  H14X 7466   2.605   0.030   8.459  0.1997  1.4097  2.9476
   80SLPC  H14Y 7467   2.764   0.078   8.525 -2.1108  3.3141 -0.6394
   80SLPC  C315 7468   2.723  -0.136   8.513  0.1242  0.0162  0.5495
   80SLPC  H15X 7469   2.831  -0.157   8.530  1.1879  2.3220 -2.3752
   80SLPC  H15Y 7470   2.681  -0.204   8.436 -0.1560 -0.3249  1.0024
   80SLPC  C316 7471   2.642  -0.150   8.639 -0.1970  0.5081 -0.3150
   80SLPC  H16X 7472   2.665  -0.054   8.690  2.1030  1.2269 -2.5173
   80SLPC  H16Y 7473   2.670  -0.234   8.706  1.2976  1.7295  0.6620
   80SLPC  C317 7474   2.487  -0.157   8.615  0.3229 -0.5820 -0.3758
   80SLPC  H17X 7475   2.467  -0.188   8.510  0.2437 -0.7743 -0.3039
   80SLPC  H17Y 7476   2.451  -0.053   8.624  1.7314  0.0701 -1.8199
   80SLPC  C318 7477   2.415  -0.251   8.712 -0.5866 -0.0444  0.3921
   80SLPC  H18X 7478   2.304  -0.242   8.709 -0.4589  2.7064 -3.6998
   80SLPC  H18Y 7479   2.451  -0.236   8.816  0.3468 -1.8969  0.3714
   80SLPC  H18Z 7480   2.442  -0.358   8.695 -0.9071 -0.2336  1.0257
   81SAPS     N 7481   1.943   3.551  11.275  0.0787  0.3044 -0.2162
   81SAPS   HN1 7482   1.840   3.560  11.290  0.4442  2.0392  1.6027
   81SAPS   HN2 7483   1.976   3.553  11.176  0.4503 -0.2979 -0.1088
   81SAPS   HN3 7484   1.983   3.466  11.321 -2.2788 -1.4746 -1.2451
   81SAPS   C12 7485   2.010   3.668  11.341  0.0810 -0.2718 -0.4975
   81SAPS  H12A 7486   1.989   3.745  11.269  1.9650 -0.6483 -1.5114
   81SAPS   C13 7487   1.964   3.722  11.482  0.0543 -0.3014  0.2041
   81SAPS  O13A 7488   1.892   3.644  11.547  0.0383 -0.7229 -0.5677
   81SAPS  O13B 7489   2.041   3.805  11.543 -0.3851  0.4986 -0.0860
   81SAPS   C11 7490   2.172   3.641  11.362  0.4084 -0.4337 -0.3090
   81SAPS  H11A 7491   2.184   3.568  11.446  1.8289  0.4807  0.3422
   81SAPS  H11B 7492   2.225   3.735  11.386  3.7290 -1.7140 -1.9226
   81SAPS     P 7493   2.387   3.590  11.221 -0.2555 -0.0935 -0.1119
   81SAPS   O13 7494   2.453   3.668  11.328  0.2258 -0.1883 -0.1855
   81SAPS   O14 7495   2.440   3.457  11.197  0.3968  0.0618 -0.0645
   81SAPS   O12 7496   2.232   3.580  11.246 -0.1144 -0.3761 -0.0386
   81SAPS   O11 7497   2.407   3.683  11.098 -0.4358 -0.3721  0.0869
   81SAPS    C1 7498   2.356   3.820  11.082 -0.5819  0.3702  0.3769
   81SAPS    HA 7499   2.296   3.865  11.164 -2.7813 -0.2039 -0.8201
   81SAPS    HB 7500   2.447   3.877  11.057 -0.2921 -0.2317  0.0196
   81SAPS    C2 7501   2.265   3.827  10.951  0.2199 -0.2314 -0.9985
   81SAPS    HS 7502   2.179   3.759  10.971  0.3738 -0.3550 -0.7454
   81SAPS   O21 7503   2.333   3.768  10.838 -0.4459 -0.2908  0.2035
   81SAPS   C21 7504   2.253   3.723  10.739  0.2791 -0.9282  0.0634
   81SAPS   O22 7505   2.128   3.723  10.750 -0.0939 -0.6976  0.0153
   81SAPS   C22 7506   2.317   3.671  10.611 -0.5207 -0.7667 -0.3663
   81SAPS   H2R 7507   2.352   3.761  10.555 -0.5379 -0.6595 -0.2065
   81SAPS   H2S 7508   2.396   3.599  10.640 -1.0253 -0.1652  2.8268
   81SAPS    C3 7509   2.230   3.980  10.915  0.4498  0.1501  0.0943
   81SAPS    HX 7510   2.192   4.021  11.011 -1.6618 -0.5398 -0.3998
   81SAPS    HY 7511   2.141   3.989  10.849 -0.8516  2.4766  2.0156
   81SAPS   O31 7512   2.347   4.051  10.875 -0.1310 -0.8750 -0.2772
   81SAPS   C31 7513   2.365   4.059  10.746 -0.8338 -0.0901 -0.0956
   81SAPS   O32 7514   2.289   4.014  10.661  0.9253 -0.3052 -0.3295
   81SAPS   C32 7515   2.504   4.122  10.718 -0.0486  0.1196 -0.1117
   81SAPS   H2X 7516   2.581   4.057  10.766 -0.9689 -0.6621  0.3530
   81SAPS   H2Y 7517   2.503   4.219  10.773  1.6862  0.5610 -0.7811
   81SAPS   C23 7518   2.207   3.610  10.514 -0.0212 -0.7566  0.1292
   81SAPS   H3R 7519   2.160   3.527  10.571  1.7416 -0.6408  1.8459
   81SAPS   H3S 7520   2.252   3.557  10.428  3.7803  0.1770  1.3196
   81SAPS   C24 7521   2.099   3.709  10.455 -1.0709 -0.8836 -0.4527
   81SAPS   H4R 7522   2.028   3.738  10.536  1.0394 -0.6656  1.3915
   81SAPS   H4S 7523   2.033   3.651  10.386 -1.1229 -2.8716  1.1810
   81SAPS   C25 7524   2.161   3.829  10.394 -0.3576  0.0818  0.2845
   81SAPS   H5R 7525   2.169   3.918  10.458  1.5650  0.5904 -0.5793
   81SAPS   C26 7526   2.210   3.852  10.272  0.0294  0.2949 -0.0409
   81SAPS   H6R 7527   2.267   3.944  10.254  0.5262  0.0612  0.3485
   81SAPS   C27 7528   2.222   3.750  10.160 -0.3877 -0.5025 -0.0398
   81SAPS   H7R 7529   2.128   3.760  10.102  0.1674  0.4143 -0.8122
   81SAPS   H7S 7530   2.225   3.650  10.208 -0.8245 -0.8087 -0.6266
   81SAPS   C28 7531   2.333   3.772  10.068 -0.1241  0.3502 -0.4979
   81SAPS   H8R 7532   2.409   3.851  10.081 -0.5488  0.9394 -1.4429
   81SAPS   C29 7533   2.364   3.691   9.962  0.2572  0.0767  0.1974
   81SAPS   H9R 7534   2.458   3.704   9.905  0.8827  0.2452  1.2401
   81SAPS  C210 7535   2.273   3.573   9.921 -0.1098  0.6949 -0.0496
   81SAPS  H10R 7536   2.172   3.614   9.898 -1.8212 -3.4347 -0.7683
   81SAPS  H10S 7537   2.250   3.510  10.009  0.4436  2.4868  1.4321
   81SAPS  C211 7538   2.329   3.495   9.803  0.4174  0.1623  0.4157
   81SAPS  H11R 7539   2.431   3.454   9.803  1.0403  1.6674  0.6479
   81SAPS  C212 7540   2.269   3.480   9.681 -0.9322 -0.5035 -0.6741
   81SAPS  H12R 7541   2.320   3.417   9.607 -0.1032  0.1643 -0.6926
   81SAPS  C213 7542   2.132   3.533   9.638  0.0257 -0.7533  0.1741
   81SAPS  H13R 7543   2.166   3.628   9.592  0.4436 -0.7785  0.4307
   81SAPS  H13S 7544   2.067   3.557   9.725  0.8057  1.8155  0.1276
   81SAPS  C214 7545   2.062   3.442   9.539  0.5438  0.2486  1.0170
   81SAPS  H14R 7546   2.013   3.353   9.583 -0.4868  0.5450  0.4966
   81SAPS  C215 7547   2.071   3.447   9.402 -0.4075  0.9465 -0.3118
   81SAPS  H15R 7548   2.010   3.377   9.342  2.8031 -0.4400 -2.2035
   81SAPS  C216 7549   2.143   3.543   9.318 -0.2081  0.7961  0.3835
   81SAPS  H16R 7550   2.229   3.493   9.269  1.3104  2.7676  0.9489
   81SAPS  H16S 7551   2.186   3.622   9.383 -1.2900  1.4950  0.2732
   81SAPS  C217 7552   2.057   3.597   9.199 -0.1687 -0.0623 -0.4473
   81SAPS  H17R 7553   2.118   3.676   9.149  1.2574 -0.2508  0.9288
   81SAPS  H17S 7554   1.972   3.650   9.248  0.5879 -0.9069  1.8766
   81SAPS  C218 7555   2.007   3.494   9.093  0.4915 -0.2710 -0.0648
   81SAPS  H18R 7556   1.957   3.404   9.136  0.3993 -0.4105 -0.4646
   81SAPS  H18S 7557   2.094   3.451   9.039 -1.0065 -2.8886 -0.6101
   81SAPS  C219 7558   1.898   3.560   9.004 -0.1562 -0.9963 -0.0777
   81SAPS  H19R 7559   1.939   3.653   8.959  0.9756 -0.9102  1.0942
   81SAPS  H19S 7560   1.811   3.594   9.064  1.2377  1.5427  0.6317
   81SAPS  C220 7561   1.864   3.462   8.896 -0.6160 -0.1736 -0.3519
   81SAPS  H20R 7562   1.822   3.371   8.944 -1.2785  1.0941  1.5827
   81SAPS  H20S 7563   1.959   3.443   8.841  2.1125  2.9923  2.8171
   81SAPS  H20T 7564   1.774   3.482   8.835  0.0801 -0.1166 -1.3877
   81SAPS   C33 7565   2.526   4.155  10.567  0.1136  0.5559  0.5605
   81SAPS   H3X 7566   2.618   4.216  10.567  0.4091  0.1311  1.5520
   81SAPS   H3Y 7567   2.451   4.223  10.521  0.0980  0.5603  0.5921
   81SAPS   C34 7568   2.560   4.030  10.480 -0.2219  0.2654 -0.1019
   81SAPS   H4X 7569   2.495   3.946  10.513  0.3959 -0.2959 -0.2697
   81SAPS   H4Y 7570   2.665   4.005  10.506  0.9253  1.4512 -3.1430
   81SAPS   C35 7571   2.561   4.058  10.329  0.3117  0.0351 -0.1326
   81SAPS   H5X 7572   2.472   4.122  10.310 -0.6399 -0.7607  1.4876
   81SAPS   H5Y 7573   2.552   3.962  10.274 -2.4466  1.1411 -1.8380
   81SAPS   C36 7574   2.682   4.136  10.292 -0.6945 -0.1724 -0.7891
   81SAPS   H6X 7575   2.769   4.071  10.319  0.1228  1.9690  2.2548
   81SAPS   H6Y 7576   2.690   4.227  10.354 -1.2631  0.6988 -1.9643
   81SAPS   C37 7577   2.684   4.179  10.144  0.1468  0.8596 -1.0130
   81SAPS   H7X 7578   2.785   4.225  10.132  0.3799  1.1181  1.3013
   81SAPS   H7Y 7579   2.603   4.250  10.120 -1.3251 -0.8340 -1.2573
   81SAPS   C38 7580   2.660   4.059  10.051  0.0301 -0.6723  0.1508
   81SAPS   H8X 7581   2.555   4.026  10.063 -0.1846  0.2167  0.7556
   81SAPS   H8Y 7582   2.729   3.976  10.079  0.0130  0.0691  2.5945
   81SAPS   C39 7583   2.675   4.118   9.906  0.2789 -0.1788  0.1717
   81SAPS   H9X 7584   2.773   4.170   9.909 -0.1940  0.8963 -1.8701
   81SAPS   H9Y 7585   2.598   4.194   9.883  1.8093  1.6325  0.7636
   81SAPS  C310 7586   2.686   4.009   9.798  0.0875  0.8228  0.1770
   81SAPS  H10X 7587   2.760   3.938   9.843  0.1392 -0.0684 -1.2673
   81SAPS  H10Y 7588   2.726   4.049   9.702  0.0196  1.9256  0.5937
   81SAPS  C311 7589   2.547   3.941   9.771 -0.4651 -0.3272  0.2196
   81SAPS  H11X 7590   2.476   4.014   9.726  1.0885 -0.0524 -1.9359
   81SAPS  H11Y 7591   2.500   3.903   9.864 -0.0304  0.7495  0.9007
   81SAPS  C312 7592   2.570   3.830   9.671  0.4519 -0.3068  0.5348
   81SAPS  H12X 7593   2.490   3.754   9.679 -1.3461  1.6021  1.8373
   81SAPS  H12Y 7594   2.665   3.780   9.700  0.4888 -0.5381  0.0228
   81SAPS  C313 7595   2.574   3.876   9.525  0.1639  0.2077 -0.1147
   81SAPS  H13X 7596   2.682   3.896   9.513  0.8260 -2.1223  1.3895
   81SAPS  H13Y 7597   2.520   3.970   9.500  0.8074  0.7385  0.4598
   81SAPS  C314 7598   2.512   3.762   9.440 -0.6501 -1.0501 -0.5961
   81SAPS  H14X 7599   2.404   3.772   9.462 -0.3971  3.7919 -0.4919
   81SAPS  H14Y 7600   2.541   3.660   9.472 -0.7875 -0.4901  1.4976
   81SAPS  C315 7601   2.533   3.783   9.293 -0.5680  0.1463 -0.2791
   81SAPS  H15X 7602   2.642   3.760   9.287 -0.7985 -1.9536  2.0014
   81SAPS  H15Y 7603   2.520   3.886   9.253 -1.2894  0.5677  0.9773
   81SAPS  C316 7604   2.480   3.670   9.199  0.1137 -0.0606  0.2300
   81SAPS  H16X 7605   2.370   3.679   9.189  0.2031  0.9637  0.0480
   81SAPS  H16Y 7606   2.515   3.574   9.243 -0.6853 -0.1293  0.7525
   81SAPS  C317 7607   2.537   3.687   9.053  0.3204 -0.7120  0.3506
   81SAPS  H17X 7608   2.644   3.714   9.066  0.4665 -1.6601  1.2890
   81SAPS  H17Y 7609   2.482   3.779   9.024  0.7362  0.5455  3.1646
   81SAPS  C318 7610   2.535   3.562   8.959 -0.2907  0.0106 -0.4776
   81SAPS  H18X 7611   2.604   3.572   8.873 -0.8312 -0.5576 -0.9895
   81SAPS  H18Y 7612   2.436   3.531   8.919 -1.4847  2.7302  0.1711
   81SAPS  H18Z 7613   2.571   3.472   9.013 -1.9831 -0.9246 -0.8330
   82SAPS     N 7614   0.074   2.630  11.380 -0.5090 -0.1135  0.1225
   82SAPS   HN1 7615   0.038   2.712  11.433 -0.8807 -0.5722  0.5886
   82SAPS   HN2 7616   0.031   2.629  11.285 -1.4075  1.6647  0.4588
   82SAPS   HN3 7617   0.053   2.542  11.430 -2.1362 -0.6406 -1.3504
   82SAPS   C12 7618   0.223   2.641  11.357  0.1670  0.6840 -0.2110
   82SAPS  H12A 7619   0.248   2.744  11.335  0.8346  0.7273  0.6906
   82SAPS   C13 7620   0.305   2.614  11.491  0.2576  0.0113 -0.2280
   82SAPS  O13A 7621   0.241   2.595  11.597 -0.6372 -0.0563 -0.3424
   82SAPS  O13B 7622   0.432   2.634  11.486  0.8562  0.5769 -0.1103
   82SAPS   C11 7623   0.259   2.545  11.239 -1.4645  0.2310 -0.2396
   82SAPS  H11A 7624   0.222   2.443  11.262 -1.5857  0.6638  1.6571
   82SAPS  H11B 7625   0.369   2.539  11.223 -1.6395 -0.5803 -1.2090
   82SAPS     P 7626   0.257   2.680  11.011  0.0031 -0.4154  0.2135
   82SAPS   O13 7627   0.152   2.737  10.919 -0.0365  0.0317  0.0259
   82SAPS   O14 7628   0.347   2.781  11.065 -0.4396 -0.8555 -0.2909
   82SAPS   O12 7629   0.192   2.591  11.122  0.4343 -0.0538  0.1350
   82SAPS   O11 7630   0.351   2.568  10.937 -0.0165 -0.4290 -0.2392
   82SAPS    C1 7631   0.286   2.439  10.911  0.4622  0.4914  0.1104
   82SAPS    HA 7632   0.347   2.361  10.961 -0.4545  0.9042  1.9781
   82SAPS    HB 7633   0.189   2.415  10.960  1.5142  0.6558  2.4056
   82SAPS    C2 7634   0.255   2.415  10.757 -0.2962  1.0523 -0.0484
   82SAPS    HS 7635   0.353   2.404  10.705  0.8166 -3.2481  2.4220
   82SAPS   O21 7636   0.179   2.522  10.705 -0.0182 -0.2862  0.1852
   82SAPS   C21 7637   0.243   2.620  10.649 -0.8423 -0.1613 -0.6519
   82SAPS   O22 7638   0.365   2.621  10.630  0.0172 -0.2043 -1.0251
   82SAPS   C22 7639   0.133   2.691  10.575 -0.5424  0.0242 -0.5312
   82SAPS   H2R 7640   0.066   2.743  10.646  1.8486 -0.4170  2.2363
   82SAPS   H2S 7641   0.188   2.774  10.526  1.9407 -2.3495 -2.0486
   82SAPS    C3 7642   0.165   2.284  10.739  0.2012 -0.5761  0.9486
   82SAPS    HX 7643   0.077   2.298  10.805 -0.5236  0.5576 -0.2165
   82SAPS    HY 7644   0.226   2.196  10.771 -0.9066 -0.3674  3.8657
   82SAPS   O31 7645   0.132   2.261  10.599 -0.6862  0.0394 -1.1293
   82SAPS   C31 7646   0.058   2.153  10.579  0.5154 -0.1883  0.1420
   82SAPS   O32 7647   0.028   2.072  10.660 -0.1929 -0.2912 -1.0505
   82SAPS   C32 7648   0.025   2.142  10.431 -0.1486 -0.1824 -0.0514
   82SAPS   H2X 7649   0.031   2.034  10.409  0.3397  0.5357 -4.1839
   82SAPS   H2Y 7650   0.116   2.190  10.387  0.4512 -0.4154  0.8921
   82SAPS   C23 7651   0.059   2.604  10.473 -0.1332 -0.0776  0.2286
   82SAPS   H3R 7652  -0.009   2.673  10.418 -2.8677 -2.3676  0.5173
   82SAPS   H3S 7653  -0.002   2.524  10.521  0.9096 -0.6023  0.7111
   82SAPS   C24 7654   0.143   2.531  10.369  0.9593 -0.5602 -0.9077
   82SAPS   H4R 7655   0.081   2.461  10.309 -1.2225  0.4712  0.0558
   82SAPS   H4S 7656   0.208   2.460  10.426 -1.8992 -1.5784  1.3325
   82SAPS   C25 7657   0.229   2.627  10.288 -0.1326  0.3840 -0.4155
   82SAPS   H5R 7658   0.316   2.675  10.336  1.8104 -2.0455 -1.2865
   82SAPS   C26 7659   0.219   2.661  10.162 -0.6400  0.0784 -0.9737
   82SAPS   H6R 7660   0.303   2.721  10.123 -0.1393 -0.4502 -0.7241
   82SAPS   C27 7661   0.133   2.610  10.052 -0.0429 -0.5428 -0.6062
   82SAPS   H7R 7662   0.069   2.534  10.103  1.3747 -1.7015 -0.4810
   82SAPS   H7S 7663   0.204   2.561   9.983  2.8330  0.9991  1.0821
   82SAPS   C28 7664   0.056   2.720   9.981 -0.2822 -0.5250 -0.2670
   82SAPS   H8R 7665   0.009   2.798  10.043  1.1633  0.9415 -0.9506
   82SAPS   C29 7666   0.043   2.737   9.848 -0.3451  0.2148 -0.1801
   82SAPS   H9R 7667  -0.016   2.822   9.812  1.0880  0.2973 -2.4883
   82SAPS  C210 7668   0.105   2.654   9.742 -0.4564  0.4044 -0.1083
   82SAPS  H10R 7669   0.024   2.646   9.666  0.9559  0.0498 -1.6224
   82SAPS  H10S 7670   0.106   2.549   9.778  1.5220  0.1058 -0.9221
   82SAPS  C211 7671   0.236   2.702   9.688 -0.7076 -0.0229  0.1284
   82SAPS  H11R 7672   0.314   2.715   9.764  0.3097  0.7336 -0.9927
   82SAPS  C212 7673   0.258   2.738   9.556 -0.1184  0.3694  0.5899
   82SAPS  H12R 7674   0.357   2.773   9.524  0.3889 -0.9451  0.6763
   82SAPS  C213 7675   0.163   2.726   9.439  0.2041  0.7286  0.5826
   82SAPS  H13R 7676   0.206   2.793   9.361  0.6548  2.0357  1.9093
   82SAPS  H13S 7677   0.069   2.772   9.476  0.3842  0.2022  1.7200
   82SAPS  C214 7678   0.142   2.585   9.393 -0.4989 -0.0807 -0.0054
   82SAPS  H14R 7679   0.167   2.506   9.466 -2.2400 -2.4369 -1.7707
   82SAPS  C215 7680   0.104   2.541   9.271 -0.2085  1.0406  0.0682
   82SAPS  H15R 7681   0.090   2.434   9.250 -0.8733  0.9397  0.9848
   82SAPS  C216 7682   0.068   2.645   9.168 -0.4032  0.0566  0.1277
   82SAPS  H16R 7683   0.048   2.740   9.223  2.9689  0.7067  0.4530
   82SAPS  H16S 7684  -0.028   2.627   9.116  0.4182 -1.7632 -0.8595
   82SAPS  C217 7685   0.173   2.669   9.061  0.7311 -0.5334 -0.3449
   82SAPS  H17R 7686   0.248   2.735   9.110 -0.3557  0.7477 -0.3459
   82SAPS  H17S 7687   0.128   2.725   8.976  2.6503 -1.4413 -2.0500
   82SAPS  C218 7688   0.208   2.530   8.994  0.5600 -0.2128  0.4718
   82SAPS  H18R 7689   0.116   2.469   9.005 -0.2856  0.6593 -1.3252
   82SAPS  H18S 7690   0.284   2.473   9.051 -0.4556  0.4519  2.5909
   82SAPS  C219 7691   0.250   2.544   8.844 -0.3126 -0.2533 -0.0272
   82SAPS  H19R 7692   0.350   2.593   8.839 -0.2976 -0.3104 -0.3111
   82SAPS  H19S 7693   0.178   2.605   8.785  2.4934  1.1381 -2.2186
   82SAPS  C220 7694   0.265   2.410   8.769  0.2029 -0.0865  0.6045
   82SAPS  H20R 7695   0.337   2.348   8.827  0.0998  1.2289  2.1840
   82SAPS  H20S 7696   0.309   2.425   8.667  2.0894 -0.1114  1.3669
   82SAPS  H20T 7697   0.166   2.362   8.756  0.0358  0.6599 -1.1454
   82SAPS   C33 7698  -0.111   2.206  10.407 -0.0577 -0.1006  0.3682
   82SAPS   H3X 7699  -0.116   2.313  10.438 -1.9530  0.7606 -2.5008
   82SAPS   H3Y 7700  -0.184   2.159  10.475  0.8788  2.0457  3.0469
   82SAPS   C34 7701  -0.174   2.197  10.263  0.3254 -0.2300  0.1447
   82SAPS   H4X 7702  -0.278   2.236  10.259  0.8887  1.2227 -1.2113
   82SAPS   H4Y 7703  -0.180   2.086  10.251 -0.1814 -0.5245  2.7137
   82SAPS   C35 7704  -0.097   2.279  10.158  0.6582 -0.3767 -0.2970
   82SAPS   H5X 7705   0.009   2.247  10.161  1.2155  1.4204  0.9761
   82SAPS   H5Y 7706  -0.094   2.386  10.187 -1.9756 -0.1107 -0.7409
   82SAPS   C36 7707  -0.139   2.266  10.009  0.5351  0.8397 -0.1137
   82SAPS   H6X 7708  -0.236   2.320  10.004  0.5545  0.8164 -0.8000
   82SAPS   H6Y 7709  -0.159   2.158   9.995 -0.6108  1.1589 -1.0207
   82SAPS   C37 7710  -0.017   2.295   9.910  0.3093 -0.4224 -0.4656
   82SAPS   H7X 7711   0.064   2.228   9.946 -0.9146 -1.2350  0.8792
   82SAPS   H7Y 7712   0.015   2.402   9.906  1.8392 -0.8374  0.0310
   82SAPS   C38 7713  -0.060   2.246   9.773 -0.4892  0.3447  0.2031
   82SAPS   H8X 7714  -0.124   2.323   9.724 -0.2449  0.7586  0.5341
   82SAPS   H8Y 7715  -0.104   2.144   9.772  1.4164 -0.5302  1.6018
   82SAPS   C39 7716   0.070   2.226   9.689  0.3244 -0.7718  0.7748
   82SAPS   H9X 7717   0.121   2.136   9.731 -1.2116 -1.6343  0.8965
   82SAPS   H9Y 7718   0.131   2.314   9.716  0.2000 -0.8498  1.3313
   82SAPS  C310 7719   0.042   2.216   9.531 -0.0565 -0.5234 -0.1890
   82SAPS  H10X 7720  -0.006   2.310   9.498  1.1011  0.2834  0.3132
   82SAPS  H10Y 7721  -0.035   2.138   9.515 -0.7538 -0.7781  3.4823
   82SAPS  C311 7722   0.169   2.194   9.451 -0.4753 -0.3704  0.4107
   82SAPS  H11X 7723   0.242   2.128   9.502 -0.6558 -1.1102 -0.2702
   82SAPS  H11Y 7724   0.230   2.282   9.421 -0.8785 -0.0421  0.5550
   82SAPS  C312 7725   0.139   2.125   9.310 -0.1767 -0.0517 -0.1081
   82SAPS  H12X 7726   0.057   2.175   9.254  0.7227  0.3598 -1.1026
   82SAPS  H12Y 7727   0.108   2.022   9.336  2.4184 -1.4593 -2.1230
   82SAPS  C313 7728   0.267   2.122   9.220  0.1621  0.6315 -0.3280
   82SAPS  H13X 7729   0.333   2.050   9.273  0.8304  0.5637 -1.2367
   82SAPS  H13Y 7730   0.325   2.217   9.212  1.4602 -0.1089  0.0448
   82SAPS  C314 7731   0.245   2.069   9.074 -0.2263  0.4272  0.2567
   82SAPS  H14X 7732   0.169   2.119   9.010  0.6628 -1.5408 -2.5044
   82SAPS  H14Y 7733   0.214   1.963   9.090 -1.3280  0.9977  2.2486
   82SAPS  C315 7734   0.372   2.063   8.986 -0.2360 -0.0453 -0.2254
   82SAPS  H15X 7735   0.451   2.006   9.040 -1.3927 -1.7409 -0.2422
   82SAPS  H15Y 7736   0.424   2.159   8.965 -0.5064  0.0403 -0.5124
   82SAPS  C316 7737   0.339   2.004   8.846 -0.1495  0.5047 -0.9100
   82SAPS  H16X 7738   0.277   2.072   8.784 -1.4919 -0.0349 -0.2168
   82SAPS  H16Y 7739   0.275   1.916   8.873  0.1770  1.2689  2.8132
   82SAPS  C317 7740   0.461   1.961   8.764 -0.3360 -0.0639 -0.4085
   82SAPS  H17X 7741   0.417   1.886   8.694 -2.7782  1.1436 -0.2395
   82SAPS  H17Y 7742   0.533   1.913   8.833  2.5041  1.3097 -2.2244
   82SAPS  C318 7743   0.539   2.068   8.692 -0.3852  0.0209 -0.5523
   82SAPS  H18X 7744   0.612   2.038   8.614  0.1081  0.2936 -0.1963
   82SAPS  H18Y 7745   0.594   2.128   8.768  0.6270 -1.0497 -0.4287
   82SAPS  H18Z 7746   0.464   2.135   8.645  1.0403 -0.0332 -3.0774
   83SAPS     N 7747   2.950   4.034  10.957  0.6898 -0.5862  0.1026
   83SAPS   HN1 7748   2.944   3.944  10.904  0.4376 -0.3146 -0.3433
   83SAPS   HN2 7749   2.909   4.104  10.892  2.0269  0.6353  0.5319
   83SAPS   HN3 7750   3.051   4.056  10.964  0.6643  0.3321 -1.6743
   83SAPS   C12 7751   2.891   4.046  11.094  0.2867  0.1500 -0.1644
   83SAPS  H12A 7752   2.788   4.016  11.094  0.4260 -0.6022 -2.5469
   83SAPS   C13 7753   2.955   3.956  11.204  0.2271 -0.4343  0.0235
   83SAPS  O13A 7754   3.018   3.857  11.168 -0.4142 -0.1671  0.1665
   83SAPS  O13B 7755   2.940   3.990  11.322  0.0479  0.1572  0.0162
   83SAPS   C11 7756   2.891   4.196  11.135 -0.7779 -0.1682  0.8965
   83SAPS  H11A 7757   2.999   4.222  11.139 -0.5965 -0.7401 -0.0081
   83SAPS  H11B 7758   2.835   4.215  11.229 -0.2692  1.6799  0.8714
   83SAPS     P 7759   2.865   4.425  11.013 -0.3891  0.0889  0.2545
   83SAPS   O13 7760   2.746   4.512  11.001  0.3018 -0.4608  0.3627
   83SAPS   O14 7761   2.951   4.479  11.125 -0.1144  0.9788  0.7973
   83SAPS   O12 7762   2.829   4.275  11.035  0.1077  0.4532 -0.0953
   83SAPS   O11 7763   2.955   4.411  10.878 -0.6398 -0.0600 -0.0247
   83SAPS    C1 7764   2.923   4.485  10.757  0.0361 -0.1358  0.6552
   83SAPS    HA 7765   2.881   4.585  10.783 -1.4800 -1.0762  2.0481
   83SAPS    HB 7766   3.022   4.500  10.708  1.2083 -0.6910  2.7431
   83SAPS    C2 7767   2.817   4.408  10.669 -0.0587 -0.7257 -0.4693
   83SAPS    HS 7768   2.739   4.356  10.728  0.2673 -2.0452 -1.1456
   83SAPS   O21 7769   2.884   4.327  10.574 -0.2694  0.4578  0.1041
   83SAPS   C21 7770   2.909   4.203  10.623 -0.5969 -0.4099 -0.9428
   83SAPS   O22 7771   2.862   4.164  10.732 -0.3346 -0.1094  0.4621
   83SAPS   C22 7772   3.002   4.131  10.524 -0.7176 -0.0418 -0.0833
   83SAPS   H2R 7773   2.955   4.151  10.425 -0.7351 -0.5222 -0.1750
   83SAPS   H2S 7774   3.094   4.192  10.531 -1.7068  1.3692  1.5344
   83SAPS    C3 7775   2.743   4.533  10.600 -0.1457 -0.2025 -0.0456
   83SAPS    HX 7776   2.817   4.586  10.537  0.2213  2.2498  2.2411
   83SAPS    HY 7777   2.714   4.601  10.684  0.2827 -1.7657  1.4278
   83SAPS   O31 7778   2.626   4.485  10.519  0.1683 -0.1165 -0.1535
   83SAPS   C31 7779   2.552   4.589  10.475  0.0483 -0.1844  0.3242
   83SAPS   O32 7780   2.552   4.707  10.516  0.0712  0.0202 -0.1092
   83SAPS   C32 7781   2.485   4.539  10.353 -0.3461 -0.0021 -0.4832
   83SAPS   H2X 7782   2.389   4.593  10.350 -0.5537 -0.3972 -1.1417
   83SAPS   H2Y 7783   2.451   4.435  10.374  0.6065  0.0310  1.4680
   83SAPS   C23 7784   3.014   3.976  10.555  0.0364 -0.5452  0.0196
   83SAPS   H3R 7785   2.912   3.945  10.587 -0.5844  1.8026  0.5688
   83SAPS   H3S 7786   3.096   3.952  10.626  0.3060  1.5622  0.5185
   83SAPS   C24 7787   3.034   3.892  10.430 -0.1872 -0.4579 -0.2178
   83SAPS   H4R 7788   2.937   3.900  10.376 -0.4910 -1.7531  0.1000
   83SAPS   H4S 7789   3.031   3.783  10.455  1.9494 -0.4147  0.3956
   83SAPS   C25 7790   3.162   3.911  10.358 -0.0724 -0.6385 -0.1288
   83SAPS   H5R 7791   3.255   3.883  10.411 -0.5009  0.1796  1.0988
   83SAPS   C26 7792   3.171   3.949  10.231 -0.6432  0.7604  0.4268
   83SAPS   H6R 7793   3.273   3.959  10.191  1.4599 -1.0581  4.7080
   83SAPS   C27 7794   3.044   3.977  10.142 -0.3722 -0.5299 -0.0915
   83SAPS   H7R 7795   3.052   4.074  10.089 -0.8081  0.2610  1.2561
   83SAPS   H7S 7796   2.955   4.002  10.203 -0.1972  0.4971 -0.2501
   83SAPS   C28 7797   3.027   3.869  10.040  0.2704  0.7498 -0.7851
   83SAPS   H8R 7798   2.974   3.784  10.086 -1.1002  0.9405 -1.9223
   83SAPS   C29 7799   3.060   3.871   9.909  0.2616 -0.4379  0.0360
   83SAPS   H9R 7800   3.036   3.778   9.854 -0.4362  0.7347 -1.7390
   83SAPS  C210 7801   3.134   3.976   9.826  0.1511  0.8390 -0.0277
   83SAPS  H10R 7802   3.225   3.932   9.782  0.8291  1.4432  0.7440
   83SAPS  H10S 7803   3.187   4.049   9.890 -1.4404  1.2453  0.8990
   83SAPS  C211 7804   3.035   4.039   9.728  0.0530  0.2847 -0.6034
   83SAPS  H11R 7805   2.983   4.127   9.769  2.7512  0.9478  1.7269
   83SAPS  C212 7806   3.038   4.027   9.597 -0.0417 -0.0722 -0.1934
   83SAPS  H12R 7807   2.958   4.076   9.539 -1.1553 -1.1492  0.3788
   83SAPS  C213 7808   3.122   3.942   9.505  0.0990  0.5478  1.1517
   83SAPS  H13R 7809   3.070   3.846   9.483 -2.9952  2.5715 -1.1641
   83SAPS  H13S 7810   3.223   3.918   9.545  0.2028 -0.5722  0.2799
   83SAPS  C214 7811   3.145   4.020   9.375 -0.8468  0.2249  0.2534
   83SAPS  H14R 7812   3.241   4.071   9.360 -1.0208  1.3271  2.5221
   83SAPS  C215 7813   3.069   4.011   9.267 -0.1059  0.1391  0.3575
   83SAPS  H15R 7814   3.104   4.057   9.174 -1.3595 -0.6849 -0.5597
   83SAPS  C216 7815   2.940   3.933   9.254 -0.2823 -0.2587 -0.4612
   83SAPS  H16R 7816   2.888   3.927   9.352 -0.7736 -0.1108 -0.7093
   83SAPS  H16S 7817   2.959   3.831   9.215 -0.7713 -0.6065  0.1987
   83SAPS  C217 7818   2.820   3.992   9.176  0.2899  0.0881 -0.0315
   83SAPS  H17R 7819   2.786   4.089   9.218  1.6241  0.5189  0.1194
   83SAPS  H17S 7820   2.739   3.916   9.175  1.2389 -0.9612 -1.2396
   83SAPS  C218 7821   2.851   4.010   9.022  0.2728 -0.4626  0.2088
   83SAPS  H18R 7822   2.921   3.930   8.989 -1.5546 -1.4254 -1.5531
   83SAPS  H18S 7823   2.911   4.103   9.013 -1.3411  0.5566 -0.5909
   83SAPS  C219 7824   2.718   4.010   8.945 -0.1315 -0.1267  0.1184
   83SAPS  H19R 7825   2.636   4.065   8.997 -0.1765 -0.4188  0.3614
   83SAPS  H19S 7826   2.680   3.906   8.931 -0.2409 -0.6268  3.3395
   83SAPS  C220 7827   2.730   4.075   8.806  0.9366  0.5028 -0.4195
   83SAPS  H20R 7828   2.834   4.055   8.772  1.7258  1.3719  1.3531
   83SAPS  H20S 7829   2.717   4.186   8.801  1.3958  0.5749 -0.1323
   83SAPS  H20T 7830   2.662   4.019   8.739  3.1670 -1.8294 -0.8868
   83SAPS   C33 7831   2.544   4.571  10.209 -0.8499  0.1210 -0.6306
   83SAPS   H3X 7832   2.650   4.539  10.217 -1.2035 -1.2321 -1.0355
   83SAPS   H3Y 7833   2.540   4.680  10.188 -1.8185 -0.1213 -1.8454
   83SAPS   C34 7834   2.467   4.500  10.102 -0.0660 -0.1005  0.2477
   83SAPS   H4X 7835   2.373   4.557  10.086  0.4247  0.6151 -0.1388
   83SAPS   H4Y 7836   2.436   4.398  10.134 -0.1106 -0.6015 -1.3371
   83SAPS   C35 7837   2.546   4.502   9.968  0.4605 -0.1489 -0.0053
   83SAPS   H5X 7838   2.639   4.441   9.972  2.5963  2.8375  0.0278
   83SAPS   H5Y 7839   2.572   4.607   9.941  1.1382 -0.0506  0.9712
   83SAPS   C36 7840   2.472   4.435   9.850 -0.6208 -0.3624 -0.6393
   83SAPS   H6X 7841   2.411   4.350   9.889  1.5162 -1.2821  0.9352
   83SAPS   H6Y 7842   2.549   4.395   9.781 -1.2161 -1.5864 -0.6267
   83SAPS   C37 7843   2.403   4.555   9.778  0.3590 -0.7920  0.2178
   83SAPS   H7X 7844   2.477   4.634   9.753 -2.3127  1.1692 -2.0057
   83SAPS   H7Y 7845   2.329   4.607   9.841  2.1972  0.5111  1.4150
   83SAPS   C38 7846   2.345   4.505   9.652 -0.4941 -0.0536  0.1879
   83SAPS   H8X 7847   2.267   4.429   9.669 -0.1851 -1.0872 -2.4346
   83SAPS   H8Y 7848   2.422   4.458   9.586 -0.9566  0.8870 -1.0734
   83SAPS   C39 7849   2.283   4.622   9.569 -0.1715  0.7817  0.3890
   83SAPS   H9X 7850   2.353   4.702   9.539 -2.6476  3.0628  0.3491
   83SAPS   H9Y 7851   2.200   4.664   9.630 -1.8543  1.0098 -1.9410
   83SAPS  C310 7852   2.212   4.564   9.446 -0.8800 -0.0593 -0.5151
   83SAPS  H10X 7853   2.164   4.466   9.469  0.1242 -0.3851  0.2228
   83SAPS  H10Y 7854   2.279   4.548   9.359 -1.0815 -0.1114 -0.6617
   83SAPS  C311 7855   2.103   4.655   9.403  0.5237 -0.5333  0.0113
   83SAPS  H11X 7856   2.035   4.655   9.492 -0.6919 -2.1656 -0.8728
   83SAPS  H11Y 7857   2.030   4.603   9.338 -1.8460 -0.1341  2.1990
   83SAPS  C312 7858   2.126   4.797   9.346 -0.4217  0.6154 -1.2857
   83SAPS  H12X 7859   2.194   4.853   9.414 -3.4116  1.3665  1.3437
   83SAPS  H12Y 7860   2.033   4.857   9.355  0.5593  1.9422  0.8532
   83SAPS  C313 7861   2.164   4.799   9.201 -0.3609 -1.1488  0.4121
   83SAPS  H13X 7862   2.093   4.733   9.147 -1.4647 -0.0651  0.4929
   83SAPS  H13Y 7863   2.263   4.751   9.190 -0.5987 -1.9064  1.3897
   83SAPS  C314 7864   2.164   4.943   9.143  0.4453 -0.0776 -0.3202
   83SAPS  H14X 7865   2.247   4.995   9.196  1.1956 -0.3615 -1.1933
   83SAPS  H14Y 7866   2.073   5.001   9.168  1.1617  0.7652  0.3779
   83SAPS  C315 7867   2.189   4.939   8.991 -0.2518  0.4057 -0.2712
   83SAPS  H15X 7868   2.104   4.890   8.940 -0.8341  1.4832 -0.3586
   83SAPS  H15Y 7869   2.285   4.887   8.971 -0.6056 -1.3540  2.1407
   83SAPS  C316 7870   2.208   5.079   8.921  0.8650 -0.2761  0.2255
   83SAPS  H16X 7871   2.285   5.137   8.977  0.4767  0.3540  0.1193
   83SAPS  H16Y 7872   2.108   5.125   8.930  1.1040 -0.0885  2.4459
   83SAPS  C317 7873   2.255   5.071   8.775 -0.2949 -0.0471  1.0138
   83SAPS  H17X 7874   2.351   5.016   8.775 -0.8057 -1.0667 -1.0295
   83SAPS  H17Y 7875   2.278   5.174   8.742 -1.1263  1.1583  3.9105
   83SAPS  C318 7876   2.159   4.998   8.675 -0.1868 -0.3575 -0.1038
   83SAPS  H18X 7877   2.064   5.056   8.667  0.1255  0.1174 -0.4834
   83SAPS  H18Y 7878   2.150   4.891   8.703  0.1687 -0.3022  0.2277
   83SAPS  H18Z 7879   2.201   5.003   8.572  0.1518  3.0927  0.0695
   84SAPS     N 7880   2.506   3.297  11.390  0.0607 -0.1417  1.3213
   84SAPS   HN1 7881   2.495   3.201  11.349 -0.5004  0.9601 -1.3283
   84SAPS   HN2 7882   2.432   3.307  11.462 -1.5223 -0.3715 -0.2085
   84SAPS   HN3 7883   2.480   3.366  11.316 -1.7501 -1.7176  0.3818
   84SAPS   C12 7884   2.644   3.303  11.446 -0.0080 -0.7377 -0.2113
   84SAPS  H12A 7885   2.647   3.384  11.518 -0.3974 -2.2938  1.6239
   84SAPS   C13 7886   2.673   3.187  11.533 -0.6793 -0.0014 -0.7280
   84SAPS  O13A 7887   2.589   3.092  11.553 -0.1603 -0.2379 -0.4158
   84SAPS  O13B 7888   2.791   3.177  11.579 -0.1268 -0.5020  0.5494
   84SAPS   C11 7889   2.748   3.318  11.333  0.6449 -0.1262 -0.0496
   84SAPS  H11A 7890   2.728   3.242  11.255 -0.9353 -0.8090  0.9712
   84SAPS  H11B 7891   2.846   3.277  11.365 -0.3782 -1.7372  1.1226
   84SAPS     P 7892   2.781   3.485  11.131 -0.0526  0.1821 -0.6392
   84SAPS   O13 7893   2.747   3.622  11.102 -0.4006 -0.0156  0.2431
   84SAPS   O14 7894   2.922   3.452  11.118 -0.3738  0.7252 -0.1392
   84SAPS   O12 7895   2.742   3.452  11.288  0.0007 -0.3020  0.0784
   84SAPS   O11 7896   2.695   3.395  11.037 -0.5288 -0.0502  0.1372
   84SAPS    C1 7897   2.736   3.274  10.971  0.4080  0.2537 -0.4943
   84SAPS    HA 7898   2.796   3.213  11.041 -0.1076  0.8862  0.5247
   84SAPS    HB 7899   2.642   3.220  10.949  0.6911 -1.1164  1.4499
   84SAPS    C2 7900   2.810   3.306  10.841  0.1188  0.2489 -0.3293
   84SAPS    HS 7901   2.903   3.356  10.873 -0.3256  0.3063  0.9257
   84SAPS   O21 7902   2.723   3.388  10.767 -1.1090  0.0672  0.1847
   84SAPS   C21 7903   2.779   3.481  10.696  0.7717  0.4432 -0.4320
   84SAPS   O22 7904   2.893   3.516  10.712 -0.9274  0.4976 -0.0984
   84SAPS   C22 7905   2.669   3.530  10.601 -0.7912 -0.1692  0.1719
   84SAPS   H2R 7906   2.609   3.443  10.565 -0.3717  0.1346 -1.2821
   84SAPS   H2S 7907   2.598   3.593  10.659 -1.4490  1.0880 -1.9013
   84SAPS    C3 7908   2.855   3.182  10.756  0.1795  0.4010  0.2295
   84SAPS    HX 7909   2.762   3.135  10.717  0.0472  0.9623 -0.1411
   84SAPS    HY 7910   2.903   3.107  10.823 -0.4237  0.2396  0.4916
   84SAPS   O31 7911   2.934   3.208  10.643  0.5747  0.3219  0.1178
   84SAPS   C31 7912   3.048   3.256  10.652  0.1426 -0.3495  0.1392
   84SAPS   O32 7913   3.114   3.267  10.753  0.4391  0.2316  0.0254
   84SAPS   C32 7914   3.096   3.273  10.508 -0.5036  0.3929 -0.0122
   84SAPS   H2X 7915   3.083   3.173  10.461  1.6821 -0.0021  0.0787
   84SAPS   H2Y 7916   3.206   3.290  10.515 -0.3251 -0.2908 -0.8774
   84SAPS   C23 7917   2.736   3.621  10.492 -0.2308  0.4817 -0.3623
   84SAPS   H3R 7918   2.822   3.563  10.452 -0.0132  0.7121 -0.2324
   84SAPS   H3S 7919   2.780   3.712  10.539  0.8548  0.4694 -1.3079
   84SAPS   C24 7920   2.634   3.660  10.384  0.1725  0.2501 -0.0789
   84SAPS   H4R 7921   2.684   3.734  10.317  0.5755  0.0807  0.0347
   84SAPS   H4S 7922   2.540   3.711  10.416  0.7333  0.2840  1.5773
   84SAPS   C25 7923   2.584   3.531  10.320 -0.2609  0.1211  0.6319
   84SAPS   H5R 7924   2.488   3.496  10.362 -0.4962  0.8392  0.7173
   84SAPS   C26 7925   2.637   3.462  10.218 -0.6866 -0.0444  0.2761
   84SAPS   H6R 7926   2.595   3.364  10.192  2.1884 -1.2590 -0.2668
   84SAPS   C27 7927   2.754   3.507  10.142  0.1090  0.3739  0.1841
   84SAPS   H7R 7928   2.792   3.418  10.088 -0.7325 -0.4145  0.8443
   84SAPS   H7S 7929   2.834   3.534  10.214  1.6712 -3.4685  0.1396
   84SAPS   C28 7930   2.727   3.629  10.049 -0.3940 -0.1691 -0.4506
   84SAPS   H8R 7931   2.668   3.713  10.089  0.7756 -0.4082  1.9562
   84SAPS   C29 7932   2.774   3.644   9.922  0.1054  0.3383  0.9107
   84SAPS   H9R 7933   2.746   3.736   9.868  0.0035 -0.0751  0.2434
   84SAPS  C210 7934   2.858   3.540   9.847 -0.3341 -0.4822  0.0809
   84SAPS  H10R 7935   2.912   3.475   9.920 -0.1353  0.7839  1.0970
   84SAPS  H10S 7936   2.941   3.586   9.791  0.3677 -2.0839 -0.2647
   84SAPS  C211 7937   2.777   3.455   9.755  0.1093  0.3587  0.1450
   84SAPS  H11R 7938   2.695   3.406   9.809 -0.3837 -0.6653 -1.4754
   84SAPS  C212 7939   2.792   3.440   9.619  0.1862  0.1617  0.1725
   84SAPS  H12R 7940   2.723   3.371   9.570  1.0979 -2.1630  1.9793
   84SAPS  C213 7941   2.900   3.495   9.528 -0.0063 -0.1567 -0.6510
   84SAPS  H13R 7942   2.970   3.415   9.494  0.3070 -0.8221  1.4060
   84SAPS  H13S 7943   2.969   3.564   9.581  1.1514 -0.7603 -1.3320
   84SAPS  C214 7944   2.843   3.572   9.408  0.4843  0.6876 -0.4405
   84SAPS  H14R 7945   2.755   3.636   9.424  1.0116  1.2125  0.4646
   84SAPS  C215 7946   2.887   3.562   9.281  0.0308  0.3051 -0.7850
   84SAPS  H15R 7947   2.829   3.622   9.209 -0.7975 -0.5138 -0.8227
   84SAPS  C216 7948   3.002   3.485   9.220  0.0958 -0.4208  0.2352
   84SAPS  H16R 7949   3.058   3.428   9.297  0.9424  0.8131  0.5551
   84SAPS  H16S 7950   3.065   3.566   9.177 -1.4460  1.5912  1.5966
   84SAPS  C217 7951   2.967   3.387   9.123 -0.3414 -0.0375  0.0005
   84SAPS  H17R 7952   2.902   3.432   9.045 -1.3857  1.6377  1.7538
   84SAPS  H17S 7953   2.911   3.304   9.173 -1.6832  1.6645  1.4572
   84SAPS  C218 7954   3.090   3.332   9.044 -0.7426  0.5271  0.7293
   84SAPS  H18R 7955   3.074   3.227   9.011 -0.3498  0.9559 -0.9459
   84SAPS  H18S 7956   3.191   3.330   9.091  0.1577  1.0804 -1.0902
   84SAPS  C219 7957   3.120   3.419   8.923 -0.0928  0.0002  0.5590
   84SAPS  H19R 7958   3.136   3.528   8.939  1.1061  0.1189 -1.1482
   84SAPS  H19S 7959   3.034   3.412   8.852  2.1049 -1.6849 -2.1770
   84SAPS  C220 7960   3.237   3.362   8.852  0.6346 -0.0666  0.5623
   84SAPS  H20R 7961   3.328   3.364   8.915  0.8758 -0.8663  0.2529
   84SAPS  H20S 7962   3.254   3.421   8.760 -1.7522  1.8132  1.2080
   84SAPS  H20T 7963   3.212   3.260   8.814 -0.9548  0.7256 -0.6357
   84SAPS   C33 7964   3.036   3.390  10.432  0.4243 -0.0271 -0.5946
   84SAPS   H3X 7965   3.049   3.481  10.494 -2.2983  0.9151 -1.2697
   84SAPS   H3Y 7966   2.929   3.360  10.424 -0.1179  0.2661  3.3961
   84SAPS   C34 7967   3.100   3.421  10.297 -0.1993 -0.3322  0.3613
   84SAPS   H4X 7968   3.203   3.459  10.317  0.4908 -2.6568  1.6515
   84SAPS   H4Y 7969   3.040   3.498  10.246  0.3979 -0.6945 -0.9328
   84SAPS   C35 7970   3.108   3.300  10.202  0.0356  1.1171  0.0223
   84SAPS   H5X 7971   3.006   3.258  10.212 -0.3259  1.7657 -0.8987
   84SAPS   H5Y 7972   3.183   3.230  10.247 -0.4863  0.9091  0.5824
   84SAPS   C36 7973   3.133   3.329  10.053  0.7623 -0.0723  0.6318
   84SAPS   H6X 7974   3.163   3.435  10.034  0.6221 -0.2887 -0.8783
   84SAPS   H6Y 7975   3.036   3.309  10.005  0.7201  0.3811  0.5195
   84SAPS   C37 7976   3.242   3.234   9.991 -0.1601  0.3204  0.3374
   84SAPS   H7X 7977   3.329   3.234  10.060 -1.3115 -1.8643  1.8985
   84SAPS   H7Y 7978   3.271   3.284   9.896  0.9938 -1.5204 -0.3255
   84SAPS   C38 7979   3.195   3.092   9.952  0.4495 -0.2586 -0.5880
   84SAPS   H8X 7980   3.098   3.103   9.899 -0.1665  0.2962  0.6293
   84SAPS   H8Y 7981   3.179   3.030  10.042 -1.8223  0.0349 -0.7222
   84SAPS   C39 7982   3.300   3.030   9.856  0.2341  0.2703 -0.2879
   84SAPS   H9X 7983   3.401   3.025   9.901  1.0128  1.1547 -1.8470
   84SAPS   H9Y 7984   3.310   3.096   9.767  0.8655 -0.3995 -0.7272
   84SAPS  C310 7985   3.256   2.889   9.797 -0.1670 -0.0293 -0.1972
   84SAPS  H10X 7986   3.145   2.886   9.794 -0.1840  0.1493  0.2522
   84SAPS  H10Y 7987   3.287   2.813   9.872 -0.0470 -1.7567 -1.9156
   84SAPS  C311 7988   3.329   2.863   9.666 -0.7444  0.0524 -0.1793
   84SAPS  H11X 7989   3.330   2.954   9.602  1.4018 -1.1213 -1.9374
   84SAPS  H11Y 7990   3.293   2.771   9.616  1.4450 -1.4932  0.9233
   84SAPS  C312 7991   3.483   2.855   9.693  0.6413 -0.4056 -0.5583
   84SAPS  H12X 7992   3.491   2.766   9.760  2.1567 -1.8303 -2.4932
   84SAPS  H12Y 7993   3.518   2.949   9.741 -0.8189 -0.4286  0.6151
   84SAPS  C313 7994   3.576   2.840   9.572  1.0166 -0.0353 -0.2346
   84SAPS  H13X 7995   3.676   2.809   9.610  2.4141  1.6495 -2.2572
   84SAPS  H13Y 7996   3.603   2.933   9.518 -0.3505  0.4598 -0.0880
   84SAPS  C314 7997   3.528   2.742   9.472 -0.1310 -0.4244 -0.3040
   84SAPS  H14X 7998   3.490   2.795   9.382  0.9962  0.2766 -0.3873
   84SAPS  H14Y 7999   3.450   2.675   9.512  0.0393  0.7077  2.1281
   84SAPS  C315 8000   3.649   2.654   9.424 -0.1984 -0.4883  0.0365
   84SAPS  H15X 8001   3.594   2.591   9.350 -0.2547 -1.0475  0.5483
   84SAPS  H15Y 8002   3.697   2.594   9.504  0.0620 -0.3623 -0.0241
   84SAPS  C316 8003   3.751   2.740   9.342  0.1757 -0.0615  0.1300
   84SAPS  H16X 8004   3.799   2.821   9.400  0.8423  0.2488 -0.8180
   84SAPS  H16Y 8005   3.703   2.782   9.250  2.1224 -0.7769 -1.2770
   84SAPS  C317 8006   3.872   2.653   9.285  0.1224  0.6664 -0.1895
   84SAPS  H17X 8007   3.948   2.707   9.225  1.6627 -1.1889 -0.0022
   84SAPS  H17Y 8008   3.824   2.583   9.214 -0.0889  2.0658 -1.4882
   84SAPS  C318 8009   3.948   2.582   9.396 -0.6096  0.3080 -0.1979
   84SAPS  H18X 8010   3.888   2.510   9.455 -0.2506  1.0669  1.1609
   84SAPS  H18Y 8011   3.988   2.649   9.476 -0.5231 -0.5934  0.5432
   84SAPS  H18Z 8012   4.033   2.525   9.354  0.6615  2.4397 -0.6909
   85SAPS     N 8013   0.278   4.831  11.205 -0.6144 -0.0386  0.7521
   85SAPS   HN1 8014   0.248   4.734  11.183  0.7930 -0.1326 -0.9649
   85SAPS   HN2 8015   0.276   4.835  11.309  0.2094  0.5970  0.7481
   85SAPS   HN3 8016   0.214   4.900  11.160  2.5705  1.5469 -1.7795
   85SAPS   C12 8017   0.423   4.832  11.167  0.3347  0.1315 -0.3996
   85SAPS  H12A 8018   0.440   4.880  11.071 -0.8722 -1.6137 -1.5476
   85SAPS   C13 8019   0.524   4.900  11.263 -0.8362  0.3168  0.3848
   85SAPS  O13A 8020   0.485   4.939  11.372 -0.0828 -0.1376  0.0242
   85SAPS  O13B 8021   0.648   4.902  11.228  0.4705 -0.3894  0.3714
   85SAPS   C11 8022   0.464   4.685  11.159  0.5390 -0.0937 -0.2835
   85SAPS  H11A 8023   0.445   4.637  11.257 -1.5878 -0.1193 -0.6555
   85SAPS  H11B 8024   0.566   4.682  11.114 -0.3950  0.2369 -2.5706
   85SAPS     P 8025   0.385   4.639  10.914  0.2174 -0.1831 -0.1560
   85SAPS   O13 8026   0.297   4.529  10.866 -0.2644  0.0223  0.3218
   85SAPS   O14 8027   0.354   4.780  10.871 -0.3442  0.3558 -0.5298
   85SAPS   O12 8028   0.378   4.620  11.064  0.1890 -0.1493 -0.6243
   85SAPS   O11 8029   0.534   4.602  10.878 -0.2355 -0.3700  0.2855
   85SAPS    C1 8030   0.612   4.704  10.808 -0.1207  0.1707  0.3575
   85SAPS    HA 8031   0.607   4.804  10.858  2.9029  1.3252 -1.3985
   85SAPS    HB 8032   0.719   4.675  10.805 -0.3714 -0.7040 -0.4502
   85SAPS    C2 8033   0.584   4.724  10.657  0.0512 -0.2060  0.1040
   85SAPS    HS 8034   0.474   4.739  10.652 -0.2300 -1.7362  1.1905
   85SAPS   O21 8035   0.620   4.598  10.580 -0.3205 -0.2339 -0.0847
   85SAPS   C21 8036   0.517   4.512  10.562  0.0345 -0.5839 -0.5129
   85SAPS   O22 8037   0.406   4.526  10.609  0.3323 -0.2039 -0.2752
   85SAPS   C22 8038   0.544   4.411  10.455  0.5721 -0.4143  0.7029
   85SAPS   H2R 8039   0.578   4.318  10.506  1.2332  0.9555  2.8877
   85SAPS   H2S 8040   0.448   4.386  10.405  1.4026  1.2398 -1.9269
   85SAPS    C3 8041   0.661   4.853  10.599 -0.1153  0.1465 -0.4555
   85SAPS    HX 8042   0.770   4.835  10.616 -0.7186 -2.4149  1.2039
   85SAPS    HY 8043   0.650   4.942  10.665  0.5648 -0.5244  0.5901
   85SAPS   O31 8044   0.639   4.884  10.459 -0.1107 -0.1973  0.1840
   85SAPS   C31 8045   0.521   4.937  10.431  0.6569  0.7935 -0.1872
   85SAPS   O32 8046   0.439   4.975  10.511  0.3816 -0.1175  0.2001
   85SAPS   C32 8047   0.490   4.932  10.279  0.4563 -0.4393  0.2471
   85SAPS   H2X 8048   0.560   4.859  10.234  1.4065  2.1588 -2.9092
   85SAPS   H2Y 8049   0.525   5.031  10.242 -1.0845  0.4101  0.9857
   85SAPS   C23 8050   0.653   4.443  10.346  0.3186 -0.8697 -0.3522
   85SAPS   H3R 8051   0.679   4.354  10.285  4.8368 -0.5257  0.7286
   85SAPS   H3S 8052   0.746   4.459  10.405 -1.5549 -1.5898  3.1305
   85SAPS   C24 8053   0.628   4.567  10.261  0.2284  0.6101  0.6425
   85SAPS   H4R 8054   0.578   4.646  10.321 -1.3992 -1.0488  1.5566
   85SAPS   H4S 8055   0.545   4.531  10.197  0.0060  0.4167  1.0342
   85SAPS   C25 8056   0.742   4.621  10.177 -0.1690 -1.0537 -0.5412
   85SAPS   H5R 8057   0.822   4.669  10.235 -0.2565 -0.1189 -1.1755
   85SAPS   C26 8058   0.746   4.623  10.047  0.1875 -0.1250  0.4533
   85SAPS   H6R 8059   0.842   4.655  10.003  1.3889  0.1548  3.0929
   85SAPS   C27 8060   0.646   4.570   9.949  0.0569  0.3457  0.1082
   85SAPS   H7R 8061   0.663   4.613   9.849 -0.4579  1.1941  0.3800
   85SAPS   H7S 8062   0.547   4.605   9.984  0.7615 -0.1969  2.9022
   85SAPS   C28 8063   0.646   4.414   9.943 -0.5524 -0.1330  0.3402
   85SAPS   H8R 8064   0.634   4.368  10.042 -0.1025 -0.2728  0.3326
   85SAPS   C29 8065   0.682   4.345   9.833  0.0359 -0.2298 -0.2885
   85SAPS   H9R 8066   0.697   4.236   9.846  1.4850  0.0878  1.1134
   85SAPS  C210 8067   0.706   4.405   9.697  0.0715 -0.0910  0.6722
   85SAPS  H10R 8068   0.752   4.320   9.644  1.0470  1.2771 -0.7699
   85SAPS  H10S 8069   0.784   4.484   9.698  0.6651 -0.6787  1.7153
   85SAPS  C211 8070   0.597   4.467   9.617  0.0882 -0.2355 -0.7896
   85SAPS  H11R 8071   0.506   4.492   9.673  0.0254 -1.5178 -0.3012
   85SAPS  C212 8072   0.593   4.503   9.489 -0.2125 -0.0970 -0.1485
   85SAPS  H12R 8073   0.497   4.544   9.454 -1.3286  0.4927  3.2175
   85SAPS  C213 8074   0.704   4.489   9.386  0.7007  0.7887 -0.1971
   85SAPS  H13R 8075   0.799   4.503   9.440  0.8635 -0.9601  0.0096
   85SAPS  H13S 8076   0.706   4.583   9.326 -0.3194  1.3279  0.5855
   85SAPS  C214 8077   0.680   4.364   9.309 -0.3221 -0.4865  0.0603
   85SAPS  H14R 8078   0.729   4.278   9.358 -1.2700 -0.9997  0.1264
   85SAPS  C215 8079   0.617   4.357   9.188 -0.1725  0.3133 -0.0571
   85SAPS  H15R 8080   0.594   4.259   9.143  0.4350  0.3005 -0.3513
   85SAPS  C216 8081   0.582   4.481   9.118  0.5102 -0.4312  0.3741
   85SAPS  H16R 8082   0.654   4.564   9.133  2.5477 -2.1185  0.3847
   85SAPS  H16S 8083   0.474   4.506   9.129 -0.2438 -1.6629 -2.9497
   85SAPS  C217 8084   0.597   4.461   8.962  0.4683 -0.6758 -0.2899
   85SAPS  H17R 8085   0.571   4.560   8.919 -0.3952 -1.2075 -1.0429
   85SAPS  H17S 8086   0.529   4.385   8.918  1.5687 -0.6865 -2.0670
   85SAPS  C218 8087   0.738   4.444   8.905  0.4179  0.4696 -0.4021
   85SAPS  H18R 8088   0.753   4.335   8.892  2.4317  0.6706 -0.1468
   85SAPS  H18S 8089   0.811   4.490   8.975 -1.2943  2.2558  0.3169
   85SAPS  C219 8090   0.743   4.502   8.764 -0.4502  0.1423 -0.0175
   85SAPS  H19R 8091   0.713   4.608   8.752 -0.0782  0.1298 -1.2693
   85SAPS  H19S 8092   0.662   4.449   8.709 -1.9191  1.3976  0.8497
   85SAPS  C220 8093   0.881   4.483   8.708  0.3484  0.5246 -0.5495
   85SAPS  H20R 8094   0.913   4.378   8.723 -1.2029 -0.3592 -2.9818
   85SAPS  H20S 8095   0.946   4.557   8.760 -1.1422  2.0055 -0.6885
   85SAPS  H20T 8096   0.875   4.506   8.600 -1.7500  1.8179 -0.2312
   85SAPS   C33 8097   0.341   4.890  10.248  0.4041  0.6239 -0.1694
   85SAPS   H3X 8098   0.262   4.959  10.284  0.6909  0.3410  1.0275
   85SAPS   H3Y 8099   0.326   4.789  10.292 -1.3011  1.1124  0.4694
   85SAPS   C34 8100   0.332   4.877  10.089  0.4467 -0.3988 -0.1693
   85SAPS   H4X 8101   0.230   4.845  10.060  0.7125 -1.0483 -0.3945
   85SAPS   H4Y 8102   0.404   4.798  10.059 -0.4272 -1.0905 -0.4946
   85SAPS   C35 8103   0.359   5.012  10.012 -0.0909  0.1206  0.3378
   85SAPS   H5X 8104   0.467   5.037  10.024 -0.5210  1.9380  0.6627
   85SAPS   H5Y 8105   0.298   5.086  10.068 -1.4487 -2.3163  2.3022
   85SAPS   C36 8106   0.297   5.021   9.871  0.0060 -0.1676  0.2092
   85SAPS   H6X 8107   0.282   5.128   9.845  0.6240 -0.7173 -2.8575
   85SAPS   H6Y 8108   0.198   4.972   9.871  1.1408 -2.6452 -0.1525
   85SAPS   C37 8109   0.379   4.954   9.763  0.1583 -0.4172  0.2956
   85SAPS   H7X 8110   0.385   4.844   9.776 -1.0121 -0.6186 -0.6384
   85SAPS   H7Y 8111   0.480   4.999   9.746  1.0165 -2.5476 -0.6105
   85SAPS   C38 8112   0.300   4.982   9.634  0.2382  0.1314  0.3062
   85SAPS   H8X 8113   0.315   5.092   9.629  0.1156  0.3111  2.6609
   85SAPS   H8Y 8114   0.196   4.946   9.648 -1.0109  2.8269 -1.2776
   85SAPS   C39 8115   0.346   4.919   9.501  0.3569  0.2876 -0.3124
   85SAPS   H9X 8116   0.350   4.808   9.506  0.0981  0.3439  2.0125
   85SAPS   H9Y 8117   0.455   4.943   9.495  0.3273  0.6452  0.5380
   85SAPS  C310 8118   0.260   4.964   9.389 -0.3007  0.1063  0.5894
   85SAPS  H10X 8119   0.240   5.073   9.385 -1.8267 -0.1850 -0.5898
   85SAPS  H10Y 8120   0.165   4.908   9.400 -0.0416 -0.8854 -1.6668
   85SAPS  C311 8121   0.311   4.914   9.251  0.8571  0.7350  0.3755
   85SAPS  H11X 8122   0.235   4.936   9.173 -1.1521  0.3826  2.1675
   85SAPS  H11Y 8123   0.322   4.804   9.252  1.7148  0.7977 -0.2438
   85SAPS  C312 8124   0.445   4.958   9.201  1.4084  0.5315 -0.3025
   85SAPS  H12X 8125   0.521   4.905   9.263  1.0352 -0.4345 -0.6489
   85SAPS  H12Y 8126   0.457   5.066   9.225 -0.7053  0.9905 -1.0330
   85SAPS  C313 8127   0.464   4.919   9.054 -0.1601  0.0698 -0.4521
   85SAPS  H13X 8128   0.372   4.958   9.005  0.7725 -1.8906 -4.0733
   85SAPS  H13Y 8129   0.467   4.808   9.045 -0.6483  0.1940 -2.6123
   85SAPS  C314 8130   0.590   4.965   8.992  0.0073  0.0619  0.3800
   85SAPS  H14X 8131   0.673   4.958   9.065  1.7136  1.4880 -1.3316
   85SAPS  H14Y 8132   0.584   5.075   8.974 -0.0955 -0.1803 -1.2449
   85SAPS  C315 8133   0.617   4.894   8.859  0.5210  0.2252 -0.0268
   85SAPS  H15X 8134   0.602   4.784   8.870  2.2460 -0.3947 -2.7261
   85SAPS  H15Y 8135   0.728   4.899   8.853  0.8687 -3.9185  0.2615
   85SAPS  C316 8136   0.532   4.944   8.741 -0.2421  0.1701 -0.0109
   85SAPS  H16X 8137   0.596   5.031   8.715  0.3450  0.2873  1.7165
   85SAPS  H16Y 8138   0.431   4.976   8.774 -0.0064 -1.1323  2.1995
   85SAPS  C317 8139   0.546   4.845   8.631 -0.0610  0.1373  0.5675
   85SAPS  H17X 8140   0.499   4.751   8.667  0.6826 -0.2934  0.4309
   85SAPS  H17Y 8141   0.653   4.822   8.613  0.0909  1.0704  0.2667
   85SAPS  C318 8142   0.479   4.892   8.492 -0.4701 -0.9404 -0.5625
   85SAPS  H18X 8143   0.501   4.811   8.420 -0.8904 -0.7782 -0.8812
   85SAPS  H18Y 8144   0.526   4.991   8.476 -1.0832  0.0181  2.7087
   85SAPS  H18Z 8145   0.371   4.914   8.504 -0.3163 -0.2854 -0.3484
   86SAPS     N 8146   3.366   6.152  10.921  0.7303 -0.2054 -0.4255
   86SAPS   HN1 8147   3.426   6.068  10.917 -1.4786 -1.8848 -0.2627
   86SAPS   HN2 8148   3.272   6.145  10.876  0.2713  3.6723 -0.4656
   86SAPS   HN3 8149   3.412   6.222  10.859 -1.7350  0.4589 -1.6718
   86SAPS   C12 8150   3.345   6.207  11.061  0.1641  1.0774  0.4490
   86SAPS  H12A 8151   3.302   6.125  11.117  0.2730  1.1263  0.6046
   86SAPS   C13 8152   3.471   6.253  11.135 -0.5719  0.4291 -0.3037
   86SAPS  O13A 8153   3.586   6.233  11.090  0.0626 -0.3170 -0.2585
   86SAPS  O13B 8154   3.462   6.295  11.252 -0.2392 -0.6074 -0.4336
   86SAPS   C11 8155   3.238   6.325  11.062 -0.3722  0.5992  0.2989
   86SAPS  H11A 8156   3.265   6.408  10.994 -1.6158  0.6744 -0.1196
   86SAPS  H11B 8157   3.248   6.374  11.161 -0.7949  0.0789  0.6032
   86SAPS     P 8158   2.999   6.284  11.153  0.3292  0.1594  0.4219
   86SAPS   O13 8159   3.041   6.178  11.246  0.2869 -0.4550 -0.2051
   86SAPS   O14 8160   2.965   6.424  11.196 -0.0730 -0.4168 -0.2496
   86SAPS   O12 8161   3.107   6.283  11.035  0.2351  0.7391  0.1150
   86SAPS   O11 8162   2.874   6.232  11.070  0.0583 -0.6176 -0.5950
   86SAPS    C1 8163   2.854   6.093  11.050  0.4541  0.5010  0.7071
   86SAPS    HA 8164   2.870   6.030  11.141  2.7690  1.3222  0.9513
   86SAPS    HB 8165   2.748   6.069  11.027  0.3991  1.9609 -0.7495
   86SAPS    C2 8166   2.953   6.028  10.951 -0.4717 -0.5841 -0.4831
   86SAPS    HS 8167   3.059   6.035  10.983 -0.0138 -0.4642 -1.9509
   86SAPS   O21 8168   2.927   6.094  10.829  0.5046 -0.4680  0.7112
   86SAPS   C21 8169   3.026   6.101  10.744  0.3562  0.0456  0.0686
   86SAPS   O22 8170   3.142   6.074  10.773  0.5595 -0.0160  0.8440
   86SAPS   C22 8171   2.972   6.149  10.613 -0.2355  0.3810 -0.6866
   86SAPS   H2R 8172   2.866   6.183  10.612 -0.4647 -0.0682  1.5569
   86SAPS   H2S 8173   3.018   6.248  10.595  0.6922  0.4048  1.5296
   86SAPS    C3 8174   2.916   5.872  10.941  0.4313  0.6584 -0.2824
   86SAPS    HX 8175   2.808   5.886  10.917  0.7372  3.6521 -0.3197
   86SAPS    HY 8176   2.922   5.835  11.045 -0.0754 -2.2788 -1.1972
   86SAPS   O31 8177   2.991   5.787  10.848  0.3452 -0.7314  0.6743
   86SAPS   C31 8178   3.121   5.773  10.871 -0.0148  0.5120 -0.5030
   86SAPS   O32 8179   3.180   5.824  10.965  0.1870 -0.4263  0.1556
   86SAPS   C32 8180   3.195   5.694  10.759 -0.0589 -0.3022 -0.4275
   86SAPS   H2X 8181   3.121   5.677  10.677 -1.3611  1.9238  0.1877
   86SAPS   H2Y 8182   3.221   5.591  10.793  0.5357  0.7730  2.7374
   86SAPS   C23 8183   2.995   6.023  10.515 -0.2058 -0.6126 -0.8315
   86SAPS   H3R 8184   2.927   6.048  10.430 -3.1215 -0.5904  1.3637
   86SAPS   H3S 8185   2.978   5.926  10.566  2.6542 -1.6337 -1.6192
   86SAPS   C24 8186   3.136   6.007  10.462 -0.4708  0.4452  1.6219
   86SAPS   H4R 8187   3.202   5.980  10.548  1.7991  0.9756  0.1350
   86SAPS   H4S 8188   3.175   6.105  10.427 -1.5598  0.4525  0.3620
   86SAPS   C25 8189   3.141   5.906  10.350  0.4362 -0.3898  0.3991
   86SAPS   H5R 8190   3.161   5.802  10.381 -1.4691 -0.6939  0.7223
   86SAPS   C26 8191   3.148   5.935  10.220  0.5568  0.0056 -0.1471
   86SAPS   H6R 8192   3.155   5.849  10.152 -0.5478  0.6444 -1.1282
   86SAPS   C27 8193   3.146   6.074  10.158  0.1149 -0.0805  0.1790
   86SAPS   H7R 8194   3.124   6.159  10.224  1.0103 -1.0707  1.8230
   86SAPS   H7S 8195   3.052   6.061  10.099  0.2237  2.2407 -0.6016
   86SAPS   C28 8196   3.264   6.084  10.062 -0.3555 -0.8100  0.0111
   86SAPS   H8R 8197   3.358   6.107  10.114  0.0312 -1.2204 -0.5017
   86SAPS   C29 8198   3.261   6.071   9.927 -0.0613 -0.6624 -0.0922
   86SAPS   H9R 8199   3.352   6.082   9.865 -0.8559 -1.5109 -1.4644
   86SAPS  C210 8200   3.136   6.044   9.847 -0.4950  0.0316  0.0562
   86SAPS  H10R 8201   3.043   6.040   9.907 -0.0219 -1.2312  0.7445
   86SAPS  H10S 8202   3.135   5.947   9.792  1.3218  0.0741 -0.1155
   86SAPS  C211 8203   3.130   6.158   9.755 -0.5921  0.3037 -1.0103
   86SAPS  H11R 8204   3.136   6.258   9.800  0.0230  0.5417 -1.6117
   86SAPS  C212 8205   3.103   6.159   9.626 -0.6106 -0.0363 -0.5553
   86SAPS  H12R 8206   3.127   6.249   9.567  3.2332 -0.5510 -0.0353
   86SAPS  C213 8207   3.077   6.036   9.536 -0.0321 -0.3844 -0.5478
   86SAPS  H13R 8208   3.177   5.991   9.519  0.1296 -0.1642 -0.1701
   86SAPS  H13S 8209   3.047   6.071   9.435  1.9138  1.6669 -0.5044
   86SAPS  C214 8210   2.979   5.933   9.582 -0.2052  0.2300  0.3896
   86SAPS  H14R 8211   2.962   5.933   9.691 -2.6639  0.9167  0.0663
   86SAPS  C215 8212   2.923   5.836   9.510 -0.5342  0.4777 -0.4133
   86SAPS  H15R 8213   2.875   5.759   9.573 -0.8869  0.4945 -0.6545
   86SAPS  C216 8214   2.941   5.803   9.366  0.0716 -0.1461  0.6183
   86SAPS  H16R 8215   2.978   5.702   9.341  0.7238  0.4819 -1.0952
   86SAPS  H16S 8216   3.021   5.865   9.320  0.7149 -1.1971  0.3086
   86SAPS  C217 8217   2.822   5.825   9.273 -0.1130  0.0966 -0.3512
   86SAPS  H17R 8218   2.808   5.935   9.272  0.3200  0.1582 -0.0620
   86SAPS  H17S 8219   2.729   5.769   9.296  0.7930 -1.0334  0.6562
   86SAPS  C218 8220   2.871   5.788   9.132  0.1100  0.3853  0.4291
   86SAPS  H18R 8221   2.787   5.753   9.068 -1.0040 -0.2089  2.1598
   86SAPS  H18S 8222   2.949   5.709   9.118 -0.7065  0.0809 -3.5457
   86SAPS  C219 8223   2.932   5.909   9.068  1.0145 -0.0558 -0.1395
   86SAPS  H19R 8224   3.005   5.957   9.138  0.0173 -1.2119  1.7913
   86SAPS  H19S 8225   2.845   5.975   9.050  0.3930 -1.3310 -2.1034
   86SAPS  C220 8226   2.978   5.883   8.924  0.0765 -0.5756  0.4381
   86SAPS  H20R 8227   2.902   5.824   8.869 -1.4492 -0.4381  2.2891
   86SAPS  H20S 8228   3.071   5.824   8.925  1.5090  1.4074 -1.9977
   86SAPS  H20T 8229   2.990   5.983   8.875 -2.6103 -1.3911 -2.2328
   86SAPS   C33 8230   3.326   5.756  10.709 -0.1113  0.9267 -0.0451
   86SAPS   H3X 8231   3.396   5.764  10.795  0.3831 -1.8437 -0.1094
   86SAPS   H3Y 8232   3.302   5.860  10.675 -0.9536  0.2621 -1.5827
   86SAPS   C34 8233   3.397   5.677  10.595 -0.5380  0.1552  0.5992
   86SAPS   H4X 8234   3.320   5.660  10.517  0.1559  2.1356 -0.5926
   86SAPS   H4Y 8235   3.436   5.577  10.626 -1.8333 -0.4527  0.3516
   86SAPS   C35 8236   3.507   5.758  10.527 -0.1375  0.5226  0.1738
   86SAPS   H5X 8237   3.582   5.790  10.603  0.9976 -0.5717 -0.4403
   86SAPS   H5Y 8238   3.476   5.861  10.500 -0.4728  0.4386  0.2343
   86SAPS   C36 8239   3.584   5.705  10.408 -0.8071  0.5677 -0.4595
   86SAPS   H6X 8240   3.614   5.599  10.420  0.1115  1.0517  2.3024
   86SAPS   H6Y 8241   3.674   5.768  10.395  2.0316 -2.9157  0.6485
   86SAPS   C37 8242   3.495   5.709  10.282 -0.2745  0.3540  0.1521
   86SAPS   H7X 8243   3.454   5.805  10.242 -1.2178  0.1797  0.6560
   86SAPS   H7Y 8244   3.418   5.633  10.307  1.4595 -1.1132  1.2271
   86SAPS   C38 8245   3.562   5.637  10.157  0.1774 -0.4215  0.2415
   86SAPS   H8X 8246   3.616   5.545  10.189  1.6741  1.3328  3.1659
   86SAPS   H8Y 8247   3.628   5.707  10.103 -0.3718  0.6080  0.8777
   86SAPS   C39 8248   3.457   5.594  10.046  0.3546 -0.8085 -0.2802
   86SAPS   H9X 8249   3.355   5.635  10.064 -0.9005 -3.5882 -0.3919
   86SAPS   H9Y 8250   3.433   5.488  10.073 -0.4169 -0.2435  1.4147
   86SAPS  C310 8251   3.491   5.604   9.899  0.3204  0.2234 -0.8928
   86SAPS  H10X 8252   3.589   5.552   9.894  0.1619 -0.5471  2.1246
   86SAPS  H10Y 8253   3.501   5.713   9.883 -1.4983  0.2876 -1.8870
   86SAPS  C311 8254   3.385   5.531   9.818 -0.3644  0.3195 -0.0235
   86SAPS  H11X 8255   3.294   5.590   9.841  0.6149  2.5019 -1.3257
   86SAPS  H11Y 8256   3.376   5.428   9.857  0.9680  0.8141  1.7309
   86SAPS  C312 8257   3.421   5.517   9.673 -0.6283 -0.3726  0.0230
   86SAPS  H12X 8258   3.476   5.423   9.655  2.3528  1.6313 -2.3253
   86SAPS  H12Y 8259   3.491   5.597   9.641  0.8861 -1.6682  0.0172
   86SAPS  C313 8260   3.302   5.527   9.574 -0.0694  0.5500 -0.6342
   86SAPS  H13X 8261   3.245   5.610   9.620 -1.5150 -0.5535 -0.3415
   86SAPS  H13Y 8262   3.226   5.447   9.586 -0.6167  1.2515  0.7544
   86SAPS  C314 8263   3.349   5.548   9.433 -0.0919  0.0688 -0.7697
   86SAPS  H14X 8264   3.263   5.547   9.363 -0.2280 -1.1525 -0.6056
   86SAPS  H14Y 8265   3.428   5.477   9.401 -0.0505 -0.7832  1.0824
   86SAPS  C315 8266   3.413   5.683   9.412  0.2861 -0.2771 -0.0787
   86SAPS  H15X 8267   3.514   5.685   9.458 -0.4553 -1.0868  1.6825
   86SAPS  H15Y 8268   3.350   5.761   9.458 -1.0926  0.1404 -2.5083
   86SAPS  C316 8269   3.438   5.716   9.264  0.3688 -0.2987  0.1324
   86SAPS  H16X 8270   3.338   5.742   9.222  1.9323  3.0474 -1.9047
   86SAPS  H16Y 8271   3.473   5.623   9.214 -1.2470 -0.9747  0.1754
   86SAPS  C317 8272   3.531   5.836   9.231  0.2260 -0.3469 -0.8292
   86SAPS  H17X 8273   3.637   5.827   9.265  0.2189  1.4720 -0.2427
   86SAPS  H17Y 8274   3.497   5.921   9.294 -0.1305 -1.5709  0.7112
   86SAPS  C318 8275   3.512   5.874   9.080  0.1091 -0.0402  0.3149
   86SAPS  H18X 8276   3.411   5.919   9.076  0.5839  0.9624 -1.6440
   86SAPS  H18Y 8277   3.511   5.786   9.013 -0.6819  1.2689 -1.4645
   86SAPS  H18Z 8278   3.584   5.953   9.050 -2.6841  1.3505 -3.4345
   87SAPS     N 8279   1.813   0.431  11.027  0.3435 -0.8417  0.1442
   87SAPS   HN1 8280   1.849   0.335  11.045 -1.3135 -1.2119  1.7731
   87SAPS   HN2 8281   1.709   0.431  11.030  0.3205 -1.9779 -0.0538
   87SAPS   HN3 8282   1.846   0.466  10.934  0.1530  0.1130  0.4256
   87SAPS   C12 8283   1.886   0.514  11.125  0.0343 -0.3478 -0.4263
   87SAPS  H12A 8284   1.865   0.619  11.107 -0.4621 -0.1603  1.0690
   87SAPS   C13 8285   1.833   0.486  11.271  0.4599  0.4478 -0.0946
   87SAPS  O13A 8286   1.752   0.392  11.290  0.3168  0.5015 -0.7284
   87SAPS  O13B 8287   1.879   0.556  11.362 -0.0426  0.2420 -0.8589
   87SAPS   C11 8288   2.032   0.471  11.113  0.4705  0.0208 -0.6868
   87SAPS  H11A 8289   2.093   0.544  11.170  0.9720 -0.2711 -0.8527
   87SAPS  H11B 8290   2.059   0.491  11.007 -0.1753  0.9479 -0.6915
   87SAPS     P 8291   2.182   0.252  11.113  0.0912  0.2798  0.0426
   87SAPS   O13 8292   2.294   0.317  11.181 -0.5958 -1.0801  0.0533
   87SAPS   O14 8293   2.153   0.110  11.151 -0.3272 -0.3450  0.8697
   87SAPS   O12 8294   2.053   0.333  11.143  0.3098 -0.5987  0.0977
   87SAPS   O11 8295   2.209   0.276  10.958  0.1505 -0.1838 -0.0752
   87SAPS    C1 8296   2.121   0.254  10.853  0.5979  0.1201  0.2930
   87SAPS    HA 8297   2.013   0.272  10.872  0.5299 -0.3145  0.3343
   87SAPS    HB 8298   2.143   0.319  10.766  0.6106 -1.0701 -0.6221
   87SAPS    C2 8299   2.135   0.102  10.809  0.5447 -0.1633  0.1999
   87SAPS    HS 8300   2.117   0.049  10.905  0.7935 -2.8432 -1.1268
   87SAPS   O21 8301   2.270   0.084  10.764 -0.3207  0.9422 -0.0294
   87SAPS   C21 8302   2.306  -0.035  10.718  0.3974  0.1666  0.3005
   87SAPS   O22 8303   2.247  -0.142  10.740 -0.5865  0.1238 -0.8122
   87SAPS   C22 8304   2.408  -0.018  10.614 -0.5679 -0.4431  1.1223
   87SAPS   H2R 8305   2.430   0.087  10.585 -1.2626 -1.0602 -1.9681
   87SAPS   H2S 8306   2.502  -0.063  10.652  0.6475  2.7608  2.2966
   87SAPS    C3 8307   2.020   0.055  10.711  0.6974  0.1823  0.2641
   87SAPS    HX 8308   1.921   0.083  10.752  0.2716 -1.0049  0.0611
   87SAPS    HY 8309   2.024  -0.056  10.718  0.0620  0.1864  0.7114
   87SAPS   O31 8310   2.038   0.087  10.571  0.0780 -0.6449  0.0180
   87SAPS   C31 8311   2.000   0.208  10.530 -0.7532 -0.2014 -0.4562
   87SAPS   O32 8312   1.952   0.300  10.592 -0.5128 -0.1302  0.1739
   87SAPS   C32 8313   2.032   0.210  10.385 -0.1013  0.0538 -0.5426
   87SAPS   H2X 8314   2.038   0.108  10.342 -3.9457 -0.1592 -0.9326
   87SAPS   H2Y 8315   2.120   0.275  10.364  1.2628 -0.5024  2.9315
   87SAPS   C23 8316   2.351  -0.093  10.487 -0.8209  0.0491 -0.3585
   87SAPS   H3R 8317   2.247  -0.060  10.468 -1.0571 -0.2893  0.3259
   87SAPS   H3S 8318   2.345  -0.200  10.513  0.2862  0.3269  1.2225
   87SAPS   C24 8319   2.447  -0.076  10.366  0.5748  0.5124 -0.1435
   87SAPS   H4R 8320   2.418  -0.158  10.297  0.3699 -1.0748  1.7194
   87SAPS   H4S 8321   2.551  -0.105  10.393  0.3591  0.4620  0.6679
   87SAPS   C25 8322   2.426   0.055  10.301  0.9568 -0.6761 -0.5197
   87SAPS   H5R 8323   2.489   0.134  10.345  0.8607 -2.3611  2.9286
   87SAPS   C26 8324   2.349   0.079  10.196 -0.1383  0.2508  0.6430
   87SAPS   H6R 8325   2.355   0.185  10.165  1.0460  1.1507  3.6047
   87SAPS   C27 8326   2.260  -0.018  10.120  0.0642 -0.6205 -0.3813
   87SAPS   H7R 8327   2.190   0.037  10.053 -1.1047  2.0538  2.7765
   87SAPS   H7S 8328   2.195  -0.067  10.196 -0.0070  2.6185  1.8271
   87SAPS   C28 8329   2.343  -0.111  10.038  0.3922  0.7537  0.0041
   87SAPS   H8R 8330   2.403  -0.181  10.097 -0.5941  1.4460  1.9274
   87SAPS   C29 8331   2.362  -0.102   9.903 -0.0576 -0.5511 -0.0450
   87SAPS   H9R 8332   2.431  -0.175   9.858 -0.5355 -0.9257 -0.1859
   87SAPS  C210 8333   2.311  -0.008   9.802  0.6404 -0.9949  0.5664
   87SAPS  H10R 8334   2.395   0.012   9.731 -0.4690  0.4485 -0.3874
   87SAPS  H10S 8335   2.282   0.089   9.847 -0.3505 -0.4849 -1.0659
   87SAPS  C211 8336   2.186  -0.047   9.731 -0.2386  0.3828  0.1015
   87SAPS  H11R 8337   2.093  -0.029   9.788  0.0016  0.5318  0.4545
   87SAPS  C212 8338   2.184  -0.101   9.609 -0.2509 -0.1126  0.0856
   87SAPS  H12R 8339   2.089  -0.122   9.557  0.2358  0.8787 -1.2554
   87SAPS  C213 8340   2.308  -0.120   9.530  0.0585 -0.4533  0.4123
   87SAPS  H13R 8341   2.376  -0.170   9.603 -0.8231 -1.0298  0.8501
   87SAPS  H13S 8342   2.357  -0.024   9.502 -0.8364  0.6973  2.5323
   87SAPS  C214 8343   2.276  -0.199   9.400 -0.4458  0.2678 -0.5083
   87SAPS  H14R 8344   2.253  -0.303   9.424 -4.0800  1.2648  0.8567
   87SAPS  C215 8345   2.290  -0.174   9.272  0.0341  0.0271  0.2863
   87SAPS  H15R 8346   2.263  -0.252   9.199  0.7379 -1.3387  1.4343
   87SAPS  C216 8347   2.345  -0.044   9.212  0.0290  0.4656 -0.4353
   87SAPS  H16R 8348   2.442  -0.068   9.164 -0.0044 -1.7065  0.4557
   87SAPS  H16S 8349   2.348   0.044   9.280  1.3098  0.4523 -0.4499
   87SAPS  C217 8350   2.262   0.014   9.093 -0.7997  1.1638  0.1554
   87SAPS  H17R 8351   2.303   0.115   9.071 -1.1709  1.1802 -0.4900
   87SAPS  H17S 8352   2.163   0.022   9.144 -1.9757  0.6278 -1.9248
   87SAPS  C218 8353   2.250  -0.082   8.973  0.1500  0.3253 -0.1099
   87SAPS  H18R 8354   2.233  -0.187   9.005  1.0526 -0.4458 -2.0132
   87SAPS  H18S 8355   2.349  -0.086   8.922  1.0698  0.2883  1.5777
   87SAPS  C219 8356   2.140  -0.047   8.871 -0.4587 -0.1963  0.0901
   87SAPS  H19R 8357   2.145  -0.114   8.783  2.0250  0.0654 -0.0355
   87SAPS  H19S 8358   2.169   0.053   8.832  0.3323 -0.5150 -0.1499
   87SAPS  C220 8359   1.993  -0.049   8.930  0.2349  0.2710 -0.0447
   87SAPS  H20R 8360   1.992  -0.020   9.038 -0.8171 -1.9723  0.6133
   87SAPS  H20S 8361   1.958  -0.154   8.945 -1.4585  1.0043  1.5066
   87SAPS  H20T 8362   1.915   0.017   8.887 -0.0546  0.8488  1.3089
   87SAPS   C33 8363   1.910   0.274  10.310 -0.0146 -0.3131 -0.8190
   87SAPS   H3X 8364   1.894   0.375  10.352  1.6960  0.6666 -2.3945
   87SAPS   H3Y 8365   1.819   0.213  10.329 -0.8059  1.1859  0.3764
   87SAPS   C34 8366   1.933   0.293  10.161  0.0732  0.6014 -0.1752
   87SAPS   H4X 8367   2.041   0.317  10.148  1.2293 -2.5450  2.2867
   87SAPS   H4Y 8368   1.877   0.380  10.120  0.4348  1.6096  1.3750
   87SAPS   C35 8369   1.892   0.165  10.083 -0.5218  0.8186  0.0924
   87SAPS   H5X 8370   1.782   0.152  10.091 -0.3244  0.1684  2.4488
   87SAPS   H5Y 8371   1.936   0.078  10.136  2.3911  2.6218  0.8663
   87SAPS   C36 8372   1.942   0.160   9.940  0.0539  0.1046  0.0438
   87SAPS   H6X 8373   1.959   0.054   9.911  1.6181  0.8606 -2.1269
   87SAPS   H6Y 8374   2.038   0.215   9.930  0.1605 -0.3335 -1.6108
   87SAPS   C37 8375   1.832   0.214   9.845  0.0525 -0.5234 -0.0820
   87SAPS   H7X 8376   1.801   0.315   9.879  0.9103 -0.6951  1.3557
   87SAPS   H7Y 8377   1.752   0.137   9.851 -2.0380  1.4475 -1.3024
   87SAPS   C38 8378   1.888   0.231   9.702 -0.3156  0.6891  0.0220
   87SAPS   H8X 8379   1.966   0.157   9.674  0.5052  1.8132 -0.7883
   87SAPS   H8Y 8380   1.944   0.327   9.690 -0.4887  0.6686 -1.0204
   87SAPS   C39 8381   1.784   0.237   9.588  0.4825  0.4654  0.0269
   87SAPS   H9X 8382   1.696   0.296   9.622  0.0446  0.5933 -1.2734
   87SAPS   H9Y 8383   1.740   0.135   9.584  0.0174  0.6085  1.0949
   87SAPS  C310 8384   1.825   0.276   9.446 -0.0654 -0.2160  0.5830
   87SAPS  H10X 8385   1.908   0.206   9.423  2.5701  1.7459  3.2898
   87SAPS  H10Y 8386   1.873   0.376   9.434  1.8042 -0.9163  1.8188
   87SAPS  C311 8387   1.725   0.233   9.336  0.2974  0.6360  0.8828
   87SAPS  H11X 8388   1.643   0.308   9.337  1.6063  2.1511  2.8888
   87SAPS  H11Y 8389   1.691   0.131   9.363  0.0016  0.5394  0.1624
   87SAPS  C312 8390   1.776   0.248   9.189  0.8700  0.2654 -0.0837
   87SAPS  H12X 8391   1.864   0.180   9.184  0.8152  0.2196 -0.4302
   87SAPS  H12Y 8392   1.815   0.352   9.185 -2.0021  1.4022 -2.7250
   87SAPS  C313 8393   1.665   0.229   9.084 -0.0237  0.3362 -0.3337
   87SAPS  H13X 8394   1.587   0.306   9.099 -1.4802 -0.9513 -1.0214
   87SAPS  H13Y 8395   1.626   0.126   9.101 -2.0868  1.1108 -0.1466
   87SAPS  C314 8396   1.709   0.246   8.940  0.4831 -0.6218  0.4234
   87SAPS  H14X 8397   1.792   0.175   8.920 -0.0021 -1.0963  0.0879
   87SAPS  H14Y 8398   1.743   0.352   8.932 -1.6125  0.1848  1.4657
   87SAPS  C315 8399   1.608   0.211   8.828 -0.0482  0.0836  0.1372
   87SAPS  H15X 8400   1.528   0.287   8.841  0.0953  0.1638  0.5876
   87SAPS  H15Y 8401   1.562   0.111   8.841 -1.1852  0.5211 -0.3895
   87SAPS  C316 8402   1.667   0.220   8.686 -0.1564  0.2568 -1.1502
   87SAPS  H16X 8403   1.733   0.131   8.682  2.8269  2.3163 -0.6710
   87SAPS  H16Y 8404   1.729   0.312   8.685  1.5902 -0.8652 -0.2043
   87SAPS  C317 8405   1.564   0.223   8.584 -0.1536  0.3175  0.3467
   87SAPS  H17X 8406   1.486   0.302   8.587  0.1171  0.5714  0.7228
   87SAPS  H17Y 8407   1.506   0.128   8.581 -1.9079  1.3486 -0.2544
   87SAPS  C318 8408   1.635   0.245   8.446  0.2876  0.3740  0.2906
   87SAPS  H18X 8409   1.685   0.344   8.459  1.3799 -0.2203  0.6847
   87SAPS  H18Y 8410   1.557   0.251   8.367  0.5834 -2.7049 -0.3516
   87SAPS  H18Z 8411   1.710   0.168   8.420 -0.6834 -0.2954 -0.6006
   88SAPS     N 8412   5.094   5.169  11.075  0.4018 -0.1265  0.1484
   88SAPS   HN1 8413   5.170   5.207  11.015  1.2274 -1.0316  0.5921
   88SAPS   HN2 8414   5.021   5.122  11.018 -0.5426  0.0177  1.2103
   88SAPS   HN3 8415   5.049   5.236  11.139 -0.6326 -0.7453  0.1037
   88SAPS   C12 8416   5.144   5.068  11.182  0.2668 -0.7211  0.2789
   88SAPS  H12A 8417   5.202   5.133  11.247 -0.1742 -0.6416  0.6021
   88SAPS   C13 8418   5.040   4.997  11.275  0.5878 -0.5869  0.8456
   88SAPS  O13A 8419   4.916   5.029  11.250  0.3836 -0.1356 -0.0723
   88SAPS  O13B 8420   5.073   4.925  11.370 -0.9523  0.4113  0.4860
   88SAPS   C11 8421   5.246   4.972  11.123  0.5205  1.1592 -0.1815
   88SAPS  H11A 8422   5.203   4.926  11.031 -0.2435 -0.5937  0.9906
   88SAPS  H11B 8423   5.267   4.892  11.198  0.2297  0.7824 -0.4960
   88SAPS     P 8424   5.405   5.100  10.949  0.0614 -0.4101 -0.0761
   88SAPS   O13 8425   5.313   5.214  10.919  0.0232 -0.5887  0.3287
   88SAPS   O14 8426   5.550   5.130  10.935 -0.2147 -0.0458 -0.4361
   88SAPS   O12 8427   5.369   5.037  11.088  0.2608 -0.1581 -0.6185
   88SAPS   O11 8428   5.372   4.986  10.853 -0.2189  0.2604  0.3433
   88SAPS    C1 8429   5.463   4.877  10.824  0.3343 -0.6614 -0.2431
   88SAPS    HA 8430   5.519   4.843  10.913  1.4579  2.2393  0.2642
   88SAPS    HB 8431   5.409   4.785  10.792 -1.3895 -0.3404  1.5586
   88SAPS    C2 8432   5.561   4.915  10.714  0.4594 -0.2734  0.1599
   88SAPS    HS 8433   5.609   5.010  10.745 -1.2068  0.9484 -0.8297
   88SAPS   O21 8434   5.491   4.934  10.587 -0.1235 -0.3958 -0.2483
   88SAPS   C21 8435   5.514   5.054  10.533  0.5562  0.4711  0.9549
   88SAPS   O22 8436   5.588   5.143  10.568  0.2980 -0.4162  0.3950
   88SAPS   C22 8437   5.421   5.070  10.415  0.0318  1.0150 -0.7846
   88SAPS   H2R 8438   5.467   5.036  10.320  0.7323  0.8585 -0.3916
   88SAPS   H2S 8439   5.344   4.990  10.428  0.7621  0.3918 -0.1935
   88SAPS    C3 8440   5.672   4.811  10.693  0.0194 -0.1396 -0.1587
   88SAPS    HX 8441   5.633   4.728  10.630 -1.9361  1.3081 -0.9568
   88SAPS    HY 8442   5.694   4.761  10.790 -1.6570 -1.6228 -0.4826
   88SAPS   O31 8443   5.793   4.872  10.636  0.1711 -0.2999  0.0734
   88SAPS   C31 8444   5.810   4.862  10.512  0.6408  0.3329 -0.1063
   88SAPS   O32 8445   5.740   4.799  10.430  0.2312  0.8964 -0.4851
   88SAPS   C32 8446   5.935   4.939  10.470 -0.0810 -0.0636  1.0857
   88SAPS   H2X 8447   6.030   4.883  10.485  0.8483  1.4616  1.2396
   88SAPS   H2Y 8448   5.941   5.030  10.534 -2.4518  0.2169  0.9964
   88SAPS   C23 8449   5.365   5.212  10.376  0.4945  0.0041  0.3714
   88SAPS   H3R 8450   5.451   5.281  10.376 -0.1858  1.0095  3.5527
   88SAPS   H3S 8451   5.302   5.239  10.463 -0.5981  2.6334 -1.1064
   88SAPS   C24 8452   5.275   5.211  10.246 -0.0257 -0.0203 -0.3979
   88SAPS   H4R 8453   5.341   5.181  10.161 -0.4571  0.6657 -0.9897
   88SAPS   H4S 8454   5.231   5.312  10.239 -0.2891 -0.1375 -0.4492
   88SAPS   C25 8455   5.152   5.125  10.246  0.1698  0.4398  0.2249
   88SAPS   H5R 8456   5.133   5.068  10.338  1.5586 -1.3228 -0.5263
   88SAPS   C26 8457   5.063   5.108  10.145 -0.9527 -0.0279 -0.0256
   88SAPS   H6R 8458   4.990   5.027  10.154 -1.6846  0.5470 -0.7180
   88SAPS   C27 8459   5.074   5.163   9.999 -0.7284  0.0213 -0.5734
   88SAPS   H7R 8460   5.053   5.084   9.924 -0.7830  1.5045 -2.1610
   88SAPS   H7S 8461   5.168   5.215   9.971 -1.7113  2.2343  0.0194
   88SAPS   C28 8462   4.964   5.268   9.996 -0.5698 -1.1336 -0.0412
   88SAPS   H8R 8463   4.977   5.342  10.077  0.6823 -0.1651 -1.0741
   88SAPS   C29 8464   4.861   5.269   9.908  0.3200 -1.3411 -0.1748
   88SAPS   H9R 8465   4.806   5.363   9.897  1.5783 -0.6828 -1.1142
   88SAPS  C210 8466   4.830   5.177   9.793 -0.0897  0.5181  0.5209
   88SAPS  H10R 8467   4.924   5.129   9.758  0.4389  1.8143  0.0983
   88SAPS  H10S 8468   4.788   5.219   9.699 -0.2266 -2.2988 -0.7826
   88SAPS  C211 8469   4.736   5.070   9.843 -0.6383  0.3904 -0.3758
   88SAPS  H11R 8470   4.782   5.011   9.924  1.4678 -0.3994 -2.0320
   88SAPS  C212 8471   4.610   5.050   9.795 -0.3901  0.2678 -0.4237
   88SAPS  H12R 8472   4.540   4.988   9.854 -2.0470  0.5805 -1.9683
   88SAPS  C213 8473   4.548   5.134   9.683 -0.3009 -0.3515 -0.7858
   88SAPS  H13R 8474   4.622   5.132   9.601 -0.0940  1.7944 -0.7074
   88SAPS  H13S 8475   4.525   5.236   9.721  0.4668 -0.3699 -0.2601
   88SAPS  C214 8476   4.425   5.055   9.641 -0.0408  0.1203 -0.6135
   88SAPS  H14R 8477   4.430   4.946   9.653 -0.4323  0.3644  2.4009
   88SAPS  C215 8478   4.314   5.105   9.580 -0.8266 -0.0148  0.4073
   88SAPS  H15R 8479   4.238   5.035   9.543 -2.0170  0.8467  1.1438
   88SAPS  C216 8480   4.294   5.250   9.549  0.1272 -0.4204  0.1864
   88SAPS  H16R 8481   4.393   5.299   9.548  0.0081 -0.1743  0.4087
   88SAPS  H16S 8482   4.232   5.294   9.630 -1.9479 -3.1095  0.2392
   88SAPS  C217 8483   4.225   5.264   9.416  0.3299 -0.1751  0.5590
   88SAPS  H17R 8484   4.212   5.372   9.395 -1.8621 -0.6106 -0.6187
   88SAPS  H17S 8485   4.122   5.221   9.420  0.0966  0.1958 -0.9592
   88SAPS  C218 8486   4.292   5.204   9.289 -0.1652 -0.5904  0.5532
   88SAPS  H18R 8487   4.314   5.097   9.307  2.3424 -0.4644 -1.1704
   88SAPS  H18S 8488   4.388   5.260   9.277  0.4135 -1.7856 -0.7623
   88SAPS  C219 8489   4.205   5.200   9.162 -0.1210 -0.0138  0.5690
   88SAPS  H19R 8490   4.122   5.128   9.182 -2.4550  2.0352 -1.1057
   88SAPS  H19S 8491   4.249   5.148   9.074 -3.9704 -0.9323 -1.0105
   88SAPS  C220 8492   4.150   5.342   9.118  0.3763  0.2064 -0.4602
   88SAPS  H20R 8493   4.105   5.330   9.017 -0.5713  0.7128 -0.1155
   88SAPS  H20S 8494   4.229   5.420   9.111  1.4474 -1.0030 -3.1692
   88SAPS  H20T 8495   4.073   5.364   9.195  1.8776  0.2371  1.0820
   88SAPS   C33 8496   5.936   4.988  10.317  0.2004 -0.1180 -0.7784
   88SAPS   H3X 8497   6.013   5.068  10.312  0.7142 -0.5170  0.3904
   88SAPS   H3Y 8498   5.837   5.024  10.283  1.3089  1.2422 -2.7150
   88SAPS   C34 8499   5.987   4.874  10.228  0.2295  0.1637  0.0493
   88SAPS   H4X 8500   5.908   4.797  10.213 -0.5631  0.9288  0.2186
   88SAPS   H4Y 8501   6.081   4.837  10.275 -1.2756 -1.7357  1.7270
   88SAPS   C35 8502   6.037   4.931  10.093  0.0346 -0.2033  0.3349
   88SAPS   H5X 8503   6.098   5.023  10.109  2.9401 -1.9775  0.1377
   88SAPS   H5Y 8504   5.947   4.959  10.033  0.6611  0.5686 -0.2809
   88SAPS   C36 8505   6.124   4.825  10.010 -0.0108  0.1909 -1.3720
   88SAPS   H6X 8506   6.089   4.720  10.017 -1.0676  0.5614 -0.8350
   88SAPS   H6Y 8507   6.215   4.827  10.074 -1.8173  0.4368  1.3489
   88SAPS   C37 8508   6.136   4.876   9.869 -0.2195 -0.4281  0.3252
   88SAPS   H7X 8509   6.216   4.815   9.823  0.1380 -1.2764  1.9876
   88SAPS   H7Y 8510   6.163   4.983   9.880  1.7276 -0.7692 -0.7670
   88SAPS   C38 8511   6.009   4.833   9.788 -0.6134 -0.4962  0.0759
   88SAPS   H8X 8512   5.928   4.887   9.843  0.1752  1.9644 -1.0047
   88SAPS   H8Y 8513   5.989   4.724   9.787  2.1404 -1.0732  0.1722
   88SAPS   C39 8514   6.017   4.886   9.644  0.1483  0.6639 -0.6323
   88SAPS   H9X 8515   6.107   4.847   9.593  1.0838 -1.7029  2.4644
   88SAPS   H9Y 8516   6.020   4.997   9.643  4.5366  0.7593  1.3207
   88SAPS  C310 8517   5.897   4.851   9.550 -0.1418 -0.0035 -0.3779
   88SAPS  H10X 8518   5.810   4.919   9.563 -0.6429 -0.2815 -2.0575
   88SAPS  H10Y 8519   5.869   4.747   9.579  0.5764 -0.2251 -0.4704
   88SAPS  C311 8520   5.924   4.836   9.402 -0.2024  0.2664 -0.2381
   88SAPS  H11X 8521   5.821   4.833   9.360 -0.0802 -0.9470 -0.4700
   88SAPS  H11Y 8522   5.968   4.735   9.391 -0.7277  0.1030 -0.9058
   88SAPS  C312 8523   6.003   4.949   9.320 -0.1266  0.1186  0.7616
   88SAPS  H12X 8524   6.104   4.938   9.365  1.4085 -0.7410 -2.5697
   88SAPS  H12Y 8525   5.969   5.052   9.347  0.0420  0.1181  0.9803
   88SAPS  C313 8526   6.011   4.922   9.173 -1.2819  0.3165 -1.1197
   88SAPS  H13X 8527   5.908   4.907   9.134 -1.5929 -0.1794 -0.1389
   88SAPS  H13Y 8528   6.082   4.837   9.158  0.1377  1.6515 -2.3665
   88SAPS  C314 8529   6.059   5.044   9.098 -0.1073  0.5674 -0.0756
   88SAPS  H14X 8530   6.168   5.034   9.113 -0.2105  1.3614  1.4014
   88SAPS  H14Y 8531   6.025   5.136   9.152 -0.5455 -0.2319  1.0443
   88SAPS  C315 8532   6.025   5.047   8.954 -0.3086  0.1811 -0.6398
   88SAPS  H15X 8533   6.053   4.955   8.899  4.6638  1.1617 -0.1767
   88SAPS  H15Y 8534   6.081   5.136   8.919 -1.7794  1.0539 -0.8650
   88SAPS  C316 8535   5.869   5.075   8.937 -0.3068  0.1121 -0.7189
   88SAPS  H16X 8536   5.846   5.170   8.990 -2.6389 -1.4400  1.2895
   88SAPS  H16Y 8537   5.821   4.989   8.989  1.2408  0.5050  1.5028
   88SAPS  C317 8538   5.815   5.092   8.794 -0.4483 -0.5594 -0.3643
   88SAPS  H17X 8539   5.833   5.004   8.728  0.1903 -0.0615 -0.8668
   88SAPS  H17Y 8540   5.874   5.176   8.751 -1.1604  0.3220  0.3274
   88SAPS  C318 8541   5.667   5.131   8.795  0.3502 -0.0374 -1.2036
   88SAPS  H18X 8542   5.651   5.226   8.851  1.2896  0.9089 -2.4787
   88SAPS  H18Y 8543   5.602   5.047   8.827 -2.8665  2.5354 -0.5034
   88SAPS  H18Z 8544   5.626   5.150   8.693  0.6769 -0.4422 -1.4125
   89SAPS     N 8545   6.747   0.307  11.065  0.4586  0.6587 -0.0804
   89SAPS   HN1 8546   6.690   0.245  11.126  3.1348 -1.4723  0.4779
   89SAPS   HN2 8547   6.686   0.387  11.039 -0.2528  0.5910  1.2732
   89SAPS   HN3 8548   6.764   0.259  10.974 -1.2111  0.3497 -0.2629
   89SAPS   C12 8549   6.870   0.343  11.141 -0.5214 -0.8896  0.2577
   89SAPS  H12A 8550   6.840   0.390  11.233 -1.1577  0.6042 -0.6849
   89SAPS   C13 8551   6.956   0.226  11.185 -0.5162  0.1800 -0.8860
   89SAPS  O13A 8552   6.928   0.110  11.153 -0.1816 -0.4258 -0.0903
   89SAPS  O13B 8553   7.053   0.262  11.260 -0.4123 -0.6090 -0.0441
   89SAPS   C11 8554   6.963   0.436  11.055  0.1408 -0.7655 -0.4158
   89SAPS  H11A 8555   6.979   0.389  10.956 -2.4962 -1.5969 -0.5235
   89SAPS  H11B 8556   7.061   0.448  11.106 -0.7091 -0.8795  1.3116
   89SAPS     P 8557   6.987   0.673  10.974  0.4797 -0.5762  0.4289
   89SAPS   O13 8558   6.911   0.802  10.967 -0.3562 -0.1723  0.4734
   89SAPS   O14 8559   7.113   0.667  11.044 -0.4537 -0.0257 -0.5080
   89SAPS   O12 8560   6.895   0.563  11.039  0.3233 -0.1712  0.3544
   89SAPS   O11 8561   7.001   0.623  10.832  0.1561  0.3755 -0.3188
   89SAPS    C1 8562   6.891   0.591  10.748  0.5949  0.0388 -0.4585
   89SAPS    HA 8563   6.835   0.498  10.771 -0.3290  0.0056 -2.5575
   89SAPS    HB 8564   6.823   0.679  10.741  1.4026  0.7788  0.6641
   89SAPS    C2 8565   6.939   0.571  10.597 -0.7479  0.2864 -0.1760
   89SAPS    HS 8566   6.985   0.470  10.588 -2.8246 -0.8606  1.2637
   89SAPS   O21 8567   7.027   0.681  10.559 -0.0237 -0.1206 -0.6195
   89SAPS   C21 8568   7.120   0.644  10.476  0.3470 -0.2342  0.2328
   89SAPS   O22 8569   7.140   0.530  10.445 -0.3016  0.2456  0.5043
   89SAPS   C22 8570   7.198   0.763  10.423 -0.0787  0.2062 -0.4315
   89SAPS   H2R 8571   7.129   0.846  10.396  1.6262  1.5119 -0.9183
   89SAPS   H2S 8572   7.245   0.796  10.518 -0.9407 -1.0127  0.4465
   89SAPS    C3 8573   6.818   0.574  10.509 -0.8928 -0.2374 -0.1478
   89SAPS    HX 8574   6.788   0.680  10.500  2.0425  0.7425  0.5593
   89SAPS    HY 8575   6.735   0.518  10.558  1.0944 -2.0293  1.3306
   89SAPS   O31 8576   6.848   0.530  10.380  0.0250  0.3673  0.1768
   89SAPS   C31 8577   6.874   0.398  10.361  0.0574 -0.1651  0.8358
   89SAPS   O32 8578   6.861   0.310  10.447  0.3298  0.7013 -0.5853
   89SAPS   C32 8579   6.895   0.381  10.211  0.0588  0.0654 -0.2793
   89SAPS   H2X 8580   6.965   0.294  10.207 -0.7831 -0.5762 -2.8858
   89SAPS   H2Y 8581   6.961   0.462  10.172 -2.4478  2.7334  0.7009
   89SAPS   C23 8582   7.306   0.730  10.323  0.0403  0.0580 -0.5938
   89SAPS   H3R 8583   7.360   0.637  10.350 -1.5148 -0.1352  2.2233
   89SAPS   H3S 8584   7.373   0.819  10.323 -0.0762  0.2327 -3.4375
   89SAPS   C24 8585   7.258   0.719  10.179  0.5388  0.0558  0.0671
   89SAPS   H4R 8586   7.209   0.815  10.152 -0.4897 -0.3751  0.3505
   89SAPS   H4S 8587   7.181   0.641  10.167 -1.0423  1.5304  0.2110
   89SAPS   C25 8588   7.378   0.709  10.089  0.0659  0.7005 -0.1866
   89SAPS   H5R 8589   7.452   0.791  10.098 -0.1043  0.7447  0.8977
   89SAPS   C26 8590   7.397   0.618   9.995  0.1706 -0.9484 -0.0122
   89SAPS   H6R 8591   7.483   0.631   9.927 -0.0635  0.3400 -0.0911
   89SAPS   C27 8592   7.295   0.514   9.964  0.1818  0.5078 -0.8331
   89SAPS   H7R 8593   7.195   0.547   9.997  0.5097  0.5951  0.0976
   89SAPS   H7S 8594   7.331   0.422  10.014  0.9752  1.3507  0.2052
   89SAPS   C28 8595   7.295   0.493   9.817 -0.0119 -0.0131  0.4327
   89SAPS   H8R 8596   7.370   0.543   9.755 -0.0599  0.7179  0.9545
   89SAPS   C29 8597   7.225   0.402   9.753  0.1276 -0.0176  0.1690
   89SAPS   H9R 8598   7.209   0.405   9.644  1.2300 -2.2705 -0.1110
   89SAPS  C210 8599   7.121   0.309   9.801 -0.4641 -0.1082 -0.2177
   89SAPS  H10R 8600   7.020   0.355   9.795 -0.0903  0.5745 -1.6873
   89SAPS  H10S 8601   7.133   0.290   9.910 -0.8110 -1.9038 -0.4583
   89SAPS  C211 8602   7.122   0.160   9.751 -0.2456  0.3206 -0.1277
   89SAPS  H11R 8603   7.148   0.085   9.828  0.2997  1.7513  1.1325
   89SAPS  C212 8604   7.088   0.108   9.633  0.0333  0.1959  0.3785
   89SAPS  H12R 8605   7.101  -0.000   9.618  0.6972 -0.1245  2.8492
   89SAPS  C213 8606   7.047   0.186   9.513 -0.3795 -0.2012  1.1177
   89SAPS  H13R 8607   7.018   0.288   9.546  1.2407  0.1028  1.6867
   89SAPS  H13S 8608   6.967   0.127   9.463  0.3326  1.5602 -2.4002
   89SAPS  C214 8609   7.155   0.206   9.415  0.1297  0.1792 -0.0784
   89SAPS  H14R 8610   7.257   0.212   9.457  0.6211 -1.3852 -0.9621
   89SAPS  C215 8611   7.146   0.204   9.280  0.0967  0.2223 -0.6849
   89SAPS  H15R 8612   7.236   0.208   9.218  0.7984 -2.4738  0.0445
   89SAPS  C216 8613   7.013   0.190   9.203 -0.4858 -0.4054  0.0858
   89SAPS  H16R 8614   6.931   0.182   9.277  0.0808 -0.0266  0.7632
   89SAPS  H16S 8615   7.017   0.092   9.151  0.2077 -0.6885  0.6672
   89SAPS  C217 8616   6.985   0.300   9.095  0.4310  0.7251 -0.1600
   89SAPS  H17R 8617   6.961   0.391   9.153  0.8704  1.3508 -0.9470
   89SAPS  H17S 8618   6.889   0.290   9.041  0.6662 -1.8044 -0.2398
   89SAPS  C218 8619   7.099   0.335   8.999 -0.5547  0.3624 -0.8125
   89SAPS  H18R 8620   7.151   0.242   8.969 -2.4327 -1.3838  1.0057
   89SAPS  H18S 8621   7.163   0.410   9.050 -1.3803  1.0475 -0.7617
   89SAPS  C219 8622   7.047   0.370   8.858  0.8462  0.2036 -0.5095
   89SAPS  H19R 8623   6.988   0.292   8.805  0.3080 -0.1711  0.6210
   89SAPS  H19S 8624   7.128   0.392   8.784 -0.6110 -0.4619 -2.3985
   89SAPS  C220 8625   6.963   0.497   8.863 -0.3662 -1.0032  0.1252
   89SAPS  H20R 8626   6.863   0.477   8.908 -0.2299  0.9273  1.4348
   89SAPS  H20S 8627   6.936   0.542   8.765 -1.5241  0.3891  1.0356
   89SAPS  H20T 8628   7.016   0.576   8.921 -1.8387 -1.4380  2.1838
   89SAPS   C33 8629   6.773   0.337  10.123 -0.7968  0.2776  0.2506
   89SAPS   H3X 8630   6.682   0.400  10.126 -0.8976  0.2898 -1.9451
   89SAPS   H3Y 8631   6.747   0.236  10.163  2.0983 -0.8696 -0.4406
   89SAPS   C34 8632   6.809   0.306   9.973 -0.4487 -0.0953  0.0694
   89SAPS   H4X 8633   6.908   0.255   9.969 -0.3158  0.2273 -1.3885
   89SAPS   H4Y 8634   6.828   0.404   9.922  3.4939 -0.5432  0.3300
   89SAPS   C35 8635   6.701   0.223   9.906 -0.0490 -0.3168 -0.3769
   89SAPS   H5X 8636   6.618   0.291   9.878  1.9969  1.8710 -1.5877
   89SAPS   H5Y 8637   6.665   0.140   9.970  1.3694 -1.7946 -1.4244
   89SAPS   C36 8638   6.750   0.156   9.770 -0.4132  0.4943  0.1926
   89SAPS   H6X 8639   6.828   0.081   9.793 -1.4864 -0.2161  1.6140
   89SAPS   H6Y 8640   6.787   0.238   9.704 -2.3479  1.4644  0.2432
   89SAPS   C37 8641   6.638   0.075   9.701 -0.1702  0.6225  0.2299
   89SAPS   H7X 8642   6.569   0.145   9.651 -0.6048 -0.7368 -1.1704
   89SAPS   H7Y 8643   6.594  -0.007   9.762  0.6979 -0.1175 -0.1018
   89SAPS   C38 8644   6.694  -0.003   9.569 -0.2807  0.7610  0.4207
   89SAPS   H8X 8645   6.779  -0.066   9.603  0.1722  1.3832  0.4482
   89SAPS   H8Y 8646   6.745   0.068   9.501  0.5952  0.6735  0.9772
   89SAPS   C39 8647   6.597  -0.096   9.494 -0.8902 -0.6311 -0.8376
   89SAPS   H9X 8648   6.502  -0.052   9.455 -2.4474 -1.1502  2.0868
   89SAPS   H9Y 8649   6.579  -0.186   9.557  0.0335 -0.3293 -0.1287
   89SAPS  C310 8650   6.673  -0.155   9.376 -0.1364 -1.1501  0.0016
   89SAPS  H10X 8651   6.622  -0.249   9.345  0.6283 -1.6265  0.1446
   89SAPS  H10Y 8652   6.777  -0.187   9.402 -0.2304 -2.3858 -1.0011
   89SAPS  C311 8653   6.664  -0.072   9.249 -0.1093 -0.1925 -0.9877
   89SAPS  H11X 8654   6.728   0.018   9.262 -0.2266 -0.2689  0.2109
   89SAPS  H11Y 8655   6.565  -0.031   9.218 -0.2552  0.7775  0.6353
   89SAPS  C312 8656   6.718  -0.146   9.125  0.8078 -0.3117  0.2109
   89SAPS  H12X 8657   6.643  -0.217   9.083  1.5261 -0.6215 -0.5979
   89SAPS  H12Y 8658   6.812  -0.202   9.142  0.4828 -1.0905 -0.4621
   89SAPS  C313 8659   6.745  -0.038   9.014  0.8654  0.2799  0.0066
   89SAPS  H13X 8660   6.833   0.024   9.042 -0.6011  2.9768 -0.9282
   89SAPS  H13Y 8661   6.656   0.028   9.001  0.6397  0.2277  1.2004
   89SAPS  C314 8662   6.774  -0.102   8.871  0.6546 -0.4873 -1.1761
   89SAPS  H14X 8663   6.834  -0.029   8.812  0.4528  1.4226  0.8241
   89SAPS  H14Y 8664   6.678  -0.115   8.818  0.1068  1.8184 -0.8821
   89SAPS  C315 8665   6.860  -0.226   8.870 -0.0825 -0.0741 -0.7524
   89SAPS  H15X 8666   6.805  -0.306   8.922  0.0205  1.1639  1.3698
   89SAPS  H15Y 8667   6.944  -0.214   8.942 -1.1790 -1.8927  0.9276
   89SAPS  C316 8668   6.912  -0.253   8.728 -0.4525  1.1660  0.2290
   89SAPS  H16X 8669   6.971  -0.160   8.712 -0.4744  1.4098  1.4777
   89SAPS  H16Y 8670   6.825  -0.266   8.661 -1.9702  4.3534  1.4155
   89SAPS  C317 8671   7.004  -0.372   8.738  0.5104  0.5038  0.1402
   89SAPS  H17X 8672   7.084  -0.367   8.815  0.3729 -2.0133  0.5378
   89SAPS  H17Y 8673   7.055  -0.372   8.639  0.2142  3.0347 -0.0740
   89SAPS  C318 8674   6.929  -0.508   8.739 -0.0360  0.5579 -0.8353
   89SAPS  H18X 8675   6.848  -0.507   8.815  1.5398  1.0958  0.9019
   89SAPS  H18Y 8676   6.987  -0.601   8.757 -1.1733 -0.0825 -0.3702
   89SAPS  H18Z 8677   6.878  -0.529   8.642 -2.0702  1.9564 -0.1387
   90SAPS     N 8678   1.287   0.474  10.860 -0.6820  0.1154  0.3947
   90SAPS   HN1 8679   1.186   0.469  10.835 -0.4891  1.1239 -0.7254
   90SAPS   HN2 8680   1.293   0.562  10.915  0.3352  0.3218 -0.0177
   90SAPS   HN3 8681   1.344   0.489  10.774  0.4438  1.0875  1.2862
   90SAPS   C12 8682   1.340   0.351  10.923  0.5638  0.1887  0.5431
   90SAPS  H12A 8683   1.346   0.273  10.848  1.7520  0.5491  0.2512
   90SAPS   C13 8684   1.483   0.366  10.972  0.4345 -0.7401 -0.7195
   90SAPS  O13A 8685   1.534   0.477  11.011 -0.1717 -0.7889  0.5367
   90SAPS  O13B 8686   1.550   0.264  10.983 -0.7927 -0.0517 -0.3979
   90SAPS   C11 8687   1.248   0.319  11.046 -0.4158 -0.4923  0.1610
   90SAPS  H11A 8688   1.252   0.394  11.128 -0.0388  1.4100 -1.5397
   90SAPS  H11B 8689   1.282   0.229  11.102  1.2695 -0.0929 -0.1678
   90SAPS     P 8690   1.057   0.158  10.986 -0.4225  0.0630  0.3604
   90SAPS   O13 8691   1.091   0.067  11.099 -0.7068  0.6273 -0.1140
   90SAPS   O14 8692   0.915   0.164  10.952 -0.5441  0.1834  0.3704
   90SAPS   O12 8693   1.109   0.306  11.018 -0.1222 -0.1118  0.0593
   90SAPS   O11 8694   1.142   0.112  10.857 -0.0739  0.1628 -0.7364
   90SAPS    C1 8695   1.106   0.175  10.734 -0.0689 -0.3136 -1.2918
   90SAPS    HA 8696   0.996   0.159  10.723  0.1648 -1.7189 -1.8690
   90SAPS    HB 8697   1.124   0.284  10.734 -0.1625 -0.2974 -0.9087
   90SAPS    C2 8698   1.190   0.118  10.616  0.0207  0.4804  1.0461
   90SAPS    HS 8699   1.150   0.014  10.613 -1.4400  0.8126  4.6552
   90SAPS   O21 8700   1.324   0.112  10.656  0.2097  0.3003 -0.0315
   90SAPS   C21 8701   1.386   0.001  10.608 -0.5805 -0.7545  0.0067
   90SAPS   O22 8702   1.336  -0.082  10.533 -0.8062  0.4047  0.3557
   90SAPS   C22 8703   1.527  -0.006  10.672  0.2145 -1.1291  0.1821
   90SAPS   H2R 8704   1.570   0.095  10.689 -0.3654 -0.7613 -0.4911
   90SAPS   H2S 8705   1.509  -0.067  10.763 -2.2387 -1.0157 -0.1579
   90SAPS    C3 8706   1.169   0.187  10.479 -0.4058 -0.0876  0.3135
   90SAPS    HX 8707   1.217   0.287  10.475 -1.4979  0.4350 -0.1323
   90SAPS    HY 8708   1.062   0.207  10.460 -0.9653 -2.5942  0.4808
   90SAPS   O31 8709   1.221   0.110  10.370 -0.1160  0.0822 -0.0205
   90SAPS   C31 8710   1.135   0.017  10.337  0.3096 -0.6084 -0.2845
   90SAPS   O32 8711   1.024  -0.011  10.387  0.4047 -0.0893 -0.3950
   90SAPS   C32 8712   1.194  -0.061  10.222 -0.2751 -0.3017  0.9248
   90SAPS   H2X 8713   1.258  -0.149  10.243 -1.1536 -1.4164 -0.8688
   90SAPS   H2Y 8714   1.275   0.002  10.179  0.3135 -1.6825 -0.0493
   90SAPS   C23 8715   1.627  -0.087  10.585  0.0621 -0.6469 -0.1454
   90SAPS   H3R 8716   1.572  -0.180  10.557  1.0785 -1.1922 -0.4153
   90SAPS   H3S 8717   1.708  -0.119  10.655 -0.2860 -1.7905 -0.2405
   90SAPS   C24 8718   1.679  -0.018  10.462 -0.2728  0.0996  0.1207
   90SAPS   H4R 8719   1.723   0.077  10.498 -0.4147 -0.4574  1.8676
   90SAPS   H4S 8720   1.590   0.002  10.399 -0.8273  0.1985  0.9284
   90SAPS   C25 8721   1.788  -0.086  10.390 -0.6563 -0.1512  0.4714
   90SAPS   H5R 8722   1.876  -0.109  10.451 -0.9238 -2.3591  0.0991
   90SAPS   C26 8723   1.773  -0.145  10.271 -0.4242 -0.4092  0.7213
   90SAPS   H6R 8724   1.865  -0.181  10.223 -0.8893  2.5532 -2.8695
   90SAPS   C27 8725   1.665  -0.145  10.176 -0.1050 -0.1965 -0.5887
   90SAPS   H7R 8726   1.688  -0.063  10.105  1.6013  0.9865  1.2048
   90SAPS   H7S 8727   1.569  -0.109  10.219  0.0624  0.6005 -0.8618
   90SAPS   C28 8728   1.648  -0.263  10.080 -0.4145  0.4813  0.1576
   90SAPS   H8R 8729   1.643  -0.368  10.115 -0.4931  0.1995 -0.6806
   90SAPS   C29 8730   1.626  -0.253   9.949  0.6233 -0.3078  0.3674
   90SAPS   H9R 8731   1.619  -0.347   9.892 -1.6532 -0.7362  1.2685
   90SAPS  C210 8732   1.616  -0.132   9.862 -0.0489 -0.2875  0.1724
   90SAPS  H10R 8733   1.639  -0.036   9.913 -1.6615 -0.5071  1.3750
   90SAPS  H10S 8734   1.511  -0.127   9.825 -0.1102 -1.4127  0.1555
   90SAPS  C211 8735   1.710  -0.150   9.746  0.1504  0.2061 -0.0599
   90SAPS  H11R 8736   1.805  -0.102   9.775 -0.2879  1.2695 -0.3485
   90SAPS  C212 8737   1.677  -0.202   9.622  0.4017 -0.3628  0.3724
   90SAPS  H12R 8738   1.751  -0.197   9.541  0.0497 -2.6692 -0.1495
   90SAPS  C213 8739   1.542  -0.246   9.586  0.0416  0.9285  0.2558
   90SAPS  H13R 8740   1.492  -0.279   9.680  0.8622  3.5283  1.7038
   90SAPS  H13S 8741   1.558  -0.333   9.519  1.5099 -0.9966  2.9120
   90SAPS  C214 8742   1.463  -0.137   9.518 -0.2643 -0.4478  0.9220
   90SAPS  H14R 8743   1.478  -0.039   9.565 -2.6315  0.8053 -0.7604
   90SAPS  C215 8744   1.399  -0.135   9.399 -0.0119 -0.2955  0.4500
   90SAPS  H15R 8745   1.349  -0.040   9.373  0.5394 -0.2162 -0.3627
   90SAPS  C216 8746   1.358  -0.254   9.307  0.1375 -0.4149 -0.4302
   90SAPS  H16R 8747   1.249  -0.241   9.291  0.0950  2.6152  1.5036
   90SAPS  H16S 8748   1.361  -0.357   9.348 -1.4053 -0.7667 -1.1194
   90SAPS  C217 8749   1.432  -0.261   9.168  0.5677  0.9621 -0.0412
   90SAPS  H17R 8750   1.388  -0.180   9.106  0.4318  0.8550 -0.0862
   90SAPS  H17S 8751   1.391  -0.355   9.125  1.2667  0.3459  0.6183
   90SAPS  C218 8752   1.579  -0.262   9.185  0.5425 -0.8581  0.3219
   90SAPS  H18R 8753   1.602  -0.337   9.263 -1.4027 -0.0096  1.8115
   90SAPS  H18S 8754   1.615  -0.160   9.212  1.1376 -0.6627 -1.1153
   90SAPS  C219 8755   1.653  -0.298   9.052  0.3192 -0.6616  0.2959
   90SAPS  H19R 8756   1.628  -0.402   9.019  1.1376 -0.9826  0.6521
   90SAPS  H19S 8757   1.760  -0.299   9.081  0.1460  1.1921  1.1324
   90SAPS  C220 8758   1.619  -0.205   8.941 -0.1548 -0.1838 -0.0219
   90SAPS  H20R 8759   1.512  -0.213   8.913 -0.5032 -0.1836  1.2543
   90SAPS  H20S 8760   1.681  -0.226   8.851  0.8142 -0.1711  0.6289
   90SAPS  H20T 8761   1.643  -0.100   8.967  0.1305  0.1112 -1.4092
   90SAPS   C33 8762   1.103  -0.101  10.103  0.8952 -0.2718 -0.4181
   90SAPS   H3X 8763   1.060  -0.010  10.055  3.5211  2.4633  1.9579
   90SAPS   H3Y 8764   1.019  -0.162  10.142  1.8669 -0.9353  0.6891
   90SAPS   C34 8765   1.170  -0.191   9.998  0.9163  0.4843  0.7768
   90SAPS   H4X 8766   1.217  -0.272  10.058  1.2832  0.3613  0.3356
   90SAPS   H4Y 8767   1.243  -0.124   9.948  0.3944  0.8575  0.4998
   90SAPS   C35 8768   1.067  -0.242   9.899 -0.1446  0.1921  0.0803
   90SAPS   H5X 8769   1.019  -0.146   9.868  2.8829  1.7714 -0.0879
   90SAPS   H5Y 8770   0.993  -0.309   9.948 -0.0642 -0.2122 -0.3483
   90SAPS   C36 8771   1.131  -0.311   9.781 -0.7742  0.3995  0.0250
   90SAPS   H6X 8772   1.173  -0.407   9.816  1.4477  2.2285  2.7759
   90SAPS   H6Y 8773   1.215  -0.249   9.744  0.5029 -0.5572  1.2702
   90SAPS   C37 8774   1.024  -0.332   9.677  0.1370  0.3281  0.0564
   90SAPS   H7X 8775   0.999  -0.229   9.642  0.8638  0.4129 -0.2433
   90SAPS   H7Y 8776   0.934  -0.369   9.730  1.1928  0.9345  2.4195
   90SAPS   C38 8777   1.058  -0.422   9.550  0.1942 -0.1426 -0.6076
   90SAPS   H8X 8778   1.109  -0.516   9.578  0.6397 -0.2113 -1.6102
   90SAPS   H8Y 8779   1.122  -0.358   9.486 -4.4729  3.9716 -1.7819
   90SAPS   C39 8780   0.936  -0.465   9.462  0.1001 -0.4205 -0.1971
   90SAPS   H9X 8781   0.868  -0.376   9.460 -0.1893 -0.6453 -0.9779
   90SAPS   H9Y 8782   0.886  -0.552   9.510  1.0097 -2.1055 -2.1507
   90SAPS  C310 8783   0.986  -0.499   9.322  0.0515 -0.3559  0.3681
   90SAPS  H10X 8784   1.020  -0.604   9.326  1.3744  0.0414  0.0034
   90SAPS  H10Y 8785   1.053  -0.424   9.273 -1.5809  0.7681 -0.2561
   90SAPS  C311 8786   0.869  -0.488   9.221 -0.2491 -0.8091  0.6757
   90SAPS  H11X 8787   0.824  -0.387   9.227 -2.3837 -1.6128 -0.6516
   90SAPS  H11Y 8788   0.790  -0.562   9.246 -1.1068 -0.1256  0.0154
   90SAPS  C312 8789   0.918  -0.512   9.084  0.1355 -0.1145 -0.0395
   90SAPS  H12X 8790   0.985  -0.600   9.091 -1.1075 -0.9678  2.1411
   90SAPS  H12Y 8791   0.986  -0.429   9.053  1.8333 -2.0691 -1.8803
   90SAPS  C313 8792   0.801  -0.528   8.989 -0.4145  0.5161 -0.0475
   90SAPS  H13X 8793   0.731  -0.442   9.000  1.3714  1.8865  1.1358
   90SAPS  H13Y 8794   0.743  -0.623   8.998  1.4044 -0.9582 -2.5642
   90SAPS  C314 8795   0.856  -0.517   8.841  0.1751  0.1200  0.3602
   90SAPS  H14X 8796   0.892  -0.412   8.830  0.7097  0.0125  0.9968
   90SAPS  H14Y 8797   0.781  -0.544   8.764  0.3731  1.0815 -0.1823
   90SAPS  C315 8798   0.968  -0.621   8.812 -0.2848  0.3860  0.1023
   90SAPS  H15X 8799   1.043  -0.614   8.893 -1.0875 -1.1016  1.0017
   90SAPS  H15Y 8800   1.011  -0.601   8.711  0.8793  1.0468  0.7142
   90SAPS  C316 8801   0.899  -0.758   8.806  0.3249 -0.9091 -0.0754
   90SAPS  H16X 8802   0.826  -0.761   8.723 -0.2920 -0.7924  0.4597
   90SAPS  H16Y 8803   0.842  -0.781   8.899  1.2222 -3.0592  0.0137
   90SAPS  C317 8804   0.996  -0.873   8.779 -0.1280 -0.0695 -0.5994
   90SAPS  H17X 8805   0.966  -0.955   8.848  1.6453 -0.9133 -0.7882
   90SAPS  H17Y 8806   1.093  -0.831   8.814 -0.5059  0.4560 -0.1674
   90SAPS  C318 8807   1.004  -0.923   8.636 -0.3551 -0.2095  0.2387
   90SAPS  H18X 8808   1.051  -0.840   8.578 -2.1804 -0.2885 -1.4304
   90SAPS  H18Y 8809   0.902  -0.937   8.595 -0.8033  3.8800 -0.4615
   90SAPS  H18Z 8810   1.067  -1.014   8.625 -0.4604 -0.1023 -1.5428
   91SAPS     N 8811   5.025   4.337   5.813 -0.1344  0.1465  0.1383
   91SAPS   HN1 8812   5.079   4.425   5.826  1.1919 -0.5872 -0.2421
   91SAPS   HN2 8813   5.088   4.271   5.765 -1.4130 -1.0415  0.0393
   91SAPS   HN3 8814   4.943   4.352   5.750 -0.8595 -1.0718  0.7528
   91SAPS   C12 8815   4.986   4.286   5.938  0.4846  0.1272  0.6312
   91SAPS  H12A 8816   4.928   4.354   5.999  2.7153  1.6823  1.1560
   91SAPS   C13 8817   4.883   4.169   5.921 -0.2653 -0.4498  0.1284
   91SAPS  O13A 8818   4.846   4.140   5.803 -0.3752 -0.2995  0.0093
   91SAPS  O13B 8819   4.871   4.092   6.015 -0.3426  0.0945 -0.0597
   91SAPS   C11 8820   5.110   4.250   6.014 -0.6928 -0.0350 -0.8088
   91SAPS  H11A 8821   5.165   4.177   5.949 -0.7441 -1.0996  0.3149
   91SAPS  H11B 8822   5.102   4.194   6.109  0.4314  0.6998 -0.2483
   91SAPS     P 8823   5.217   4.437   6.176 -0.4609 -0.1037 -0.4015
   91SAPS   O13 8824   5.347   4.512   6.187 -0.3042  0.3635  1.1614
   91SAPS   O14 8825   5.094   4.511   6.203  0.1937 -0.4358 -0.1051
   91SAPS   O12 8826   5.199   4.366   6.039  0.5508  0.2140  0.0312
   91SAPS   O11 8827   5.220   4.325   6.288  0.2877  0.3199 -0.0971
   91SAPS    C1 8828   5.326   4.228   6.282  1.1178 -0.4467  0.3046
   91SAPS    HA 8829   5.286   4.127   6.257  0.3295  0.2358 -1.3110
   91SAPS    HB 8830   5.398   4.246   6.200  2.2577  1.8136  1.7075
   91SAPS    C2 8831   5.415   4.210   6.411  0.6996  0.4402  0.2723
   91SAPS    HS 8832   5.493   4.135   6.387  2.9994  2.7481  0.1089
   91SAPS   O21 8833   5.334   4.163   6.521  0.0285  0.8574  0.5106
   91SAPS   C21 8834   5.290   4.034   6.513  0.3622 -0.6698 -0.0188
   91SAPS   O22 8835   5.308   3.960   6.419 -0.5392 -0.2938  0.2626
   91SAPS   C22 8836   5.247   3.987   6.649 -0.2951  0.6563 -0.6994
   91SAPS   H2R 8837   5.334   4.018   6.712 -0.7978  1.3269 -0.3200
   91SAPS   H2S 8838   5.153   4.035   6.685 -1.3298 -2.2103  0.7015
   91SAPS    C3 8839   5.482   4.341   6.434 -0.3960 -0.1851  0.5164
   91SAPS    HX 8840   5.408   4.424   6.439  1.0405  1.1765  0.0221
   91SAPS    HY 8841   5.538   4.364   6.341 -2.2241 -1.5876 -1.0131
   91SAPS   O31 8842   5.557   4.334   6.553  0.0575  0.0600 -0.5989
   91SAPS   C31 8843   5.504   4.386   6.669 -1.0495  0.0331  0.5188
   91SAPS   O32 8844   5.397   4.442   6.677  0.2212 -0.0283  0.8522
   91SAPS   C32 8845   5.602   4.356   6.788 -0.0399 -0.3130  0.1552
   91SAPS   H2X 8846   5.699   4.408   6.769 -0.2072 -0.3505 -0.8737
   91SAPS   H2Y 8847   5.621   4.248   6.774  1.6987  0.1941 -1.9184
   91SAPS   C23 8848   5.210   3.839   6.644 -0.1536  0.4908  0.0140
   91SAPS   H3R 8849   5.296   3.776   6.612 -1.1944 -0.2491 -1.4898
   91SAPS   H3S 8850   5.148   3.819   6.553  1.1939  2.3494 -1.3933
   91SAPS   C24 8851   5.146   3.790   6.772 -0.1592 -0.4840  0.0710
   91SAPS   H4R 8852   5.216   3.816   6.854  0.8028 -1.3634 -0.4588
   91SAPS   H4S 8853   5.143   3.679   6.780  2.0119 -0.7976 -2.2740
   91SAPS   C25 8854   5.009   3.849   6.804 -0.5982  0.1375  0.0130
   91SAPS   H5R 8855   4.930   3.828   6.731 -0.4326  1.5856 -0.6109
   91SAPS   C26 8856   4.968   3.923   6.908  0.5796 -0.7289  0.1699
   91SAPS   H6R 8857   4.862   3.953   6.912  0.9953  0.6099  1.5613
   91SAPS   C27 8858   5.039   3.975   7.025 -0.8839 -0.1813 -0.2618
   91SAPS   H7R 8859   5.077   3.891   7.088  0.5856  0.9701  0.4512
   91SAPS   H7S 8860   4.973   4.038   7.088  0.9438  2.8250 -1.1811
   91SAPS   C28 8861   5.161   4.067   7.002 -0.0779 -0.1452  0.9145
   91SAPS   H8R 8862   5.143   4.144   6.926  1.5795 -0.6594 -0.0471
   91SAPS   C29 8863   5.287   4.058   7.053  0.1043 -0.0627 -0.4169
   91SAPS   H9R 8864   5.362   4.129   7.015  0.3189 -0.9660 -1.7677
   91SAPS  C210 8865   5.325   3.945   7.147  0.0846 -0.3142  0.1616
   91SAPS  H10R 8866   5.298   3.843   7.114  1.0817 -0.5625  0.0813
   91SAPS  H10S 8867   5.287   3.965   7.249 -1.1614 -0.4556 -0.2590
   91SAPS  C211 8868   5.477   3.938   7.146  0.0494  0.2368  0.9553
   91SAPS  H11R 8869   5.526   3.986   7.060  0.4257  0.6736  1.4103
   91SAPS  C212 8870   5.558   3.866   7.219  0.1572  0.0881  1.0289
   91SAPS  H12R 8871   5.665   3.892   7.212 -0.4509  2.3107 -1.3872
   91SAPS  C213 8872   5.497   3.774   7.321 -0.1602  0.4774  0.6757
   91SAPS  H13R 8873   5.391   3.748   7.299  0.2462 -1.2687  0.6898
   91SAPS  H13S 8874   5.494   3.826   7.419  0.2590 -1.7728  1.9471
   91SAPS  C214 8875   5.585   3.650   7.340 -0.7911  1.0198  0.3435
   91SAPS  H14R 8876   5.613   3.600   7.246  0.1469 -0.4133  1.3411
   91SAPS  C215 8877   5.598   3.578   7.453 -0.1257 -0.6471 -0.0707
   91SAPS  H15R 8878   5.657   3.485   7.464 -0.3698 -0.6905  1.0132
   91SAPS  C216 8879   5.520   3.613   7.579 -0.1783  0.2348 -0.1470
   91SAPS  H16R 8880   5.451   3.698   7.560 -1.0058 -0.5248 -0.6502
   91SAPS  H16S 8881   5.587   3.650   7.659 -0.8883  1.0845  0.0755
   91SAPS  C217 8882   5.447   3.487   7.631  0.2639  0.1667  1.1143
   91SAPS  H17R 8883   5.521   3.407   7.652 -0.9230 -1.0740  0.6919
   91SAPS  H17S 8884   5.388   3.445   7.547 -0.9489  0.0607  1.9876
   91SAPS  C218 8885   5.352   3.513   7.752 -0.3816  0.0341 -0.0899
   91SAPS  H18R 8886   5.280   3.429   7.768 -2.5338  1.3507 -2.2378
   91SAPS  H18S 8887   5.293   3.603   7.725 -1.5777 -0.7327 -0.1295
   91SAPS  C219 8888   5.419   3.532   7.894  0.0897 -0.8266 -0.2171
   91SAPS  H19R 8889   5.491   3.614   7.872  1.1390 -2.1653 -2.0480
   91SAPS  H19S 8890   5.476   3.442   7.924  0.6817 -0.2182  0.5133
   91SAPS  C220 8891   5.335   3.574   8.012 -0.0546 -0.0997  0.7051
   91SAPS  H20R 8892   5.263   3.495   8.041 -3.7126  2.4563 -0.7414
   91SAPS  H20S 8893   5.291   3.672   7.987  2.3345  0.7934 -0.2291
   91SAPS  H20T 8894   5.400   3.579   8.102 -0.7684  3.1823  1.1322
   91SAPS   C33 8895   5.530   4.390   6.929  0.0984  0.3371  0.1052
   91SAPS   H3X 8896   5.424   4.359   6.927  0.5219 -1.1854 -0.5324
   91SAPS   H3Y 8897   5.534   4.497   6.957  0.9163  0.4890 -0.5506
   91SAPS   C34 8898   5.601   4.308   7.033  0.0442 -0.3648 -0.7302
   91SAPS   H4X 8899   5.704   4.348   7.045 -0.3285  0.3691  0.1101
   91SAPS   H4Y 8900   5.606   4.204   6.995 -0.8857 -0.7152  0.0792
   91SAPS   C35 8901   5.533   4.313   7.171  0.2421 -0.1303  0.3211
   91SAPS   H5X 8902   5.429   4.278   7.160  0.8004 -1.5188 -0.8926
   91SAPS   H5Y 8903   5.524   4.422   7.191  1.3197  0.4275 -1.9586
   91SAPS   C36 8904   5.614   4.245   7.284 -0.2314 -0.4653 -0.0942
   91SAPS   H6X 8905   5.709   4.303   7.281  0.2650 -1.2773 -1.3286
   91SAPS   H6Y 8906   5.635   4.140   7.255  0.5795 -0.2320 -0.3830
   91SAPS   C37 8907   5.554   4.253   7.435 -0.5103  0.5979  0.9774
   91SAPS   H7X 8908   5.464   4.189   7.419 -0.4559  0.6173  0.5714
   91SAPS   H7Y 8909   5.534   4.362   7.446  1.7907  1.4167 -1.6887
   91SAPS   C38 8910   5.654   4.197   7.543  0.2273  0.5759 -0.8246
   91SAPS   H8X 8911   5.712   4.280   7.590 -1.0669  0.9719  0.1613
   91SAPS   H8Y 8912   5.722   4.124   7.496  0.3077 -1.2854  1.9845
   91SAPS   C39 8913   5.575   4.130   7.655  0.1623 -0.2015 -0.2879
   91SAPS   H9X 8914   5.472   4.100   7.625  0.2756 -1.3074  0.3562
   91SAPS   H9Y 8915   5.565   4.205   7.736  2.2634  0.5469 -0.6696
   91SAPS  C310 8916   5.640   4.000   7.707 -0.5632 -0.1606  0.2588
   91SAPS  H10X 8917   5.742   4.028   7.740 -0.5646 -0.5052  0.5572
   91SAPS  H10Y 8918   5.655   3.926   7.626 -0.3297  0.6115 -0.4228
   91SAPS  C311 8919   5.546   3.925   7.804 -0.0280 -0.2755 -0.0867
   91SAPS  H11X 8920   5.604   3.840   7.844  0.5829 -0.4041 -1.2139
   91SAPS  H11Y 8921   5.457   3.884   7.752  1.1267 -0.8083 -1.7239
   91SAPS  C312 8922   5.497   4.020   7.914 -0.9211  0.4665  0.1588
   91SAPS  H12X 8923   5.419   4.092   7.881 -0.1204  0.1284 -2.8061
   91SAPS  H12Y 8924   5.581   4.090   7.937 -1.1461  0.9188 -0.3616
   91SAPS  C313 8925   5.459   3.942   8.038  0.6718  0.7851  0.1779
   91SAPS  H13X 8926   5.538   3.867   8.062  0.3420  0.2739 -0.2992
   91SAPS  H13Y 8927   5.365   3.893   8.007  1.3994 -0.8668  0.4372
   91SAPS  C314 8928   5.421   4.041   8.155  0.4532  0.1503 -0.0609
   91SAPS  H14X 8929   5.371   4.127   8.106  1.8277 -0.6392 -3.0332
   91SAPS  H14Y 8930   5.521   4.077   8.189  0.4156 -1.0741  1.5124
   91SAPS  C315 8931   5.324   3.986   8.261  0.0517 -0.4818 -0.3097
   91SAPS  H15X 8932   5.225   3.987   8.210  1.0692 -0.2664 -2.3839
   91SAPS  H15Y 8933   5.313   4.060   8.343  1.3562  0.2932 -0.8071
   91SAPS  C316 8934   5.367   3.854   8.312  0.0953  0.2536 -0.5529
   91SAPS  H16X 8935   5.360   3.777   8.232 -0.4493 -1.0407  0.6840
   91SAPS  H16Y 8936   5.298   3.825   8.395 -0.8713 -0.1532 -1.4693
   91SAPS  C317 8937   5.514   3.860   8.372 -0.2537 -0.0716 -0.4721
   91SAPS  H17X 8938   5.512   3.933   8.455 -1.0377 -1.7081  1.0076
   91SAPS  H17Y 8939   5.590   3.887   8.295  0.0068 -1.2760 -0.6598
   91SAPS  C318 8940   5.561   3.720   8.426 -0.3810 -0.7045 -0.6433
   91SAPS  H18X 8941   5.659   3.745   8.471  1.5187 -2.2347 -3.5859
   91SAPS  H18Y 8942   5.583   3.647   8.344  1.1808  2.6380 -3.4480
   91SAPS  H18Z 8943   5.501   3.663   8.501  0.4168  0.5129  0.9720
   92SAPS     N 8944   6.216   3.457   6.280 -0.2390  0.3570  0.0540
   92SAPS   HN1 8945   6.265   3.381   6.331  1.7421  0.2852 -1.8214
   92SAPS   HN2 8946   6.241   3.437   6.181  0.3152  0.1397  0.2371
   92SAPS   HN3 8947   6.254   3.547   6.314 -1.5326  0.9402 -0.0067
   92SAPS   C12 8948   6.066   3.457   6.290  0.0106  0.3173  0.5018
   92SAPS  H12A 8949   6.032   3.529   6.218 -0.1668  0.1024  0.3709
   92SAPS   C13 8950   6.002   3.324   6.260  0.8550  0.6518  0.1622
   92SAPS  O13A 8951   6.073   3.221   6.245 -0.1382 -0.4710 -0.3757
   92SAPS  O13B 8952   5.877   3.318   6.230  0.7414 -0.1758  0.4081
   92SAPS   C11 8953   6.009   3.492   6.432  0.0343  0.5103  0.3356
   92SAPS  H11A 8954   6.041   3.427   6.517  2.3858  0.0996 -0.7853
   92SAPS  H11B 8955   5.899   3.482   6.440 -0.0382 -0.0947 -1.1021
   92SAPS     P 8956   5.953   3.748   6.418  0.1880  0.0536 -0.0506
   92SAPS   O13 8957   5.996   3.872   6.488  0.6246 -0.2851  0.0480
   92SAPS   O14 8958   5.972   3.760   6.272 -0.6238 -0.6138  0.4514
   92SAPS   O12 8959   6.039   3.623   6.470 -0.4272 -0.9086  0.2147
   92SAPS   O11 8960   5.802   3.712   6.451 -0.3554  0.1085  0.1757
   92SAPS    C1 8961   5.696   3.802   6.437 -0.7526  0.0577 -0.2102
   92SAPS    HA 8962   5.718   3.910   6.447 -3.7415  0.8974 -1.3760
   92SAPS    HB 8963   5.657   3.800   6.333  0.6185 -2.0134 -0.7596
   92SAPS    C2 8964   5.575   3.757   6.522  0.3926 -0.0025 -0.3118
   92SAPS    HS 8965   5.501   3.835   6.493  0.2220 -0.1526 -0.2838
   92SAPS   O21 8966   5.610   3.768   6.663  0.2666 -0.2961 -0.0472
   92SAPS   C21 8967   5.639   3.889   6.713  0.6023  0.7066 -0.8588
   92SAPS   O22 8968   5.602   3.993   6.665  0.4396 -0.2689  0.3533
   92SAPS   C22 8969   5.701   3.867   6.853 -1.0562  0.0343  0.7214
   92SAPS   H2R 8970   5.665   3.940   6.929 -0.4740  1.5593 -0.4134
   92SAPS   H2S 8971   5.681   3.767   6.896 -0.1485 -1.4095 -2.0006
   92SAPS    C3 8972   5.523   3.612   6.492 -0.1927 -0.0847 -0.0090
   92SAPS    HX 8973   5.615   3.552   6.505 -0.3996 -0.3525  0.2267
   92SAPS    HY 8974   5.488   3.611   6.386 -1.6242  1.1572  0.4053
   92SAPS   O31 8975   5.422   3.571   6.583  0.1054  0.4135  0.3191
   92SAPS   C31 8976   5.458   3.485   6.686  0.5289  0.2003 -0.3050
   92SAPS   O32 8977   5.569   3.450   6.717 -0.3184 -0.0293  0.5064
   92SAPS   C32 8978   5.334   3.431   6.746  0.7706  0.3421 -0.8803
   92SAPS   H2X 8979   5.308   3.331   6.707 -1.5120  1.3707 -2.2541
   92SAPS   H2Y 8980   5.251   3.497   6.711  0.0000 -0.9795 -1.6416
   92SAPS   C23 8981   5.851   3.890   6.845  0.2799 -0.0238  0.2703
   92SAPS   H3R 8982   5.889   3.832   6.758 -2.6424  0.3174 -1.3750
   92SAPS   H3S 8983   5.897   3.856   6.940 -1.1191 -3.2318 -0.0982
   92SAPS   C24 8984   5.881   4.040   6.828 -0.7991  0.4672  0.2171
   92SAPS   H4R 8985   5.815   4.095   6.899 -0.0075 -0.5791  1.8344
   92SAPS   H4S 8986   5.865   4.069   6.722  0.2826 -3.0046 -1.0398
   92SAPS   C25 8987   6.030   4.058   6.864  0.5155 -0.0381 -0.0268
   92SAPS   H5R 8988   6.102   4.026   6.787 -1.4488 -0.4721 -1.7634
   92SAPS   C26 8989   6.077   4.109   6.979  0.2503 -0.3624  0.4147
   92SAPS   H6R 8990   6.186   4.122   6.991  0.4046 -1.9891  0.9825
   92SAPS   C27 8991   5.983   4.150   7.093 -0.5821  0.4496  0.2089
   92SAPS   H7R 8992   5.901   4.210   7.049  0.3583  0.2457 -1.9141
   92SAPS   H7S 8993   6.035   4.229   7.152  0.2247  2.1858 -2.6113
   92SAPS   C28 8994   5.935   4.041   7.185 -0.0733 -0.0545  0.0954
   92SAPS   H8R 8995   5.863   3.975   7.135 -0.7082  0.2297  0.6143
   92SAPS   C29 8996   5.979   4.016   7.309  0.8301  0.2343 -0.0524
   92SAPS   H9R 8997   5.946   3.921   7.354  0.3211  0.8075  0.8032
   92SAPS  C210 8998   6.084   4.092   7.382 -0.4569 -0.0914  0.3208
   92SAPS  H10R 8999   6.117   4.189   7.338  1.4697 -0.7560  0.2352
   92SAPS  H10S 9000   6.171   4.024   7.377  0.1559  0.7097 -0.1115
   92SAPS  C211 9001   6.024   4.117   7.522 -0.3773 -0.9022 -0.2568
   92SAPS  H11R 9002   5.942   4.189   7.513 -1.2220 -1.8395 -0.2077
   92SAPS  C212 9003   6.067   4.051   7.636 -0.2267 -0.8469 -0.4147
   92SAPS  H12R 9004   6.020   4.086   7.729  1.2493  1.7148 -0.5464
   92SAPS  C213 9005   6.174   3.944   7.653 -0.6358 -0.2240  0.1915
   92SAPS  H13R 9006   6.267   3.992   7.619 -1.0748  2.2477  2.2204
   92SAPS  H13S 9007   6.134   3.870   7.579 -1.6146 -0.6606  1.1148
   92SAPS  C214 9008   6.200   3.892   7.791 -0.2796 -0.0704  0.1857
   92SAPS  H14R 9009   6.112   3.878   7.855  0.4952 -0.4180  1.1956
   92SAPS  C215 9010   6.319   3.849   7.838 -0.5432 -0.7290  0.3375
   92SAPS  H15R 9011   6.330   3.806   7.938  2.6882  0.5521  0.6550
   92SAPS  C216 9012   6.453   3.856   7.759  0.5226  0.1079  0.1014
   92SAPS  H16R 9013   6.540   3.851   7.828 -0.7866 -0.0635  1.8309
   92SAPS  H16S 9014   6.459   3.952   7.703 -2.1735  0.3528  0.0811
   92SAPS  C217 9015   6.473   3.734   7.663  0.1257  0.2356 -0.2847
   92SAPS  H17R 9016   6.402   3.748   7.578 -1.6868  1.0567  1.2909
   92SAPS  H17S 9017   6.440   3.643   7.717 -1.5770 -0.2270 -2.0062
   92SAPS  C218 9018   6.619   3.726   7.606  0.6876  0.2297 -0.5368
   92SAPS  H18R 9019   6.636   3.633   7.548 -1.4812 -1.5646  1.5244
   92SAPS  H18S 9020   6.680   3.708   7.697 -0.4595 -1.9670 -0.1341
   92SAPS  C219 9021   6.672   3.848   7.535 -0.3323  0.1144 -0.0706
   92SAPS  H19R 9022   6.775   3.809   7.524 -1.0752 -1.2795 -3.5815
   92SAPS  H19S 9023   6.669   3.942   7.593 -0.7210 -0.8838  1.6006
   92SAPS  C220 9024   6.610   3.865   7.396 -0.0022 -0.1223 -0.4763
   92SAPS  H20R 9025   6.660   3.956   7.357 -0.0250  0.4814  0.8478
   92SAPS  H20S 9026   6.502   3.892   7.406  0.2197  0.1264  1.7193
   92SAPS  H20T 9027   6.618   3.779   7.326 -0.2649 -1.8029  1.4824
   92SAPS   C33 9028   5.332   3.441   6.903  0.4727  0.8957  0.2590
   92SAPS   H3X 9029   5.344   3.543   6.946 -1.9662  0.8870  1.1479
   92SAPS   H3Y 9030   5.417   3.384   6.945  1.9168  2.1186 -0.9221
   92SAPS   C34 9031   5.194   3.378   6.961  0.2396  0.0065 -0.1859
   92SAPS   H4X 9032   5.182   3.271   6.934 -2.3380  0.2963 -0.3758
   92SAPS   H4Y 9033   5.123   3.432   6.895  1.0531 -0.1220 -1.1921
   92SAPS   C35 9034   5.170   3.403   7.108  0.6862 -0.9709 -0.5251
   92SAPS   H5X 9035   5.253   3.355   7.164  0.0403  1.2554  2.5889
   92SAPS   H5Y 9036   5.079   3.344   7.133  0.7885 -0.8345  0.1829
   92SAPS   C36 9037   5.148   3.553   7.151 -1.0308 -0.3137 -0.0522
   92SAPS   H6X 9038   5.055   3.590   7.104 -2.8874 -3.6051  0.7073
   92SAPS   H6Y 9039   5.242   3.605   7.123  0.8310 -2.6056  1.4508
   92SAPS   C37 9040   5.120   3.579   7.304  0.2121 -0.0339  0.0622
   92SAPS   H7X 9041   5.212   3.570   7.366 -1.2789  1.0886  2.6088
   92SAPS   H7Y 9042   5.035   3.530   7.355 -0.8359  2.4014  0.8094
   92SAPS   C38 9043   5.065   3.724   7.332 -0.1728  0.6076  0.4236
   92SAPS   H8X 9044   4.963   3.742   7.291  0.2554  0.7944 -0.5951
   92SAPS   H8Y 9045   5.139   3.791   7.282  1.3132 -1.0174  0.3622
   92SAPS   C39 9046   5.082   3.784   7.472 -0.5557 -0.0874  0.1053
   92SAPS   H9X 9047   5.172   3.738   7.519 -0.0686 -1.6585 -2.1839
   92SAPS   H9Y 9048   4.992   3.752   7.529  0.6826 -0.2371  2.0961
   92SAPS  C310 9049   5.084   3.933   7.482 -0.0611  0.8389 -0.0935
   92SAPS  H10X 9050   5.013   3.970   7.405 -1.0973  1.3160  1.0575
   92SAPS  H10Y 9051   5.183   3.971   7.448  0.7193 -2.0580 -1.2980
   92SAPS  C311 9052   5.044   3.989   7.614  0.3605 -0.2848  0.4189
   92SAPS  H11X 9053   4.956   3.935   7.656  1.0714 -0.3815  1.8225
   92SAPS  H11Y 9054   5.012   4.095   7.603  1.6422 -0.0435 -1.3879
   92SAPS  C312 9055   5.157   3.972   7.722  0.1482 -0.3817  0.0261
   92SAPS  H12X 9056   5.247   4.023   7.681  1.9766 -0.9694  3.0351
   92SAPS  H12Y 9057   5.178   3.863   7.727 -0.5960 -0.4772  1.6094
   92SAPS  C313 9058   5.112   4.031   7.860 -0.0519  0.4241  0.2908
   92SAPS  H13X 9059   5.083   4.138   7.847 -1.9824 -0.0684  0.2392
   92SAPS  H13Y 9060   5.198   4.029   7.929  1.2044  0.3774 -1.2206
   92SAPS  C314 9061   5.013   3.946   7.942 -0.0747 -0.4219 -0.3696
   92SAPS  H14X 9062   5.069   3.862   7.987 -0.2815  0.4781  1.6855
   92SAPS  H14Y 9063   4.937   3.895   7.879 -2.2882 -1.1283  2.6748
   92SAPS  C315 9064   4.946   4.034   8.046 -0.1018  0.2415 -0.0741
   92SAPS  H15X 9065   4.867   4.094   7.996 -1.6755 -0.8445  0.9768
   92SAPS  H15Y 9066   5.031   4.095   8.083  0.4881  0.4515 -1.7109
   92SAPS  C316 9067   4.873   3.940   8.146 -0.0885 -0.4582  0.1714
   92SAPS  H16X 9068   4.949   3.867   8.182 -0.0045 -0.0358  0.8498
   92SAPS  H16Y 9069   4.802   3.876   8.088 -3.4023  2.3794  0.7956
   92SAPS  C317 9070   4.803   4.019   8.249  0.8621 -0.1397 -1.1590
   92SAPS  H17X 9071   4.709   4.059   8.204 -1.2426 -3.6477 -0.2512
   92SAPS  H17Y 9072   4.861   4.104   8.291 -1.0304 -0.6030  2.7983
   92SAPS  C318 9073   4.769   3.927   8.367  0.5006  0.1560 -0.4222
   92SAPS  H18X 9074   4.861   3.876   8.402 -0.9220 -0.9427  1.9143
   92SAPS  H18Y 9075   4.696   3.852   8.329  0.2431  1.3833 -2.5328
   92SAPS  H18Z 9076   4.726   3.983   8.452  1.0624 -0.7727  0.5123
   93SAPS     N 9077   6.345   2.022   6.153 -0.4639  0.2388 -0.4723
   93SAPS   HN1 9078   6.316   2.090   6.226  1.2487  1.8345 -1.1853
   93SAPS   HN2 9079   6.275   2.025   6.076  0.2054  1.6877 -1.0671
   93SAPS   HN3 9080   6.350   1.933   6.206 -1.4125  1.8490  2.5909
   93SAPS   C12 9081   6.477   2.070   6.093  0.6300  0.2462  0.1061
   93SAPS  H12A 9082   6.506   1.993   6.023  1.1841  0.0055  0.5967
   93SAPS   C13 9083   6.456   2.197   6.007 -0.2341 -0.3454  0.7570
   93SAPS  O13A 9084   6.346   2.241   5.977  0.1711 -0.3508  0.4049
   93SAPS  O13B 9085   6.568   2.248   5.956  0.2518 -0.4650  0.4265
   93SAPS   C11 9086   6.586   2.090   6.201  0.2050 -0.4674 -0.9914
   93SAPS  H11A 9087   6.560   2.168   6.275  0.9390  0.1881 -1.4092
   93SAPS  H11B 9088   6.682   2.111   6.149  1.1266  0.7107  1.0598
   93SAPS     P 9089   6.725   1.952   6.370  0.2444  0.0784  0.0576
   93SAPS   O13 9090   6.747   1.811   6.401 -0.0206 -0.5551  0.0084
   93SAPS   O14 9091   6.837   2.035   6.320 -0.1517  0.1699  0.1103
   93SAPS   O12 9092   6.604   1.967   6.272  0.0350 -0.0480 -0.2002
   93SAPS   O11 9093   6.665   2.032   6.487  0.8579  0.3535 -0.6131
   93SAPS    C1 9094   6.535   1.996   6.537  0.8234  0.8625  0.1681
   93SAPS    HA 9095   6.472   2.087   6.532  0.5951  0.7340  0.6686
   93SAPS    HB 9096   6.481   1.921   6.475  2.0887 -0.3337  0.4637
   93SAPS    C2 9097   6.535   1.944   6.690 -0.8949 -0.1437  0.4962
   93SAPS    HS 9098   6.536   2.034   6.755  0.8760 -1.6791  2.7686
   93SAPS   O21 9099   6.657   1.866   6.705 -0.2898 -0.1203  0.3444
   93SAPS   C21 9100   6.765   1.935   6.730 -0.4651  0.3642 -0.0850
   93SAPS   O22 9101   6.771   2.052   6.749 -0.2500 -0.2212  0.8198
   93SAPS   C22 9102   6.894   1.850   6.725 -0.0206 -0.0527  0.1285
   93SAPS   H2R 9103   6.859   1.744   6.720  0.8020 -0.3916  1.3391
   93SAPS   H2S 9104   6.949   1.885   6.635 -0.1245  2.1003  0.8545
   93SAPS    C3 9105   6.408   1.857   6.731 -1.1620  0.0305 -0.3368
   93SAPS    HX 9106   6.388   1.780   6.654  0.1099  1.0569 -1.7563
   93SAPS    HY 9107   6.324   1.929   6.718  0.3112  1.6767 -1.1842
   93SAPS   O31 9108   6.422   1.821   6.874  0.0556  0.6784 -0.2161
   93SAPS   C31 9109   6.493   1.716   6.896 -0.1630 -0.4009  0.5903
   93SAPS   O32 9110   6.555   1.648   6.815  0.1124 -1.2521  0.3969
   93SAPS   C32 9111   6.492   1.684   7.048 -0.1498  0.7867  0.2578
   93SAPS   H2X 9112   6.408   1.614   7.066 -0.3167  1.4364  2.2832
   93SAPS   H2Y 9113   6.476   1.775   7.110 -1.4184  0.8484 -0.1216
   93SAPS   C23 9114   6.978   1.863   6.851 -0.0108 -0.7420 -0.1610
   93SAPS   H3R 9115   6.914   1.816   6.928 -0.3912 -0.7965 -0.5092
   93SAPS   H3S 9116   6.976   1.969   6.886 -3.2536 -0.6255 -0.3951
   93SAPS   C24 9117   7.106   1.782   6.838 -0.3745 -0.2955  0.7765
   93SAPS   H4R 9118   7.172   1.825   6.759 -0.6651 -2.2383 -0.6116
   93SAPS   H4S 9119   7.072   1.682   6.805 -2.0854  0.3844  0.3548
   93SAPS   C25 9120   7.187   1.785   6.965  0.6364 -0.2408 -0.2499
   93SAPS   H5R 9121   7.113   1.804   7.043 -2.0338  0.1620 -2.7239
   93SAPS   C26 9122   7.316   1.781   6.983 -0.0531 -0.2640  0.4682
   93SAPS   H6R 9123   7.358   1.794   7.084 -1.7058  3.1710  0.8746
   93SAPS   C27 9124   7.421   1.768   6.874  0.1049 -0.5256  0.3294
   93SAPS   H7R 9125   7.376   1.779   6.773  0.3781 -1.1720  0.1331
   93SAPS   H7S 9126   7.463   1.665   6.872  1.1563 -0.1095  0.4921
   93SAPS   C28 9127   7.540   1.863   6.876 -0.6244  0.6675 -0.1067
   93SAPS   H8R 9128   7.520   1.946   6.806 -1.0476  1.0724  0.4823
   93SAPS   C29 9129   7.655   1.851   6.945 -0.0157  0.3305  0.2428
   93SAPS   H9R 9130   7.731   1.931   6.950  0.6414 -0.3660  2.5400
   93SAPS  C210 9131   7.675   1.736   7.047  0.3853 -0.7413  0.3483
   93SAPS  H10R 9132   7.722   1.648   6.998  1.0464 -0.6604  0.8265
   93SAPS  H10S 9133   7.574   1.702   7.079 -1.1557  0.8456 -2.3682
   93SAPS  C211 9134   7.760   1.774   7.164 -0.3880 -0.7652 -0.2700
   93SAPS  H11R 9135   7.861   1.804   7.136 -0.6088 -0.9776 -1.3577
   93SAPS  C212 9136   7.714   1.787   7.286 -0.5198 -0.3628 -0.1086
   93SAPS  H12R 9137   7.778   1.822   7.368 -1.5366  1.7604 -0.1398
   93SAPS  C213 9138   7.575   1.757   7.330 -0.1088 -0.3656  0.5162
   93SAPS  H13R 9139   7.549   1.651   7.311  2.3508 -0.6895 -1.6108
   93SAPS  H13S 9140   7.516   1.823   7.263  2.3887  0.2247 -1.2626
   93SAPS  C214 9141   7.538   1.786   7.476 -0.0899 -0.6020  0.2306
   93SAPS  H14R 9142   7.615   1.814   7.551 -0.9669  0.6433  0.7015
   93SAPS  C215 9143   7.409   1.789   7.516 -0.7293  0.2116  0.1996
   93SAPS  H15R 9144   7.379   1.811   7.619 -1.0480  2.1111 -0.2554
   93SAPS  C216 9145   7.291   1.759   7.426  0.2156 -0.0551 -0.2521
   93SAPS  H16R 9146   7.230   1.684   7.479  1.0467 -0.4632  0.1535
   93SAPS  H16S 9147   7.314   1.708   7.330  0.1728 -0.2573 -0.1545
   93SAPS  C217 9148   7.200   1.885   7.413  0.5149 -0.2872 -0.4849
   93SAPS  H17R 9149   7.248   1.967   7.355 -0.7597 -1.5297 -3.4904
   93SAPS  H17S 9150   7.176   1.925   7.514 -3.3929 -1.0274 -0.9711
   93SAPS  C218 9151   7.062   1.860   7.352 -0.4224  0.3099  0.3504
   93SAPS  H18R 9152   6.993   1.847   7.438  0.2680 -2.0933  0.6265
   93SAPS  H18S 9153   7.065   1.762   7.301  0.2278 -0.4956  1.8521
   93SAPS  C219 9154   7.002   1.969   7.270  0.0254  0.2231  0.2511
   93SAPS  H19R 9155   7.071   2.017   7.197  0.5262 -1.4135 -0.3932
   93SAPS  H19S 9156   6.966   2.050   7.336  0.5067  0.5889  0.0751
   93SAPS  C220 9157   6.879   1.921   7.193  1.0102  0.7705 -0.0524
   93SAPS  H20R 9158   6.886   1.822   7.144 -3.6238 -1.6206  3.3434
   93SAPS  H20S 9159   6.834   2.001   7.130  3.5407  1.9969 -0.4184
   93SAPS  H20T 9160   6.792   1.902   7.260  0.5640 -1.7206 -1.2240
   93SAPS   C33 9161   6.619   1.607   7.106  0.4023 -1.5726 -0.3418
   93SAPS   H3X 9162   6.703   1.680   7.093 -0.2369 -0.6362  0.6369
   93SAPS   H3Y 9163   6.637   1.519   7.040  1.8476 -0.1656 -1.9223
   93SAPS   C34 9164   6.599   1.577   7.253  0.3273 -0.1540  1.0797
   93SAPS   H4X 9165   6.666   1.490   7.269  0.4804 -0.2202  0.1632
   93SAPS   H4Y 9166   6.492   1.549   7.269  0.3375  0.2463  1.8765
   93SAPS   C35 9167   6.626   1.700   7.345  0.2105  0.2378 -0.3575
   93SAPS   H5X 9168   6.581   1.793   7.304  1.1882  0.6059 -0.6316
   93SAPS   H5Y 9169   6.736   1.719   7.342  0.3610 -0.5151  0.2267
   93SAPS   C36 9170   6.574   1.667   7.490 -0.1767  0.3474 -0.0200
   93SAPS   H6X 9171   6.635   1.594   7.548 -0.2998  0.7581  0.6283
   93SAPS   H6Y 9172   6.478   1.613   7.479 -0.5831  1.2858 -1.3225
   93SAPS   C37 9173   6.556   1.794   7.571  0.1180  0.4037 -0.3413
   93SAPS   H7X 9174   6.507   1.872   7.509  2.9494 -0.5172 -4.1214
   93SAPS   H7Y 9175   6.658   1.834   7.591  0.0735  0.4302 -0.1664
   93SAPS   C38 9176   6.493   1.776   7.714 -0.0158 -0.2615 -0.2285
   93SAPS   H8X 9177   6.546   1.695   7.769 -0.2012 -1.1904 -1.3687
   93SAPS   H8Y 9178   6.390   1.734   7.704 -0.8293  1.3913  0.7590
   93SAPS   C39 9179   6.474   1.904   7.799  0.2232  0.2689  1.0877
   93SAPS   H9X 9180   6.389   1.964   7.758 -0.7592 -1.1901  0.8888
   93SAPS   H9Y 9181   6.558   1.970   7.771  0.5442 -1.3584 -2.2647
   93SAPS  C310 9182   6.472   1.884   7.947 -0.7576 -0.1251 -0.6401
   93SAPS  H10X 9183   6.579   1.868   7.973 -0.6552 -4.3430 -2.7101
   93SAPS  H10Y 9184   6.406   1.798   7.972  0.6905 -0.3367  3.0753
   93SAPS  C311 9185   6.418   2.007   8.020  0.0287  0.2961 -0.3632
   93SAPS  H11X 9186   6.319   2.037   7.981  0.6248  0.7049 -1.6293
   93SAPS  H11Y 9187   6.473   2.098   7.988  1.4153 -0.1774  0.5819
   93SAPS  C312 9188   6.411   1.982   8.173  0.5430 -0.2391  0.2734
   93SAPS  H12X 9189   6.506   1.978   8.232  1.0429  1.0424 -0.4136
   93SAPS  H12Y 9190   6.358   1.886   8.190 -0.5586  0.2856 -0.0897
   93SAPS  C313 9191   6.305   2.076   8.236 -0.2983  0.1016 -0.9778
   93SAPS  H13X 9192   6.206   2.068   8.186 -1.8644  2.2099  1.4887
   93SAPS  H13Y 9193   6.333   2.183   8.230  0.5706 -0.1936 -2.8078
   93SAPS  C314 9194   6.280   2.043   8.385  0.1472 -0.0182 -0.4048
   93SAPS  H14X 9195   6.215   1.953   8.379 -2.4384  1.7724 -0.9217
   93SAPS  H14Y 9196   6.214   2.124   8.425 -0.0515 -1.4659  2.4795
   93SAPS  C315 9197   6.400   2.037   8.470  0.0082 -0.0697 -0.7841
   93SAPS  H15X 9198   6.476   1.961   8.440  0.4448  0.5614 -1.2846
   93SAPS  H15Y 9199   6.364   2.006   8.570 -0.4188 -1.2776 -1.2940
   93SAPS  C316 9200   6.473   2.174   8.489 -0.3242 -0.2104  0.0812
   93SAPS  H16X 9201   6.400   2.249   8.528  0.6721  0.0266  1.5753
   93SAPS  H16Y 9202   6.520   2.209   8.394 -1.9235 -0.8458 -0.9958
   93SAPS  C317 9203   6.582   2.166   8.589  0.4909  0.6019 -0.1970
   93SAPS  H17X 9204   6.550   2.141   8.692 -2.3523  3.1109 -0.3347
   93SAPS  H17Y 9205   6.627   2.267   8.600  0.4453  0.7953 -1.6188
   93SAPS  C318 9206   6.694   2.068   8.553 -0.2196  0.4443  0.2239
   93SAPS  H18X 9207   6.789   2.100   8.601 -0.6938  2.4908 -0.0901
   93SAPS  H18Y 9208   6.707   2.053   8.443 -1.9275 -1.7676  0.2500
   93SAPS  H18Z 9209   6.663   1.970   8.595 -1.1602  1.6105  2.4295
   94SAPS     N 9210   0.657   6.528   5.816  0.2084  0.3294  0.5753
   94SAPS   HN1 9211   0.616   6.451   5.760 -0.5878  0.7274  0.5900
   94SAPS   HN2 9212   0.753   6.504   5.849  0.2126  0.0687  0.3756
   94SAPS   HN3 9213   0.597   6.530   5.901 -0.3156 -2.4719  0.3659
   94SAPS   C12 9214   0.655   6.662   5.751  0.0100 -0.8729  0.5390
   94SAPS  H12A 9215   0.709   6.659   5.657  0.2557  5.2242  0.0756
   94SAPS   C13 9216   0.507   6.704   5.723  0.1802 -0.5940  0.1029
   94SAPS  O13A 9217   0.411   6.631   5.758  0.0267  0.4565  0.2630
   94SAPS  O13B 9218   0.486   6.818   5.680  0.3962 -0.5793 -0.0345
   94SAPS   C11 9219   0.724   6.766   5.841  0.0775  0.4344  0.1004
   94SAPS  H11A 9220   0.668   6.760   5.937 -1.0731 -1.4054 -0.6333
   94SAPS  H11B 9221   0.709   6.868   5.799 -0.6733 -0.2648 -1.4319
   94SAPS     P 9222   0.920   6.682   5.987  0.0519 -0.0864 -0.0520
   94SAPS   O13 9223   0.865   6.546   6.010 -0.2770 -0.6835 -0.4667
   94SAPS   O14 9224   1.064   6.700   5.988 -0.4458  0.2812 -0.4168
   94SAPS   O12 9225   0.868   6.743   5.856  1.0394  0.1232 -0.0304
   94SAPS   O11 9226   0.857   6.776   6.102 -0.0836 -0.1804  0.4928
   94SAPS    C1 9227   0.925   6.803   6.222  0.1218  0.7795 -0.7191
   94SAPS    HA 9228   1.033   6.823   6.203  0.1243  2.4485  0.8072
   94SAPS    HB 9229   0.881   6.891   6.272  1.2491 -0.0878  1.9840
   94SAPS    C2 9230   0.912   6.675   6.313  0.8717 -0.7241  0.3923
   94SAPS    HS 9231   0.968   6.595   6.261 -0.2887 -0.8809 -0.6715
   94SAPS   O21 9232   0.771   6.642   6.329  0.0631 -0.6704  0.1704
   94SAPS   C21 9233   0.754   6.524   6.394  0.0853  0.7810 -0.0146
   94SAPS   O22 9234   0.834   6.428   6.396 -0.2209 -0.3994 -0.2254
   94SAPS   C22 9235   0.620   6.530   6.464  0.0015 -0.4774 -0.4455
   94SAPS   H2R 9236   0.582   6.633   6.481  0.3529 -0.2377 -1.0799
   94SAPS   H2S 9237   0.553   6.495   6.383 -2.9536 -1.4806  2.2375
   94SAPS    C3 9238   0.986   6.688   6.450  0.0951  0.7184 -0.2097
   94SAPS    HX 9239   1.092   6.700   6.420  0.5668 -0.9455  0.6290
   94SAPS    HY 9240   0.975   6.595   6.510 -0.9027  0.3744 -0.8976
   94SAPS   O31 9241   0.939   6.790   6.539  0.0444  0.5953  0.8016
   94SAPS   C31 9242   1.023   6.827   6.637 -0.3278  0.4657 -0.1450
   94SAPS   O32 9243   1.134   6.778   6.662 -0.2964  0.0718  0.3288
   94SAPS   C32 9244   0.973   6.955   6.701  0.7875 -0.7309 -0.8850
   94SAPS   H2X 9245   0.865   6.940   6.721  0.5100  2.8036  1.0295
   94SAPS   H2Y 9246   0.980   7.039   6.628 -0.4766 -0.2372 -0.4593
   94SAPS   C23 9247   0.602   6.443   6.587  0.2537  0.0699 -0.0703
   94SAPS   H3R 9248   0.642   6.343   6.560 -1.6664 -0.3042 -1.8202
   94SAPS   H3S 9249   0.499   6.432   6.627  0.7769  1.0264  1.6387
   94SAPS   C24 9250   0.690   6.496   6.701  0.4494  0.1400 -0.6247
   94SAPS   H4R 9251   0.795   6.481   6.668  0.8847 -0.7126  1.0668
   94SAPS   H4S 9252   0.667   6.429   6.786 -0.4345  2.0864  0.7386
   94SAPS   C25 9253   0.686   6.646   6.736  0.2571  0.5451  0.1213
   94SAPS   H5R 9254   0.715   6.704   6.647  1.3392  0.1077  0.1754
   94SAPS   C26 9255   0.634   6.699   6.847  0.5273 -0.3162 -0.9033
   94SAPS   H6R 9256   0.645   6.808   6.858  1.0257 -0.4728  0.2934
   94SAPS   C27 9257   0.577   6.627   6.969 -0.2879  0.1641 -0.1057
   94SAPS   H7R 9258   0.511   6.545   6.935 -0.8801  1.6473 -2.7625
   94SAPS   H7S 9259   0.496   6.686   7.017 -1.6289  0.0254 -2.1171
   94SAPS   C28 9260   0.681   6.591   7.068 -0.3012 -0.4757 -0.5763
   94SAPS   H8R 9261   0.783   6.589   7.027  0.5713  0.3772  1.4204
   94SAPS   C29 9262   0.667   6.559   7.197  0.5145  0.1876 -0.1024
   94SAPS   H9R 9263   0.754   6.531   7.258  0.2185 -0.1413  0.1703
   94SAPS  C210 9264   0.539   6.545   7.277 -0.6369  0.3053 -0.3265
   94SAPS  H10R 9265   0.449   6.550   7.213  0.5332 -0.7886 -2.1305
   94SAPS  H10S 9266   0.526   6.628   7.351  0.4573 -0.9436  1.3574
   94SAPS  C211 9267   0.525   6.411   7.349  0.3144 -0.2646  0.6618
   94SAPS  H11R 9268   0.542   6.326   7.282  1.1644 -1.6120  2.5005
   94SAPS  C212 9269   0.492   6.398   7.477  0.8501 -0.0270 -0.3806
   94SAPS  H12R 9270   0.488   6.300   7.528  2.1886  0.5516  0.9132
   94SAPS  C213 9271   0.446   6.511   7.567 -0.0816  0.4962  0.4002
   94SAPS  H13R 9272   0.379   6.577   7.508 -0.1638 -0.7327 -0.9428
   94SAPS  H13S 9273   0.538   6.558   7.609 -0.3917  2.0149 -0.5323
   94SAPS  C214 9274   0.365   6.469   7.686  0.0633 -0.0091 -0.4692
   94SAPS  H14R 9275   0.281   6.402   7.666 -2.0198  2.6689 -1.2636
   94SAPS  C215 9276   0.380   6.509   7.811 -0.4171 -0.2463 -0.3860
   94SAPS  H15R 9277   0.317   6.464   7.890 -2.2360  0.1967 -1.5188
   94SAPS  C216 9278   0.481   6.612   7.862 -0.0066 -0.1438 -0.1553
   94SAPS  H16R 9279   0.421   6.699   7.896 -1.8131 -0.0420 -3.2294
   94SAPS  H16S 9280   0.541   6.663   7.783 -1.5656  1.2911 -0.4701
   94SAPS  C217 9281   0.571   6.540   7.969  0.3476  0.0416  0.0351
   94SAPS  H17R 9282   0.648   6.480   7.917  1.5577  2.5511 -1.2529
   94SAPS  H17S 9283   0.508   6.478   8.037  0.0062 -0.9427 -1.1427
   94SAPS  C218 9284   0.655   6.635   8.059  0.0092  0.1582 -0.0655
   94SAPS  H18R 9285   0.592   6.723   8.085  0.6714  1.4650 -2.5741
   94SAPS  H18S 9286   0.742   6.672   8.001  0.8855  2.6018  2.5859
   94SAPS  C219 9287   0.714   6.559   8.181 -0.3460 -0.1684  0.4447
   94SAPS  H19R 9288   0.736   6.636   8.257  1.7043 -1.0739  0.8279
   94SAPS  H19S 9289   0.811   6.536   8.131  0.0780  3.0356 -0.3905
   94SAPS  C220 9290   0.652   6.441   8.241 -0.6186 -0.1871  0.1764
   94SAPS  H20R 9291   0.562   6.481   8.293  1.4469  0.6478  3.4133
   94SAPS  H20S 9292   0.721   6.393   8.313  1.6638  1.2410 -0.9171
   94SAPS  H20T 9293   0.622   6.366   8.164  1.2085  0.3451 -1.1263
   94SAPS   C33 9294   1.051   6.987   6.828 -0.1579 -0.9317 -0.2653
   94SAPS   H3X 9295   1.015   7.087   6.863 -0.7124 -0.9758 -0.7081
   94SAPS   H3Y 9296   1.161   6.989   6.813  0.0013 -0.9808  0.8240
   94SAPS   C34 9297   1.034   6.887   6.940 -0.4319  0.4049 -0.0755
   94SAPS   H4X 9298   1.122   6.820   6.953  1.5629  3.1384  1.7462
   94SAPS   H4Y 9299   0.937   6.833   6.938  0.0820 -0.7138  1.9625
   94SAPS   C35 9300   1.051   6.959   7.075  0.5652 -0.0237  0.0795
   94SAPS   H5X 9301   0.983   7.047   7.083 -1.4688 -1.5838  0.6855
   94SAPS   H5Y 9302   1.158   6.987   7.085  0.3974  0.3494  0.9158
   94SAPS   C36 9303   1.016   6.861   7.192 -0.1086 -0.1880 -0.4577
   94SAPS   H6X 9304   1.040   6.759   7.157 -1.8203  0.2307 -3.0984
   94SAPS   H6Y 9305   0.906   6.848   7.197 -0.0359 -0.6882 -0.0994
   94SAPS   C37 9306   1.096   6.885   7.326 -0.6642 -0.4738  0.4276
   94SAPS   H7X 9307   1.052   6.972   7.378  1.5825  0.1695  1.3846
   94SAPS   H7Y 9308   1.202   6.909   7.304 -0.9973  0.9164  0.2593
   94SAPS   C38 9309   1.077   6.773   7.430 -0.4171  1.1608  0.0495
   94SAPS   H8X 9310   1.136   6.804   7.518  0.2516  0.2986 -0.0872
   94SAPS   H8Y 9311   1.114   6.675   7.392 -0.6338  0.1443  2.3247
   94SAPS   C39 9312   0.937   6.764   7.490  0.5539  0.3113 -0.6155
   94SAPS   H9X 9313   0.865   6.765   7.405  2.1622 -2.5564 -2.1805
   94SAPS   H9Y 9314   0.916   6.848   7.560  1.0889  0.7239 -0.9424
   94SAPS  C310 9315   0.928   6.631   7.567  0.1440  1.5767  0.0022
   94SAPS  H10X 9316   0.952   6.544   7.501  0.6747  0.4555  1.6133
   94SAPS  H10Y 9317   0.822   6.608   7.590  0.5830 -0.0130  0.5844
   94SAPS  C311 9318   1.024   6.615   7.684  0.6796  0.0445  0.3805
   94SAPS  H11X 9319   1.013   6.698   7.757 -0.3065  0.0407  0.2507
   94SAPS  H11Y 9320   1.130   6.619   7.653  0.1146 -1.3487 -1.9549
   94SAPS  C312 9321   0.991   6.487   7.765 -0.3001 -0.0243  0.3001
   94SAPS  H12X 9322   1.007   6.396   7.705 -4.2289 -1.1440  0.6542
   94SAPS  H12Y 9323   0.882   6.499   7.784 -0.3959 -0.0129 -0.2542
   94SAPS  C313 9324   1.070   6.483   7.907  0.6881  0.1607  0.0852
   94SAPS  H13X 9325   1.038   6.574   7.964 -0.8487  0.3056 -0.9320
   94SAPS  H13Y 9326   1.179   6.471   7.893  0.9464  2.5447 -0.3359
   94SAPS  C314 9327   1.034   6.351   7.981 -0.8907 -0.0277 -0.1818
   94SAPS  H14X 9328   1.084   6.263   7.935  0.2778 -1.1000  2.8870
   94SAPS  H14Y 9329   0.923   6.338   7.982 -1.2621  2.5661  1.1626
   94SAPS  C315 9330   1.093   6.372   8.121 -0.4351  0.5748 -0.8260
   94SAPS  H15X 9331   1.033   6.451   8.171  0.2167 -0.2771  1.4160
   94SAPS  H15Y 9332   1.203   6.391   8.119 -0.1378  0.3938  3.7008
   94SAPS  C316 9333   1.093   6.236   8.200 -0.5206  0.4546 -0.1625
   94SAPS  H16X 9334   1.134   6.157   8.134 -1.6773  2.4987 -3.6008
   94SAPS  H16Y 9335   0.986   6.204   8.206 -0.3952 -0.3247 -1.7523
   94SAPS  C317 9336   1.154   6.242   8.339 -0.3019 -0.1318 -0.4975
   94SAPS  H17X 9337   1.131   6.343   8.380  2.2130  0.3079 -0.0059
   94SAPS  H17Y 9338   1.265   6.248   8.343 -0.3232 -0.4102  1.0695
   94SAPS  C318 9339   1.111   6.144   8.449 -0.1227  0.3359  0.0648
   94SAPS  H18X 9340   1.006   6.168   8.477 -0.5900  1.6803 -2.5626
   94SAPS  H18Y 9341   1.183   6.150   8.533 -0.5480 -1.9658  0.6599
   94SAPS  H18Z 9342   1.109   6.042   8.405 -1.4437  0.7536 -0.9078
   95SAPS     N 9343   3.097   3.278   6.459 -0.5414 -0.3786  0.1918
   95SAPS   HN1 9344   3.120   3.374   6.428  0.0522 -1.4768 -3.1394
   95SAPS   HN2 9345   3.028   3.279   6.537  0.8312 -2.6307  1.5326
   95SAPS   HN3 9346   3.173   3.220   6.499 -1.0839  1.5137  4.5306
   95SAPS   C12 9347   3.050   3.206   6.333 -0.5391  0.1696  0.2949
   95SAPS  H12A 9348   2.987   3.270   6.274  1.6597  0.6944 -1.6429
   95SAPS   C13 9349   3.163   3.181   6.234  0.5586 -0.8574  0.2170
   95SAPS  O13A 9350   3.280   3.228   6.251  0.2181  0.2266  0.1275
   95SAPS  O13B 9351   3.133   3.125   6.124  0.5778 -0.0246 -0.0077
   95SAPS   C11 9352   2.979   3.069   6.359 -0.3180  0.4675  0.2124
   95SAPS  H11A 9353   3.049   2.994   6.401 -1.7765 -1.8123 -1.2360
   95SAPS  H11B 9354   2.948   3.030   6.260  0.3693  1.2341 -0.3209
   95SAPS     P 9355   2.733   3.032   6.433  0.0643 -0.2565 -0.6398
   95SAPS   O13 9356   2.664   3.086   6.313  0.3368  0.2731 -0.3955
   95SAPS   O14 9357   2.747   2.886   6.438  0.5548  0.0393  0.1915
   95SAPS   O12 9358   2.876   3.102   6.451 -0.6743 -0.0064 -0.6036
   95SAPS   O11 9359   2.661   3.081   6.566  0.0762  0.0750  0.2132
   95SAPS    C1 9360   2.655   3.205   6.613 -0.1101 -1.0652 -0.3468
   95SAPS    HA 9361   2.761   3.234   6.631  0.1721 -1.5782 -1.1295
   95SAPS    HB 9362   2.610   3.282   6.547  0.7926 -0.4758 -0.2840
   95SAPS    C2 9363   2.565   3.218   6.742 -0.3592  0.0664 -0.5193
   95SAPS    HS 9364   2.582   3.315   6.795  1.5534 -0.7674  0.5222
   95SAPS   O21 9365   2.591   3.110   6.841  0.0461 -0.3096  0.7727
   95SAPS   C21 9366   2.707   3.126   6.908 -0.2157  0.0275 -0.0734
   95SAPS   O22 9367   2.789   3.216   6.889 -0.5749 -0.1693 -0.6222
   95SAPS   C22 9368   2.732   2.999   6.994 -0.3089 -0.0874  0.2233
   95SAPS   H2R 9369   2.718   2.907   6.933  1.5618 -0.8727  0.8862
   95SAPS   H2S 9370   2.837   3.008   7.030 -0.5090  1.0059  0.5572
   95SAPS    C3 9371   2.409   3.221   6.711  0.3970  0.1030 -0.0735
   95SAPS    HX 9372   2.388   3.119   6.672 -0.1884  0.4568 -0.7260
   95SAPS    HY 9373   2.374   3.271   6.618 -1.0987 -0.8950 -0.0798
   95SAPS   O31 9374   2.329   3.259   6.825 -0.0064  0.1122  0.1093
   95SAPS   C31 9375   2.210   3.217   6.830 -0.5556  0.9833 -0.0625
   95SAPS   O32 9376   2.148   3.145   6.753 -0.0845 -0.0887  0.0830
   95SAPS   C32 9377   2.162   3.263   6.968  0.2508 -0.0717  0.2485
   95SAPS   H2X 9378   2.057   3.295   6.947  0.1111 -1.4336 -1.3351
   95SAPS   H2Y 9379   2.225   3.346   7.004 -0.8551  0.8813  0.0605
   95SAPS   C23 9380   2.638   3.002   7.119 -0.1295  0.0263 -0.0478
   95SAPS   H3R 9381   2.633   2.900   7.161 -1.0244  0.4125  0.8188
   95SAPS   H3S 9382   2.538   3.030   7.079 -0.5809  0.9255  1.6218
   95SAPS   C24 9383   2.670   3.108   7.226 -1.3090 -0.9545  0.3509
   95SAPS   H4R 9384   2.686   3.216   7.202 -2.0983 -0.2666  2.6636
   95SAPS   H4S 9385   2.771   3.088   7.268 -1.1131 -0.0943  0.3227
   95SAPS   C25 9386   2.571   3.107   7.335  0.0224 -0.5355  0.1387
   95SAPS   H5R 9387   2.485   3.165   7.298  1.9439  2.3758 -0.1058
   95SAPS   C26 9388   2.577   3.045   7.456  0.1984 -0.6145  0.1419
   95SAPS   H6R 9389   2.497   3.052   7.532  0.7632  2.6379  0.5753
   95SAPS   C27 9390   2.693   2.960   7.506 -0.0111 -0.1571 -0.2293
   95SAPS   H7R 9391   2.755   3.028   7.568 -1.1121 -0.3307  1.1091
   95SAPS   H7S 9392   2.763   2.925   7.427 -0.5365 -0.4006 -0.5875
   95SAPS   C28 9393   2.668   2.835   7.585  0.7724  0.0765  0.0813
   95SAPS   H8R 9394   2.650   2.739   7.535 -0.4630  0.4523 -0.2341
   95SAPS   C29 9395   2.639   2.838   7.714  0.4701  0.5797  0.0356
   95SAPS   H9R 9396   2.614   2.748   7.771 -1.3538  1.6557  1.0048
   95SAPS  C210 9397   2.632   2.968   7.794  0.2630  0.2115 -0.0549
   95SAPS  H10R 9398   2.531   3.015   7.802 -0.0051 -0.5567  1.4537
   95SAPS  H10S 9399   2.696   3.050   7.755  0.8775  0.0863  0.6630
   95SAPS  C211 9400   2.681   2.935   7.928  0.2679  0.0254  0.3171
   95SAPS  H11R 9401   2.788   2.912   7.923 -0.0247 -1.1855 -1.3979
   95SAPS  C212 9402   2.624   2.938   8.047 -0.7672 -0.5121  0.4759
   95SAPS  H12R 9403   2.674   2.887   8.130 -0.0237 -1.7053 -0.6730
   95SAPS  C213 9404   2.484   2.981   8.080  0.1586  0.3783  0.3234
   95SAPS  H13R 9405   2.435   3.035   7.996 -1.0876  0.3652  1.0230
   95SAPS  H13S 9406   2.495   3.048   8.168 -0.9336 -0.3392  1.0248
   95SAPS  C214 9407   2.394   2.862   8.118 -1.2890 -0.2827  0.8189
   95SAPS  H14R 9408   2.324   2.836   8.037 -1.9397  1.6580  0.7014
   95SAPS  C215 9409   2.383   2.801   8.234  0.6157  0.7989 -0.3594
   95SAPS  H15R 9410   2.315   2.714   8.241  0.4067  0.8976 -1.0981
   95SAPS  C216 9411   2.450   2.838   8.363 -0.2677  0.1321 -0.4521
   95SAPS  H16R 9412   2.370   2.859   8.438  1.4951 -2.0453  2.2356
   95SAPS  H16S 9413   2.508   2.932   8.354  0.8578 -0.6371 -1.5508
   95SAPS  C217 9414   2.541   2.722   8.416  0.2576  0.2330 -0.0359
   95SAPS  H17R 9415   2.640   2.720   8.365 -0.9778 -0.4033 -2.5755
   95SAPS  H17S 9416   2.499   2.624   8.383  2.8756 -1.7564  2.0252
   95SAPS  C218 9417   2.558   2.706   8.562 -0.0174 -0.7847 -0.2899
   95SAPS  H18R 9418   2.459   2.695   8.612  0.3407  0.0571  0.6475
   95SAPS  H18S 9419   2.612   2.792   8.607 -2.1323  1.0743 -1.1315
   95SAPS  C219 9420   2.630   2.573   8.610 -0.1053 -0.0807  0.6478
   95SAPS  H19R 9421   2.580   2.488   8.559 -1.3433  0.3599  1.0938
   95SAPS  H19S 9422   2.627   2.567   8.721 -0.1807 -0.6301  0.6157
   95SAPS  C220 9423   2.788   2.569   8.577 -0.5676 -0.3623 -0.5540
   95SAPS  H20R 9424   2.814   2.559   8.469 -1.5896  0.2437 -0.8684
   95SAPS  H20S 9425   2.841   2.484   8.625 -0.8358  0.0940  0.5708
   95SAPS  H20T 9426   2.825   2.665   8.620 -2.7014 -0.2275  1.1335
   95SAPS   C33 9427   2.160   3.149   7.074  0.1413 -0.3943 -0.0452
   95SAPS   H3X 9428   2.258   3.105   7.104 -0.3305 -2.8198 -1.7509
   95SAPS   H3Y 9429   2.103   3.063   7.034  0.4316 -1.4504  1.7018
   95SAPS   C34 9430   2.100   3.171   7.214 -0.1810 -0.3327  0.2706
   95SAPS   H4X 9431   2.062   3.076   7.257 -2.9150  0.1435 -0.8549
   95SAPS   H4Y 9432   2.013   3.238   7.194 -0.1448 -0.4297 -0.2070
   95SAPS   C35 9433   2.185   3.250   7.321 -0.2642 -0.7047 -0.1170
   95SAPS   H5X 9434   2.220   3.337   7.261 -1.0978  0.4612  1.0340
   95SAPS   H5Y 9435   2.283   3.204   7.347  0.7503 -0.3510 -2.9111
   95SAPS   C36 9436   2.107   3.305   7.440  0.8636 -0.2992  0.0648
   95SAPS   H6X 9437   2.052   3.227   7.497 -1.0284  0.1586 -1.0601
   95SAPS   H6Y 9438   2.032   3.381   7.409  0.6458  0.7098  2.7661
   95SAPS   C37 9439   2.190   3.366   7.557  0.0398  0.4130  0.1217
   95SAPS   H7X 9440   2.122   3.391   7.641  1.8894 -1.2453  2.2300
   95SAPS   H7Y 9441   2.234   3.458   7.512 -0.0308  0.5097  0.2500
   95SAPS   C38 9442   2.298   3.270   7.611  0.8056  0.4672  0.5985
   95SAPS   H8X 9443   2.386   3.271   7.544  2.9401 -0.4340  3.2267
   95SAPS   H8Y 9444   2.271   3.163   7.617 -1.5912  1.0288  0.8572
   95SAPS   C39 9445   2.327   3.307   7.751  0.3286 -0.5294 -0.4196
   95SAPS   H9X 9446   2.347   3.416   7.758 -0.4594 -0.3413 -0.9082
   95SAPS   H9Y 9447   2.421   3.259   7.786  1.6672  0.4559 -2.4765
   95SAPS  C310 9448   2.220   3.269   7.864  0.0038 -0.0367 -0.0085
   95SAPS  H10X 9449   2.210   3.158   7.859  1.5378 -0.2655  1.2954
   95SAPS  H10Y 9450   2.125   3.316   7.830  0.1385 -1.0333 -1.9124
   95SAPS  C311 9451   2.262   3.299   8.010 -0.0042 -0.1855  0.1466
   95SAPS  H11X 9452   2.235   3.405   8.030  0.8818  0.3360 -1.2531
   95SAPS  H11Y 9453   2.373   3.304   8.019 -0.1029  0.1797  1.3928
   95SAPS  C312 9454   2.205   3.208   8.111 -0.2124  0.0620  0.1581
   95SAPS  H12X 9455   2.218   3.100   8.090 -2.0716  0.0154 -0.9434
   95SAPS  H12Y 9456   2.096   3.226   8.114 -0.7256 -2.2649 -1.5000
   95SAPS  C313 9457   2.260   3.236   8.253  0.3855 -0.0388  0.2903
   95SAPS  H13X 9458   2.248   3.346   8.267 -0.2267  0.1003 -1.1485
   95SAPS  H13Y 9459   2.368   3.209   8.252  1.2410  2.9681  0.0272
   95SAPS  C314 9460   2.193   3.156   8.360 -0.4366 -0.1529 -0.3387
   95SAPS  H14X 9461   2.221   3.048   8.350 -0.5950 -0.3226  0.8495
   95SAPS  H14Y 9462   2.083   3.172   8.357 -0.4123  0.1168  0.1921
   95SAPS  C315 9463   2.235   3.196   8.500  0.0039  0.3641  0.4616
   95SAPS  H15X 9464   2.214   3.305   8.515  0.3663  0.3900  0.7959
   95SAPS  H15Y 9465   2.342   3.181   8.526 -0.0982 -0.8315  0.2234
   95SAPS  C316 9466   2.151   3.115   8.598  0.1547  0.7869  0.0291
   95SAPS  H16X 9467   2.087   3.035   8.555  0.9779 -0.3668  0.8732
   95SAPS  H16Y 9468   2.073   3.179   8.645  1.6085  2.1483  0.6930
   95SAPS  C317 9469   2.238   3.045   8.712 -0.3315  0.0069 -0.2915
   95SAPS  H17X 9470   2.303   3.129   8.743 -1.9466  1.6249 -1.0668
   95SAPS  H17Y 9471   2.294   2.969   8.654 -0.5231  0.6800 -1.4015
   95SAPS  C318 9472   2.175   2.995   8.846 -0.3788 -0.1277 -0.0433
   95SAPS  H18X 9473   2.108   3.069   8.895 -1.4217 -0.6987 -0.5799
   95SAPS  H18Y 9474   2.256   2.978   8.920 -0.9205  1.6064  1.0004
   95SAPS  H18Z 9475   2.126   2.896   8.835 -0.3100 -0.2849  0.9907
   96SAPS     N 9476   3.764   4.428   6.250  0.7966 -0.5525 -1.0722
   96SAPS   HN1 9477   3.837   4.388   6.188  2.7616 -0.7953  1.2742
   96SAPS   HN2 9478   3.821   4.431   6.337  0.0500  0.6158 -0.5998
   96SAPS   HN3 9479   3.681   4.366   6.264  0.0180  0.8809  1.1497
   96SAPS   C12 9480   3.725   4.576   6.218 -0.4902  0.4641  0.2675
   96SAPS  H12A 9481   3.817   4.628   6.195  0.6753 -1.6169 -0.0442
   96SAPS   C13 9482   3.628   4.602   6.100 -0.2804 -0.4998  0.3813
   96SAPS  O13A 9483   3.601   4.508   6.021 -0.3347 -0.0114 -0.0494
   96SAPS  O13B 9484   3.631   4.722   6.063 -0.3174  0.6257  0.6361
   96SAPS   C11 9485   3.650   4.631   6.349 -0.0784  0.2564 -0.5295
   96SAPS  H11A 9486   3.609   4.732   6.327 -2.3556 -0.7925 -1.3728
   96SAPS  H11B 9487   3.729   4.650   6.425  0.6358  1.1030 -1.4751
   96SAPS     P 9488   3.424   4.579   6.476  0.2177  0.0380  0.1372
   96SAPS   O13 9489   3.344   4.652   6.375  0.2272 -0.0999  0.2789
   96SAPS   O14 9490   3.358   4.456   6.519 -0.5943  0.0318  0.1737
   96SAPS   O12 9491   3.554   4.545   6.412 -0.5806 -0.1260  0.3262
   96SAPS   O11 9492   3.459   4.677   6.604 -0.2372  0.0294  0.3848
   96SAPS    C1 9493   3.510   4.622   6.723 -0.6937  0.3079 -0.5238
   96SAPS    HA 9494   3.564   4.525   6.716  0.9311  1.1526 -0.2216
   96SAPS    HB 9495   3.590   4.689   6.762  0.3623 -1.5491  0.6926
   96SAPS    C2 9496   3.414   4.622   6.847 -0.7056 -0.3916 -0.3344
   96SAPS    HS 9497   3.344   4.536   6.834 -0.6698 -0.4919  0.1273
   96SAPS   O21 9498   3.344   4.746   6.874  0.2040 -0.0617  0.2992
   96SAPS   C21 9499   3.237   4.764   6.793 -1.0305  0.3764 -0.2333
   96SAPS   O22 9500   3.187   4.683   6.716 -1.3141 -0.1105 -0.0239
   96SAPS   C22 9501   3.185   4.910   6.803 -0.3899 -0.4603 -0.3747
   96SAPS   H2R 9502   3.279   4.968   6.786  1.0910 -2.5065  0.5337
   96SAPS   H2S 9503   3.118   4.918   6.715 -0.4405 -1.4558 -0.4319
   96SAPS    C3 9504   3.494   4.602   6.982  0.1911 -0.1321  0.0966
   96SAPS    HX 9505   3.572   4.679   6.999  0.2107  0.4070 -2.1236
   96SAPS    HY 9506   3.536   4.501   6.966  0.6831  0.3125 -1.6515
   96SAPS   O31 9507   3.397   4.575   7.098 -0.0922 -0.2044  0.3641
   96SAPS   C31 9508   3.381   4.687   7.170 -0.0200  0.3068 -0.2136
   96SAPS   O32 9509   3.445   4.787   7.149  0.4410 -0.1807  0.1630
   96SAPS   C32 9510   3.277   4.678   7.276  0.5961 -0.4505 -0.3002
   96SAPS   H2X 9511   3.225   4.582   7.257 -2.4120  1.3940 -2.3687
   96SAPS   H2Y 9512   3.201   4.759   7.265 -0.8953 -1.9108 -1.2988
   96SAPS   C23 9513   3.146   4.944   6.949 -0.0630 -0.3267 -0.6263
   96SAPS   H3R 9514   3.176   5.050   6.966  1.4231 -1.1126  2.3673
   96SAPS   H3S 9515   3.196   4.883   7.027  0.4595 -0.3011 -0.9428
   96SAPS   C24 9516   2.989   4.927   6.968  0.2264 -0.1915 -0.1775
   96SAPS   H4R 9517   2.936   4.985   6.889  1.2936  0.4956 -0.4177
   96SAPS   H4S 9518   2.969   4.983   7.062  2.6935 -1.3708  1.1416
   96SAPS   C25 9519   2.951   4.777   6.972  0.5633 -0.2349 -0.3387
   96SAPS   H5R 9520   2.929   4.741   6.870 -0.9581  0.6548 -0.3597
   96SAPS   C26 9521   2.907   4.699   7.072  0.9352  0.3970 -0.2560
   96SAPS   H6R 9522   2.866   4.600   7.048 -0.0564  0.6022  0.5351
   96SAPS   C27 9523   2.889   4.737   7.216 -0.4446  0.8445  0.4544
   96SAPS   H7R 9524   2.923   4.842   7.231 -0.6804  1.0350 -0.2920
   96SAPS   H7S 9525   2.960   4.683   7.282 -1.0446  0.0128  0.4320
   96SAPS   C28 9526   2.750   4.724   7.277 -0.2005 -0.2701 -0.5212
   96SAPS   H8R 9527   2.662   4.697   7.215 -1.5021  0.1154  1.0755
   96SAPS   C29 9528   2.729   4.752   7.404 -0.6019 -0.3520  0.4658
   96SAPS   H9R 9529   2.625   4.754   7.439 -2.0927  1.7018 -3.5412
   96SAPS  C210 9530   2.833   4.795   7.505 -0.0897  0.0064  0.6806
   96SAPS  H10R 9531   2.804   4.892   7.551  2.2073  0.6803  0.8250
   96SAPS  H10S 9532   2.933   4.793   7.458  0.4100 -3.5442  1.5557
   96SAPS  C211 9533   2.833   4.680   7.605  0.8252 -0.3641  0.3671
   96SAPS  H11R 9534   2.857   4.582   7.561  1.4188 -1.6452  3.2994
   96SAPS  C212 9535   2.782   4.695   7.726  0.9433 -1.2034 -0.2198
   96SAPS  H12R 9536   2.771   4.598   7.777  0.4038 -1.9943 -1.7626
   96SAPS  C213 9537   2.729   4.808   7.814  0.7671  0.1448  0.7758
   96SAPS  H13R 9538   2.706   4.902   7.760  0.8755 -0.3099 -0.0834
   96SAPS  H13S 9539   2.801   4.848   7.889  0.5580 -0.4474  1.3004
   96SAPS  C214 9540   2.592   4.778   7.876  0.0025  0.2691 -0.9918
   96SAPS  H14R 9541   2.514   4.744   7.806 -0.1133  0.3424 -0.8990
   96SAPS  C215 9542   2.566   4.790   8.007  0.7157 -0.8413  0.0367
   96SAPS  H15R 9543   2.461   4.773   8.034  1.2684 -2.1468  1.4796
   96SAPS  C216 9544   2.654   4.842   8.125 -0.4097 -0.6396  0.6512
   96SAPS  H16R 9545   2.634   4.949   8.148 -0.5745 -0.8370  1.4530
   96SAPS  H16S 9546   2.761   4.839   8.096  0.1097 -2.4273  2.5423
   96SAPS  C217 9547   2.631   4.758   8.256 -0.4026  0.2445  0.3826
   96SAPS  H17R 9548   2.527   4.767   8.296 -0.3044  2.0995  0.3029
   96SAPS  H17S 9549   2.692   4.811   8.331 -2.3470 -1.8991  3.7151
   96SAPS  C218 9550   2.677   4.613   8.233  0.2140 -0.5259  1.1387
   96SAPS  H18R 9551   2.779   4.607   8.190 -0.8462  1.2344 -1.9228
   96SAPS  H18S 9552   2.619   4.565   8.151  1.7585 -0.6468  0.0896
   96SAPS  C219 9553   2.678   4.528   8.357  0.0422  0.9054 -0.2709
   96SAPS  H19R 9554   2.716   4.428   8.327 -1.5467  0.9315 -2.7352
   96SAPS  H19S 9555   2.570   4.511   8.379 -0.2682 -0.4530 -2.4531
   96SAPS  C220 9556   2.752   4.583   8.484  0.3830  0.3680  0.3387
   96SAPS  H20R 9557   2.700   4.672   8.524  0.3663  0.6864 -0.3731
   96SAPS  H20S 9558   2.856   4.616   8.465  0.6876 -2.0241 -3.0953
   96SAPS  H20T 9559   2.753   4.509   8.567 -2.5988 -1.1813 -0.8286
   96SAPS   C33 9560   3.338   4.697   7.422  0.5803 -0.4251 -0.0602
   96SAPS   H3X 9561   3.424   4.766   7.417 -0.1965  0.4977 -1.2365
   96SAPS   H3Y 9562   3.382   4.604   7.465  0.2374 -0.6772 -0.2514
   96SAPS   C34 9563   3.230   4.734   7.521 -0.3084  1.0302 -0.2327
   96SAPS   H4X 9564   3.142   4.667   7.516  0.7242 -0.5483  1.2848
   96SAPS   H4Y 9565   3.197   4.838   7.505 -0.0765  1.1582  0.1074
   96SAPS   C35 9566   3.268   4.702   7.668 -0.1800  0.0045 -0.6409
   96SAPS   H5X 9567   3.366   4.742   7.702 -0.9174  0.5786  0.9071
   96SAPS   H5Y 9568   3.275   4.591   7.671  0.6629  0.0709  1.8522
   96SAPS   C36 9569   3.167   4.746   7.775  0.2279  0.1079 -0.3992
   96SAPS   H6X 9570   3.069   4.704   7.744 -0.5746  0.2161  1.8390
   96SAPS   H6Y 9571   3.144   4.854   7.771 -1.9728 -0.3455 -1.1233
   96SAPS   C37 9572   3.200   4.704   7.923  0.2167 -0.2912  0.2449
   96SAPS   H7X 9573   3.284   4.761   7.968 -1.1865  0.8249  1.5481
   96SAPS   H7Y 9574   3.221   4.597   7.944  0.9936  0.1589  1.9600
   96SAPS   C38 9575   3.073   4.738   8.010 -0.5731 -0.2474 -1.0158
   96SAPS   H8X 9576   2.977   4.710   7.962 -1.4714 -1.0436  1.1199
   96SAPS   H8Y 9577   3.063   4.846   8.033 -1.2943 -0.8124  1.7834
   96SAPS   C39 9578   3.076   4.673   8.154 -0.0875 -0.0088 -0.1441
   96SAPS   H9X 9579   3.063   4.564   8.140 -2.4837  0.3528 -1.1026
   96SAPS   H9Y 9580   2.991   4.716   8.211  0.8218  4.6611 -1.8408
   96SAPS  C310 9581   3.204   4.685   8.239  0.1890 -0.1725  0.3352
   96SAPS  H10X 9582   3.287   4.637   8.183 -0.4899 -1.4821  0.4191
   96SAPS  H10Y 9583   3.193   4.619   8.327  1.9753  0.3545  1.0033
   96SAPS  C311 9584   3.230   4.834   8.274  0.0365  0.8830  0.5915
   96SAPS  H11X 9585   3.142   4.888   8.313 -0.4650  0.8378 -0.4503
   96SAPS  H11Y 9586   3.261   4.890   8.183 -0.5247  2.6143  1.4308
   96SAPS  C312 9587   3.348   4.838   8.376  0.0314 -0.4755 -0.5487
   96SAPS  H12X 9588   3.446   4.815   8.328  0.2219 -2.4088  0.6385
   96SAPS  H12Y 9589   3.337   4.753   8.447  2.3141  0.4882  1.0784
   96SAPS  C313 9590   3.347   4.961   8.466  0.7370 -0.6800 -0.8397
   96SAPS  H13X 9591   3.244   4.968   8.505  0.8517 -1.1095 -0.4599
   96SAPS  H13Y 9592   3.349   5.052   8.402  3.2388  1.2379  1.7452
   96SAPS  C314 9593   3.459   4.959   8.573  0.3805 -0.2344  0.1303
   96SAPS  H14X 9594   3.547   4.925   8.515 -2.4223 -1.7863 -3.5676
   96SAPS  H14Y 9595   3.434   4.878   8.644  2.1129 -0.6527  0.3146
   96SAPS  C315 9596   3.485   5.095   8.639 -0.2217  0.5094 -0.1576
   96SAPS  H15X 9597   3.515   5.158   8.553 -0.7161 -0.8069 -1.3357
   96SAPS  H15Y 9598   3.569   5.090   8.711 -0.7835  2.2226  0.6820
   96SAPS  C316 9599   3.371   5.161   8.714 -0.2712  0.0042 -0.3458
   96SAPS  H16X 9600   3.329   5.089   8.787 -1.4311  0.3982 -0.6061
   96SAPS  H16Y 9601   3.286   5.184   8.647 -0.2628 -1.3920 -0.8784
   96SAPS  C317 9602   3.420   5.290   8.788 -0.4813  0.2601 -0.2327
   96SAPS  H17X 9603   3.515   5.267   8.842 -1.1196  0.8676  1.1900
   96SAPS  H17Y 9604   3.344   5.313   8.865 -0.1216  0.7272 -0.0145
   96SAPS  C318 9605   3.439   5.416   8.712  0.2962  0.3542  0.6305
   96SAPS  H18X 9606   3.416   5.512   8.762 -1.0801 -0.0692  0.8376
   96SAPS  H18Y 9607   3.351   5.402   8.645  0.3285  0.2469  0.6109
   96SAPS  H18Z 9608   3.538   5.421   8.661  0.5285  1.2081  1.1412
   97SAPS     N 9609   5.928   1.717   6.184 -0.7184  0.3993 -0.4208
   97SAPS   HN1 9610   6.017   1.692   6.230 -0.1815  1.1048 -1.0515
   97SAPS   HN2 9611   5.856   1.694   6.255 -0.7712 -0.7058 -0.8099
   97SAPS   HN3 9612   5.914   1.667   6.094  1.4058 -0.3958 -0.3656
   97SAPS   C12 9613   5.911   1.864   6.172 -0.0321  0.2767 -0.0505
   97SAPS  H12A 9614   5.899   1.912   6.268 -2.4348  0.0156 -0.1483
   97SAPS   C13 9615   6.033   1.931   6.097  0.3888  0.3171 -0.3640
   97SAPS  O13A 9616   6.112   1.864   6.028  0.1428  0.2088 -0.0846
   97SAPS  O13B 9617   6.032   2.054   6.082  0.1677 -0.8158  0.3180
   97SAPS   C11 9618   5.778   1.913   6.098  0.3814  0.3483  0.3663
   97SAPS  H11A 9619   5.781   1.906   5.987  0.5661 -0.2293  0.4045
   97SAPS  H11B 9620   5.781   2.023   6.115 -0.7401  1.6848 -5.6172
   97SAPS     P 9621   5.583   1.894   6.272  0.0133  0.0528 -0.2728
   97SAPS   O13 9622   5.582   2.039   6.272 -0.3375  0.4686 -0.1789
   97SAPS   O14 9623   5.460   1.821   6.292 -0.0102  0.6889 -0.7633
   97SAPS   O12 9624   5.658   1.843   6.141 -0.4912 -0.0321 -0.7596
   97SAPS   O11 9625   5.690   1.845   6.381  0.0276 -0.2184 -0.2420
   97SAPS    C1 9626   5.744   1.936   6.475 -0.0482 -0.6453  0.3740
   97SAPS    HA 9627   5.844   1.902   6.510  0.0720  0.5601  1.2502
   97SAPS    HB 9628   5.771   2.040   6.446  0.6550 -0.0188  3.0234
   97SAPS    C2 9629   5.652   1.948   6.603 -0.1575 -0.1097 -0.0138
   97SAPS    HS 9630   5.566   2.013   6.578 -0.1280 -0.2382 -0.4567
   97SAPS   O21 9631   5.731   1.984   6.715  0.1191 -0.1002 -0.3514
   97SAPS   C21 9632   5.772   2.108   6.716 -0.0902  0.6340 -0.1234
   97SAPS   O22 9633   5.745   2.194   6.633  0.0086  0.8083  0.5076
   97SAPS   C22 9634   5.855   2.139   6.838 -0.8483  0.3696  0.4574
   97SAPS   H2R 9635   5.816   2.066   6.912  0.4152 -1.5098 -0.6353
   97SAPS   H2S 9636   5.957   2.111   6.805 -1.3599 -0.1064 -0.7800
   97SAPS    C3 9637   5.582   1.813   6.637 -0.8389  0.6145  0.0508
   97SAPS    HX 9638   5.660   1.735   6.645 -2.3248 -1.4909 -3.5740
   97SAPS    HY 9639   5.513   1.776   6.558 -1.3505  0.2476  0.6518
   97SAPS   O31 9640   5.522   1.820   6.763 -0.2794  0.0121 -0.1807
   97SAPS   C31 9641   5.400   1.874   6.765 -0.1095  0.0388  0.2673
   97SAPS   O32 9642   5.343   1.918   6.669  0.1414 -0.5090  0.2105
   97SAPS   C32 9643   5.337   1.843   6.895 -0.0470  0.1316  0.1590
   97SAPS   H2X 9644   5.417   1.841   6.973  0.7968 -2.3331 -0.6687
   97SAPS   H2Y 9645   5.292   1.742   6.891 -0.2520  0.2444 -0.5512
   97SAPS   C23 9646   5.837   2.290   6.886 -0.0402 -0.3052  0.0358
   97SAPS   H3R 9647   5.731   2.310   6.909  0.2007  0.1848  0.7453
   97SAPS   H3S 9648   5.879   2.343   6.797  1.6551  0.2168  1.1002
   97SAPS   C24 9649   5.931   2.321   7.008 -0.3397 -0.3303  0.5155
   97SAPS   H4R 9650   6.024   2.273   6.971  0.8352  0.9728  1.6480
   97SAPS   H4S 9651   5.906   2.269   7.103  2.1321  0.3959  1.6520
   97SAPS   C25 9652   5.953   2.465   7.039 -0.1969  0.6829  0.6540
   97SAPS   H5R 9653   5.922   2.538   6.963  0.1963  1.4557  1.2179
   97SAPS   C26 9654   6.002   2.511   7.153  0.3044  0.2623 -0.0102
   97SAPS   H6R 9655   6.042   2.613   7.165 -0.7542  0.5845  1.0610
   97SAPS   C27 9656   6.049   2.423   7.271  0.1928  0.0341 -0.3946
   97SAPS   H7R 9657   6.093   2.326   7.240  2.0964  0.0514  1.9470
   97SAPS   H7S 9658   5.955   2.408   7.329  0.2139  1.2647 -0.0117
   97SAPS   C28 9659   6.145   2.495   7.363  0.2642  0.2299  0.4266
   97SAPS   H8R 9660   6.185   2.587   7.320 -0.9798  0.9058  0.6578
   97SAPS   C29 9661   6.181   2.472   7.489 -0.3254 -0.0312  0.2490
   97SAPS   H9R 9662   6.259   2.536   7.534  1.8547 -1.8521 -0.7479
   97SAPS  C210 9663   6.123   2.372   7.595 -0.7178  0.4236  0.6961
   97SAPS  H10R 9664   6.041   2.311   7.552 -1.4284  2.1256 -0.5301
   97SAPS  H10S 9665   6.071   2.432   7.674 -3.0944 -1.3802  0.6165
   97SAPS  C211 9666   6.241   2.292   7.648 -0.1191  0.4441 -0.1915
   97SAPS  H11R 9667   6.263   2.208   7.582 -0.7830 -1.4233  1.8427
   97SAPS  C212 9668   6.311   2.314   7.758 -0.0935 -0.8366 -0.6701
   97SAPS  H12R 9669   6.403   2.258   7.779 -0.5732 -0.8842  1.4883
   97SAPS  C213 9670   6.277   2.425   7.863 -0.2718  0.4993 -0.1432
   97SAPS  H13R 9671   6.167   2.445   7.864 -0.5940 -1.1548  0.2078
   97SAPS  H13S 9672   6.336   2.518   7.846  1.7697 -0.5237  0.9581
   97SAPS  C214 9673   6.311   2.358   7.998 -0.3871 -0.5483 -0.6248
   97SAPS  H14R 9674   6.228   2.307   8.048 -0.4517 -0.5341 -0.7187
   97SAPS  C215 9675   6.439   2.360   8.058 -0.7530 -0.5056  0.2383
   97SAPS  H15R 9676   6.443   2.325   8.163 -1.1965 -0.8676  0.1402
   97SAPS  C216 9677   6.566   2.413   8.001  0.1349  0.1201  0.6063
   97SAPS  H16R 9678   6.548   2.452   7.899  1.6413  0.1581  0.3418
   97SAPS  H16S 9679   6.638   2.329   7.999  1.7902  1.4208 -3.2284
   97SAPS  C217 9680   6.600   2.535   8.088 -0.5705 -0.4587 -0.2600
   97SAPS  H17R 9681   6.525   2.614   8.111 -0.4695 -0.5251  0.3133
   97SAPS  H17S 9682   6.683   2.586   8.034  0.4657  0.1222  1.7682
   97SAPS  C218 9683   6.677   2.504   8.219 -0.1736  0.3151  0.6530
   97SAPS  H18R 9684   6.717   2.401   8.232  1.3308  1.0412  2.3530
   97SAPS  H18S 9685   6.590   2.516   8.287 -0.1087  0.2983  0.7389
   97SAPS  C219 9686   6.786   2.600   8.254 -0.4562 -0.4398 -0.2564
   97SAPS  H19R 9687   6.743   2.702   8.264 -0.7416 -0.5237 -0.5916
   97SAPS  H19S 9688   6.859   2.594   8.170  0.1468  0.2856  0.1997
   97SAPS  C220 9689   6.865   2.557   8.382 -0.7532  0.3238  0.1642
   97SAPS  H20R 9690   6.903   2.452   8.375 -3.0351 -0.4725 -1.7959
   97SAPS  H20S 9691   6.791   2.549   8.465 -1.9293 -0.7138 -0.9209
   97SAPS  H20T 9692   6.950   2.620   8.415  1.2569 -1.5589 -1.1204
   97SAPS   C33 9693   5.233   1.946   6.941 -0.2566  0.4657  0.0764
   97SAPS   H3X 9694   5.153   1.950   6.864  0.5374 -0.4175 -0.8219
   97SAPS   H3Y 9695   5.272   2.050   6.938 -2.0556  1.2311  1.1464
   97SAPS   C34 9696   5.174   1.921   7.080  0.1502 -0.1788 -0.3043
   97SAPS   H4X 9697   5.129   1.819   7.076  0.6786 -0.3960 -0.6552
   97SAPS   H4Y 9698   5.082   1.984   7.081 -2.3328 -3.4622 -1.6398
   97SAPS   C35 9699   5.268   1.928   7.195  0.6610 -0.0707  0.4578
   97SAPS   H5X 9700   5.327   2.022   7.193  0.0376  0.3281 -1.8372
   97SAPS   H5Y 9701   5.341   1.844   7.187 -0.8641 -1.2482 -2.6884
   97SAPS   C36 9702   5.213   1.928   7.335 -0.6859  0.1542 -0.0555
   97SAPS   H6X 9703   5.129   2.000   7.351  0.0282  0.5338  2.3664
   97SAPS   H6Y 9704   5.285   1.962   7.411 -1.8801  0.5008  0.9535
   97SAPS   C37 9705   5.136   1.798   7.364  0.2292  0.1034  0.0569
   97SAPS   H7X 9706   5.210   1.725   7.325  0.7915 -0.1463  1.5151
   97SAPS   H7Y 9707   5.044   1.785   7.303  0.8660 -0.0496 -0.8883
   97SAPS   C38 9708   5.105   1.780   7.513  0.2753  0.0758 -0.4728
   97SAPS   H8X 9709   5.060   1.872   7.556  0.0650  0.5129 -1.5974
   97SAPS   H8Y 9710   5.195   1.773   7.577  0.2769  0.2645 -0.4547
   97SAPS   C39 9711   5.008   1.669   7.546 -1.0881 -0.4191  0.2741
   97SAPS   H9X 9712   5.060   1.575   7.518 -0.1625  0.2682 -0.3667
   97SAPS   H9Y 9713   4.915   1.682   7.486 -1.5050  1.9917  1.3408
   97SAPS  C310 9714   4.943   1.668   7.685 -0.7956 -0.2607 -0.0353
   97SAPS  H10X 9715   4.877   1.578   7.690 -0.5039 -0.5644 -1.2810
   97SAPS  H10Y 9716   4.876   1.755   7.698  0.1841  0.7319 -1.2820
   97SAPS  C311 9717   5.046   1.679   7.799 -0.0685  0.3332  0.2519
   97SAPS  H11X 9718   5.094   1.778   7.810  0.1473  0.2959 -0.3320
   97SAPS  H11Y 9719   5.121   1.599   7.781 -0.8784  0.1457 -2.9656
   97SAPS  C312 9720   4.987   1.660   7.942 -0.0224 -0.3765  0.6176
   97SAPS  H12X 9721   5.067   1.671   8.019  0.3196 -1.0985  0.3735
   97SAPS  H12Y 9722   4.941   1.559   7.949 -1.0861  0.0938  0.5780
   97SAPS  C313 9723   4.870   1.750   7.970  0.2032 -0.6603  0.3232
   97SAPS  H13X 9724   4.793   1.742   7.890 -0.7987  2.0250  0.9072
   97SAPS  H13Y 9725   4.898   1.857   7.979  2.6327 -0.8741 -2.8305
   97SAPS  C314 9726   4.796   1.710   8.096  0.3985 -0.4433 -0.1451
   97SAPS  H14X 9727   4.775   1.601   8.096 -0.5740 -0.2767 -1.1845
   97SAPS  H14Y 9728   4.701   1.767   8.086  1.3432  1.2250 -0.0146
   97SAPS  C315 9729   4.881   1.730   8.225  0.7822 -0.1885  0.0065
   97SAPS  H15X 9730   4.907   1.838   8.230  0.1548  0.0697 -1.6660
   97SAPS  H15Y 9731   4.978   1.677   8.224  0.5554 -0.6204  0.6542
   97SAPS  C316 9732   4.806   1.688   8.351  0.6981 -0.6884 -0.3589
   97SAPS  H16X 9733   4.793   1.578   8.346  0.8142 -0.6432 -2.4565
   97SAPS  H16Y 9734   4.706   1.736   8.349  1.6127  1.3918  0.8037
   97SAPS  C317 9735   4.884   1.728   8.488  0.2127 -0.2180  0.8017
   97SAPS  H17X 9736   4.911   1.835   8.495  2.9351 -0.6253 -1.7258
   97SAPS  H17Y 9737   4.981   1.674   8.493  1.4213  1.8805  0.7889
   97SAPS  C318 9738   4.811   1.682   8.609  0.5769  0.4249 -0.3027
   97SAPS  H18X 9739   4.762   1.584   8.593 -1.4590  1.2470  0.5839
   97SAPS  H18Y 9740   4.731   1.757   8.625  1.1677  0.7799  1.0456
   97SAPS  H18Z 9741   4.877   1.690   8.698 -0.3312 -1.1095  0.5640
   98SAPS     N 9742   2.913   2.590   6.289 -0.2602 -0.0634 -0.5102
   98SAPS   HN1 9743   2.941   2.633   6.379 -1.0545  1.5595 -0.9991
   98SAPS   HN2 9744   2.836   2.645   6.245 -0.8635 -1.1294 -0.8272
   98SAPS   HN3 9745   2.875   2.495   6.309  1.8565 -0.6611  1.0081
   98SAPS   C12 9746   3.032   2.575   6.198 -0.0260 -0.4593 -0.8762
   98SAPS  H12A 9747   3.072   2.475   6.203  2.1299  0.4043  1.7800
   98SAPS   C13 9748   3.004   2.603   6.047 -0.2022  0.0645 -0.0692
   98SAPS  O13A 9749   2.883   2.639   6.013 -0.7788  0.3049 -0.0832
   98SAPS  O13B 9750   3.082   2.547   5.965  0.3763  0.0553  0.5076
   98SAPS   C11 9751   3.149   2.676   6.236 -0.0071  0.1004  0.0910
   98SAPS  H11A 9752   3.111   2.780   6.225 -0.7828 -0.3964 -2.4616
   98SAPS  H11B 9753   3.222   2.666   6.153 -0.1974  0.3855 -0.1164
   98SAPS     P 9754   3.310   2.739   6.429 -0.2978 -0.2072 -0.2596
   98SAPS   O13 9755   3.439   2.688   6.373  0.3836  0.0695 -0.5752
   98SAPS   O14 9756   3.276   2.882   6.414 -0.0692  0.2575  0.1441
   98SAPS   O12 9757   3.194   2.653   6.367 -0.4861  0.2862 -1.0999
   98SAPS   O11 9758   3.309   2.689   6.578  0.1727  0.0408 -0.2386
   98SAPS    C1 9759   3.239   2.570   6.611 -0.0563 -0.8241  0.4098
   98SAPS    HA 9760   3.135   2.566   6.573  0.1969  0.6518 -0.5120
   98SAPS    HB 9761   3.293   2.486   6.562 -1.1864 -0.2842 -1.9280
   98SAPS    C2 9762   3.234   2.544   6.766  0.4670  0.2967 -0.0687
   98SAPS    HS 9763   3.177   2.449   6.776  1.3874 -0.4078 -1.2573
   98SAPS   O21 9764   3.175   2.655   6.835  0.5657 -0.2823 -0.1288
   98SAPS   C21 9765   3.043   2.663   6.848  0.7830  0.0291 -0.2885
   98SAPS   O22 9766   2.957   2.598   6.787 -0.0304 -0.1749 -0.0345
   98SAPS   C22 9767   3.020   2.759   6.955  0.0515  0.0273 -0.0595
   98SAPS   H2R 9768   3.020   2.853   6.897 -0.0970  0.3458  0.4434
   98SAPS   H2S 9769   2.920   2.739   7.000  0.0765 -0.0451 -0.0365
   98SAPS    C3 9770   3.380   2.526   6.819  0.2754  0.1694  0.5710
   98SAPS    HX 9771   3.446   2.609   6.787  1.4379 -1.9609 -3.2623
   98SAPS    HY 9772   3.428   2.436   6.775  3.6894  1.2478  1.7672
   98SAPS   O31 9773   3.389   2.510   6.968 -0.2953  0.0604 -0.0223
   98SAPS   C31 9774   3.504   2.460   7.014 -0.7167  0.7980  0.6692
   98SAPS   O32 9775   3.607   2.450   6.950  0.3438  0.0948  0.1209
   98SAPS   C32 9776   3.497   2.451   7.166  0.2453  0.2990 -0.1962
   98SAPS   H2X 9777   3.391   2.461   7.200  0.2799 -3.0114  1.3094
   98SAPS   H2Y 9778   3.550   2.540   7.204 -0.0658  0.4001  0.0079
   98SAPS   C23 9779   3.116   2.766   7.073 -0.3370  0.1604  0.2062
   98SAPS   H3R 9780   3.091   2.857   7.132 -1.8482  0.2451 -0.5195
   98SAPS   H3S 9781   3.218   2.781   7.033 -0.0217  1.7050  1.4846
   98SAPS   C24 9782   3.135   2.644   7.168  0.1249 -0.0295 -0.0411
   98SAPS   H4R 9783   3.222   2.655   7.236 -0.1870 -0.6182  0.4560
   98SAPS   H4S 9784   3.156   2.556   7.103 -0.1776  0.2326 -0.5002
   98SAPS   C25 9785   3.020   2.616   7.254 -0.5635  0.3538  0.0565
   98SAPS   H5R 9786   2.929   2.588   7.199 -0.1302 -1.6262  0.2508
   98SAPS   C26 9787   3.012   2.628   7.385  0.0102  0.3271 -0.3389
   98SAPS   H6R 9788   2.915   2.606   7.432  1.2416  1.7094  3.2307
   98SAPS   C27 9789   3.123   2.663   7.486  0.6137  0.7253  0.3030
   98SAPS   H7R 9790   3.110   2.770   7.511 -0.6796  1.1385 -1.8309
   98SAPS   H7S 9791   3.227   2.650   7.447  0.7341  1.4487  0.3671
   98SAPS   C28 9792   3.120   2.578   7.604 -0.6236 -0.6029 -0.8631
   98SAPS   H8R 9793   3.179   2.486   7.595  2.1226  0.9870 -0.1517
   98SAPS   C29 9794   3.073   2.607   7.721  0.4921  0.6378 -0.2021
   98SAPS   H9R 9795   3.091   2.540   7.807 -0.2143  0.4255 -0.2126
   98SAPS  C210 9796   3.002   2.730   7.758  0.1358  0.1261  0.3607
   98SAPS  H10R 9797   2.920   2.725   7.833  1.1536  1.6876  1.6250
   98SAPS  H10S 9798   2.951   2.774   7.670  1.5177 -1.8074 -1.5226
   98SAPS  C211 9799   3.093   2.840   7.804 -0.8720 -0.1219  0.0922
   98SAPS  H11R 9800   3.125   2.912   7.727  0.6269 -0.1549  0.6434
   98SAPS  C212 9801   3.131   2.859   7.931 -0.0947 -0.0365 -0.1544
   98SAPS  H12R 9802   3.192   2.947   7.960 -1.2321  0.0282  2.2804
   98SAPS  C213 9803   3.087   2.769   8.048 -0.2971 -0.2847  0.0123
   98SAPS  H13R 9804   3.177   2.728   8.098  0.0666  1.0617  0.4782
   98SAPS  H13S 9805   3.027   2.680   8.018  0.2195 -1.5322  2.4112
   98SAPS  C214 9806   3.000   2.844   8.143  0.2498 -0.9951  0.2945
   98SAPS  H14R 9807   2.927   2.903   8.086 -0.6294 -0.9852  1.3838
   98SAPS  C215 9808   2.987   2.839   8.280 -0.2059 -0.6832 -0.2384
   98SAPS  H15R 9809   2.913   2.903   8.330  0.0950  0.4135 -1.1759
   98SAPS  C216 9810   3.064   2.743   8.368  0.2030  0.2080 -0.3629
   98SAPS  H16R 9811   3.125   2.673   8.308  0.1075 -0.4450  0.2765
   98SAPS  H16S 9812   3.014   2.676   8.442  2.6823 -2.0719 -0.6072
   98SAPS  C217 9813   3.155   2.838   8.447 -0.2528  0.0984 -0.1418
   98SAPS  H17R 9814   3.085   2.905   8.501 -0.8842 -1.2743  0.8135
   98SAPS  H17S 9815   3.228   2.889   8.381  0.3270  3.3233  2.7256
   98SAPS  C218 9816   3.243   2.772   8.552 -0.9689 -0.2099  0.1195
   98SAPS  H18R 9817   3.309   2.717   8.482 -0.6917  0.3025 -0.0245
   98SAPS  H18S 9818   3.186   2.699   8.613  1.2476 -1.8294  0.3862
   98SAPS  C219 9819   3.335   2.859   8.645 -0.2334 -0.1591 -0.6909
   98SAPS  H19R 9820   3.417   2.903   8.584  1.5308 -1.2316  0.7926
   98SAPS  H19S 9821   3.388   2.803   8.725 -0.7857  0.7622  0.3452
   98SAPS  C220 9822   3.253   2.971   8.715  0.0949  0.1644  0.0445
   98SAPS  H20R 9823   3.177   2.931   8.785  1.6380 -0.9160  1.1592
   98SAPS  H20S 9824   3.216   3.038   8.634 -0.6452  0.9284  0.9914
   98SAPS  H20T 9825   3.326   3.032   8.773  1.3257  0.6404 -1.8806
   98SAPS   C33 9826   3.559   2.316   7.224  0.3544  0.7666 -0.0149
   98SAPS   H3X 9827   3.653   2.289   7.173 -0.2356  1.9235 -1.8045
   98SAPS   H3Y 9828   3.484   2.237   7.201 -1.0114  1.8984  0.3746
   98SAPS   C34 9829   3.591   2.334   7.372 -0.7252 -0.9910  0.6975
   98SAPS   H4X 9830   3.657   2.420   7.395 -0.3557 -1.4093  1.2403
   98SAPS   H4Y 9831   3.660   2.252   7.402 -1.3228 -2.2859 -1.2586
   98SAPS   C35 9832   3.468   2.343   7.460  0.3694 -0.6344  0.1643
   98SAPS   H5X 9833   3.404   2.259   7.427  0.6363 -0.5988 -0.4606
   98SAPS   H5Y 9834   3.406   2.434   7.442 -0.1423 -0.3202  3.0424
   98SAPS   C36 9835   3.500   2.336   7.614 -0.5878 -0.5452  0.2433
   98SAPS   H6X 9836   3.590   2.272   7.629  1.0795  1.6029 -0.0097
   98SAPS   H6Y 9837   3.415   2.279   7.656  0.1155 -1.7689  0.0523
   98SAPS   C37 9838   3.504   2.467   7.701 -0.0029 -0.4997  0.1041
   98SAPS   H7X 9839   3.414   2.531   7.686 -1.2937 -2.7288 -2.3457
   98SAPS   H7Y 9840   3.577   2.535   7.652  0.6377 -1.9758 -1.0593
   98SAPS   C38 9841   3.542   2.436   7.844  0.6464 -0.5064  0.1956
   98SAPS   H8X 9842   3.648   2.407   7.864  0.6938 -0.4486  0.0241
   98SAPS   H8Y 9843   3.487   2.351   7.891 -0.2261  1.7095  3.5651
   98SAPS   C39 9844   3.515   2.558   7.944 -0.0490  1.0553  0.0933
   98SAPS   H9X 9845   3.411   2.593   7.927  0.3983  1.9876 -0.8289
   98SAPS   H9Y 9846   3.588   2.641   7.933 -0.6513  1.2384 -3.4701
   98SAPS  C310 9847   3.518   2.494   8.087  0.5697 -0.1894 -0.2503
   98SAPS  H10X 9848   3.622   2.455   8.099  1.0871  0.9934 -0.7300
   98SAPS  H10Y 9849   3.456   2.405   8.109  1.6605 -0.8108  0.4291
   98SAPS  C311 9850   3.495   2.607   8.190 -0.6052  0.9936 -0.1246
   98SAPS  H11X 9851   3.392   2.642   8.172 -1.4139 -0.7132  0.9071
   98SAPS  H11Y 9852   3.566   2.692   8.179  1.0938 -0.3283  0.1380
   98SAPS  C312 9853   3.498   2.557   8.332  0.0446  0.1195 -0.8221
   98SAPS  H12X 9854   3.544   2.456   8.340  0.8384  0.6106  3.2596
   98SAPS  H12Y 9855   3.395   2.532   8.366 -0.0808  0.2657 -1.0865
   98SAPS  C313 9856   3.580   2.654   8.409 -0.1877 -0.4856  0.3169
   98SAPS  H13X 9857   3.533   2.754   8.408  3.7342  1.5409 -1.6642
   98SAPS  H13Y 9858   3.681   2.669   8.365 -0.2306  2.7142  1.0889
   98SAPS  C314 9859   3.587   2.606   8.550  0.2422 -0.4467  0.7971
   98SAPS  H14X 9860   3.615   2.498   8.548 -2.5455 -1.2920  2.4935
   98SAPS  H14Y 9861   3.490   2.618   8.602 -0.7184 -0.1660 -0.9751
   98SAPS  C315 9862   3.700   2.680   8.619 -0.1071 -0.2165 -0.2016
   98SAPS  H15X 9863   3.679   2.788   8.631  0.4131 -0.2503  1.2210
   98SAPS  H15Y 9864   3.785   2.657   8.552  0.5844  0.6142  0.3557
   98SAPS  C316 9865   3.738   2.629   8.763  0.3281  0.3185 -0.4001
   98SAPS  H16X 9866   3.816   2.703   8.789 -0.5639  1.9102 -2.0221
   98SAPS  H16Y 9867   3.780   2.526   8.763 -1.9065 -0.6700 -0.0516
   98SAPS  C317 9868   3.616   2.621   8.862 -0.7756 -0.1310 -0.2261
   98SAPS  H17X 9869   3.549   2.541   8.824  0.3784  0.6529 -4.3943
   98SAPS  H17Y 9870   3.570   2.720   8.846 -2.4425 -0.6171  1.2805
   98SAPS  C318 9871   3.649   2.609   9.011  0.5420 -0.0994  0.6333
   98SAPS  H18X 9872   3.676   2.504   9.035  0.5435  0.2057  2.0795
   98SAPS  H18Y 9873   3.560   2.629   9.076 -1.5409  0.1977 -2.1210
   98SAPS  H18Z 9874   3.739   2.670   9.032  0.7032  0.2114 -0.8432
   99SAPS     N 9875   1.985   2.728   6.109 -0.1265 -0.3283 -0.1127
   99SAPS   HN1 9876   1.882   2.726   6.117 -0.2669  2.1714 -0.5440
   99SAPS   HN2 9877   2.009   2.706   6.011  0.3802 -1.9999  0.3451
   99SAPS   HN3 9878   2.022   2.650   6.167  0.3320  1.4482  2.1233
   99SAPS   C12 9879   2.050   2.864   6.156 -0.5337  0.2908  0.2650
   99SAPS  H12A 9880   2.148   2.864   6.112 -0.7491 -0.1052 -0.2357
   99SAPS   C13 9881   1.970   2.995   6.109 -0.7366  0.0477  0.3382
   99SAPS  O13A 9882   1.898   2.978   6.005 -0.0379 -0.2107 -0.3259
   99SAPS  O13B 9883   2.018   3.108   6.134  0.3024  0.3407 -0.4045
   99SAPS   C11 9884   2.067   2.861   6.312 -0.2930 -0.1422  0.6467
   99SAPS  H11A 9885   1.970   2.872   6.366 -0.0433 -0.0207  1.0806
   99SAPS  H11B 9886   2.131   2.947   6.342  0.3090 -0.2443 -0.3173
   99SAPS     P 9887   2.276   2.709   6.386 -0.2287  0.0772  0.3410
   99SAPS   O13 9888   2.298   2.569   6.421  0.6940  0.2140  0.2161
   99SAPS   O14 9889   2.353   2.760   6.269 -0.0323 -0.0352 -0.0268
   99SAPS   O12 9890   2.121   2.739   6.356 -0.0617 -0.0207 -0.1904
   99SAPS   O11 9891   2.315   2.792   6.513 -0.7170 -0.1670  0.7064
   99SAPS    C1 9892   2.440   2.820   6.567 -0.0802  0.0834 -1.4756
   99SAPS    HA 9893   2.516   2.800   6.489  1.2399 -0.4499 -0.1017
   99SAPS    HB 9894   2.450   2.930   6.584  1.3176 -0.0856 -1.1140
   99SAPS    C2 9895   2.480   2.739   6.694 -0.4737 -0.4669 -0.1546
   99SAPS    HS 9896   2.444   2.636   6.674 -0.8467 -0.4916  0.5916
   99SAPS   O21 9897   2.401   2.798   6.809  0.1713 -0.2293  0.1305
   99SAPS   C21 9898   2.347   2.709   6.891  0.1026  0.4912 -0.3060
   99SAPS   O22 9899   2.358   2.589   6.883  0.2272  0.0937 -0.6568
   99SAPS   C22 9900   2.285   2.793   7.006 -0.2078 -0.0472 -0.0074
   99SAPS   H2R 9901   2.320   2.899   7.007  0.8056 -0.3376 -1.3395
   99SAPS   H2S 9902   2.176   2.795   6.988 -0.3310  1.3225  0.7036
   99SAPS    C3 9903   2.632   2.720   6.713 -0.4119  0.0932  0.6997
   99SAPS    HX 9904   2.680   2.820   6.714  0.5521 -0.2916 -1.5499
   99SAPS    HY 9905   2.673   2.662   6.627 -4.1343  1.2558 -2.1094
   99SAPS   O31 9906   2.662   2.665   6.839  0.1073  0.3675 -0.3228
   99SAPS   C31 9907   2.651   2.537   6.851  0.5443 -0.0533  0.1106
   99SAPS   O32 9908   2.618   2.454   6.767 -0.9076 -0.5914 -0.5418
   99SAPS   C32 9909   2.700   2.504   6.999  0.4178  0.4471 -0.0497
   99SAPS   H2X 9910   2.646   2.579   7.060 -0.5263  0.1238 -0.4696
   99SAPS   H2Y 9911   2.811   2.507   7.005  0.5201 -1.2191 -0.7098
   99SAPS   C23 9912   2.331   2.732   7.142 -0.3846 -0.5100  0.5189
   99SAPS   H3R 9913   2.442   2.731   7.145 -0.3552 -1.1110 -0.3936
   99SAPS   H3S 9914   2.294   2.627   7.142  0.8706 -0.9851 -0.6103
   99SAPS   C24 9915   2.286   2.805   7.274 -0.7949 -0.3116 -0.1988
   99SAPS   H4R 9916   2.334   2.905   7.271 -0.7346 -0.3458 -0.4492
   99SAPS   H4S 9917   2.334   2.749   7.357  1.0312  1.8909  0.3352
   99SAPS   C25 9918   2.144   2.808   7.278  0.1009  0.9174 -0.0204
   99SAPS   H5R 9919   2.091   2.847   7.189  0.5847  1.1317 -0.2174
   99SAPS   C26 9920   2.073   2.777   7.384  0.6906 -0.0848 -0.1982
   99SAPS   H6R 9921   1.964   2.772   7.378  0.4763  0.2031  2.3884
   99SAPS   C27 9922   2.116   2.726   7.519  0.2435 -0.1627 -0.3984
   99SAPS   H7R 9923   2.220   2.689   7.528  1.1148  2.0404 -0.9257
   99SAPS   H7S 9924   2.059   2.633   7.541  0.6748 -0.0174  1.5261
   99SAPS   C28 9925   2.101   2.836   7.623  0.4312 -0.1363 -0.6160
   99SAPS   H8R 9926   2.133   2.937   7.592 -0.0914  0.7397  1.4850
   99SAPS   C29 9927   2.065   2.815   7.752  0.2037 -0.4750  0.2639
   99SAPS   H9R 9928   2.039   2.895   7.823 -2.3939  1.2197 -2.3402
   99SAPS  C210 9929   2.029   2.682   7.806 -0.3211  0.2943 -0.5126
   99SAPS  H10R 9930   2.057   2.596   7.741  0.7660 -1.0399  1.6246
   99SAPS  H10S 9931   1.918   2.685   7.816 -0.4396  2.8044 -1.8573
   99SAPS  C211 9932   2.097   2.664   7.939  0.8481  0.2558 -0.0101
   99SAPS  H11R 9933   2.205   2.648   7.936  0.4396 -3.2019 -0.8530
   99SAPS  C212 9934   2.029   2.664   8.058  0.4837  0.5423  0.2655
   99SAPS  H12R 9935   2.083   2.628   8.147 -2.9571 -0.6768  2.0363
   99SAPS  C213 9936   1.878   2.683   8.075  0.3361 -0.3410  1.0992
   99SAPS  H13R 9937   1.821   2.595   8.036 -1.1605  1.5793 -1.3210
   99SAPS  H13S 9938   1.846   2.760   8.002  0.6826 -0.3812  0.9024
   99SAPS  C214 9939   1.834   2.705   8.223 -0.1171  0.2815 -0.6663
   99SAPS  H14R 9940   1.766   2.624   8.254  0.7209 -0.7766 -1.4986
   99SAPS  C215 9941   1.864   2.804   8.313  0.1445  1.0336 -0.1057
   99SAPS  H15R 9942   1.834   2.792   8.418  0.2723 -1.7007 -0.3098
   99SAPS  C216 9943   1.947   2.921   8.272 -0.4065 -0.0307 -0.5288
   99SAPS  H16R 9944   2.030   2.893   8.204  3.1327  0.3949  3.2064
   99SAPS  H16S 9945   2.001   2.957   8.363  1.0470  3.3751 -2.5258
   99SAPS  C217 9946   1.866   3.033   8.198  0.5527 -0.5103 -0.1428
   99SAPS  H17R 9947   1.816   2.984   8.112  0.3861 -2.5335  1.0352
   99SAPS  H17S 9948   1.931   3.115   8.161  0.8254 -1.2014 -1.2231
   99SAPS  C218 9949   1.755   3.104   8.282  0.3099 -0.0097 -0.4803
   99SAPS  H18R 9950   1.693   3.028   8.334 -0.7155  1.4799  0.5668
   99SAPS  H18S 9951   1.699   3.162   8.206  1.3372  3.1477  0.9826
   99SAPS  C219 9952   1.811   3.196   8.388  0.0940 -0.2622  0.1130
   99SAPS  H19R 9953   1.888   3.264   8.346  1.0341  0.1500  2.3948
   99SAPS  H19S 9954   1.856   3.133   8.468  3.5194 -0.8606 -2.0737
   99SAPS  C220 9955   1.704   3.297   8.439  0.1425  0.1790  0.0707
   99SAPS  H20R 9956   1.731   3.348   8.534 -1.6048 -0.2904  0.8657
   99SAPS  H20S 9957   1.608   3.246   8.461  0.1477 -1.8225 -3.6923
   99SAPS  H20T 9958   1.676   3.371   8.361  0.5557 -0.0868 -0.3326
   99SAPS   C33 9959   2.651   2.362   7.038  0.7313 -0.7264 -0.1858
   99SAPS   H3X 9960   2.702   2.289   6.972  2.0279 -0.1496  0.1411
   99SAPS   H3Y 9961   2.543   2.342   7.023  1.3708 -3.5337 -1.6083
   99SAPS   C34 9962   2.690   2.337   7.184 -0.9211 -0.7723  0.0042
   99SAPS   H4X 9963   2.793   2.377   7.196 -0.1350 -3.3106  2.8045
   99SAPS   H4Y 9964   2.700   2.227   7.191  2.5652 -0.6691 -1.1068
   99SAPS   C35 9965   2.593   2.395   7.285 -0.2849  0.4636 -0.2436
   99SAPS   H5X 9966   2.489   2.358   7.271 -0.3204  0.4146  0.1235
   99SAPS   H5Y 9967   2.599   2.504   7.265 -0.1224  0.2750 -1.2481
   99SAPS   C36 9968   2.629   2.353   7.429  0.1052  0.2914 -0.3861
   99SAPS   H6X 9969   2.739   2.362   7.443  0.2298 -1.8943  0.4749
   99SAPS   H6Y 9970   2.605   2.245   7.426  0.9627  0.1251 -2.0665
   99SAPS   C37 9971   2.534   2.408   7.538 -0.2885  0.0664 -0.4179
   99SAPS   H7X 9972   2.433   2.365   7.521  0.3022 -0.9148 -1.6223
   99SAPS   H7Y 9973   2.533   2.518   7.523  0.6998  0.0441 -0.7204
   99SAPS   C38 9974   2.575   2.386   7.684 -0.1495  0.2446  0.0331
   99SAPS   H8X 9975   2.571   2.282   7.723 -0.0575  0.4703  0.6627
   99SAPS   H8Y 9976   2.487   2.428   7.737 -0.3640 -0.9991  0.7179
   99SAPS   C39 9977   2.705   2.461   7.716 -0.0664  0.1366 -0.3639
   99SAPS   H9X 9978   2.712   2.555   7.656  1.0920  0.1076 -0.2969
   99SAPS   H9Y 9979   2.800   2.410   7.689  0.6923  0.4482  1.5518
   99SAPS  C310 9980   2.706   2.500   7.862  0.0404  0.1414 -0.3600
   99SAPS  H10X 9981   2.617   2.559   7.895  1.7057  2.4430  0.3063
   99SAPS  H10Y 9982   2.786   2.565   7.904 -0.3178  1.1212 -1.1534
   99SAPS  C311 9983   2.717   2.366   7.947  0.5668  0.3346 -0.7287
   99SAPS  H11X 9984   2.815   2.323   7.916 -0.3537 -0.9104 -2.0150
   99SAPS  H11Y 9985   2.636   2.296   7.920  0.9200  0.1275 -1.2844
   99SAPS  C312 9986   2.715   2.396   8.098 -0.0190 -0.1745 -0.0799
   99SAPS  H12X 9987   2.622   2.446   8.134  1.1215  0.8816  1.5258
   99SAPS  H12Y 9988   2.791   2.475   8.113 -0.3662  0.4817 -1.5542
   99SAPS  C313 9989   2.759   2.281   8.183 -0.4844  0.0859  0.4289
   99SAPS  H13X 9990   2.856   2.236   8.150 -0.4581 -0.4700  1.2467
   99SAPS  H13Y 9991   2.675   2.210   8.171 -0.6622  0.1551  1.2373
   99SAPS  C314 9992   2.770   2.313   8.333  0.0308 -0.6380 -0.3375
   99SAPS  H14X 9993   2.724   2.412   8.350  2.5612  0.8312 -1.4925
   99SAPS  H14Y 9994   2.874   2.320   8.373  0.2069  1.2889 -1.0374
   99SAPS  C315 9995   2.687   2.221   8.424 -0.5957 -0.0903 -1.3640
   99SAPS  H15X 9996   2.585   2.229   8.381 -0.1457 -0.0925 -2.4507
   99SAPS  H15Y 9997   2.690   2.263   8.527  1.9053 -2.0438 -0.5311
   99SAPS  C316 9998   2.731   2.081   8.439  0.2776 -0.6404  1.0127
   99SAPS  H16X 9999   2.765   2.071   8.333 -2.3485 -0.2896  0.0575
   99SAPS  H16Y10000   2.653   2.012   8.478 -2.3340  3.5920  4.1091
   99SAPS  C31710001   2.847   2.064   8.540 -0.2252 -0.5936 -0.7574
   99SAPS  H17X10002   2.792   2.089   8.634 -1.0537 -0.5728 -1.2344
   99SAPS  H17Y10003   2.927   2.138   8.519 -1.2326  0.6441 -0.3899
   99SAPS  C31810004   2.898   1.920   8.523 -0.1137  0.4592  0.0253
   99SAPS  H18X10005   2.814   1.847   8.528  0.5092 -0.2414  0.5004
   99SAPS  H18Y10006   2.963   1.890   8.608 -1.2865 -0.6889  0.5389
   99SAPS  H18Z10007   2.951   1.907   8.426 -0.4770  0.4576 -0.1740
  100SAPS     N10008   5.360   2.633   6.481  0.4800  0.3273 -0.1245
  100SAPS   HN110009   5.414   2.673   6.561 -2.4871  0.3195  2.0759
  100SAPS   HN210010   5.323   2.718   6.434  1.2393  0.4076 -0.5976
  100SAPS   HN310011   5.284   2.574   6.521  0.6771  0.6855  0.8172
  100SAPS   C1210012   5.444   2.561   6.389 -0.6722 -0.4245 -0.7904
  100SAPS  H12A10013   5.494   2.479   6.439 -2.4081  0.2318  2.2467
  100SAPS   C1310014   5.364   2.497   6.283 -0.5799  0.8181 -0.7607
  100SAPS  O13A10015   5.241   2.509   6.272  0.7735 -0.2206 -0.1268
  100SAPS  O13B10016   5.418   2.408   6.204 -0.0154 -0.7149  0.3220
  100SAPS   C1110017   5.552   2.643   6.327  0.2601  0.9007 -0.8297
  100SAPS  H11A10018   5.508   2.729   6.272 -0.3545  1.3738  0.3722
  100SAPS  H11B10019   5.611   2.591   6.248  2.1891  3.5585 -1.3018
  100SAPS     P10020   5.781   2.750   6.396  0.2775  0.2419 -0.0710
  100SAPS   O1310021   5.847   2.655   6.309  0.0155 -0.1106  0.1418
  100SAPS   O1410022   5.769   2.890   6.352  0.3237 -0.5232 -0.4509
  100SAPS   O1210023   5.640   2.688   6.429 -0.0574  0.1777  0.3110
  100SAPS   O1110024   5.847   2.758   6.543 -0.3213  0.2261 -0.5887
  100SAPS    C110025   5.776   2.720   6.659 -0.2229 -0.5446  0.3392
  100SAPS    HA10026   5.673   2.760   6.663  0.1092  0.2328  1.4694
  100SAPS    HB10027   5.766   2.610   6.663 -2.4072 -0.3833  0.4005
  100SAPS    C210028   5.836   2.775   6.790  0.0343  0.1832  0.0378
  100SAPS    HS10029   5.792   2.712   6.870  0.6975 -1.6038 -0.9390
  100SAPS   O2110030   5.803   2.912   6.814  0.4748  0.7527 -0.6937
  100SAPS   C2110031   5.677   2.938   6.861 -0.1948  0.5162  0.1266
  100SAPS   O2210032   5.591   2.854   6.877 -0.8123  0.0620  0.2933
  100SAPS   C2210033   5.651   3.091   6.856  0.2534 -0.0754 -0.3597
  100SAPS   H2R10034   5.684   3.128   6.757 -0.2558 -0.5720 -0.7184
  100SAPS   H2S10035   5.541   3.104   6.860  0.3677  0.8759 -0.0420
  100SAPS    C310036   5.985   2.755   6.799  0.5045  0.2257  0.1175
  100SAPS    HX10037   6.028   2.819   6.719  0.4727  0.1687  0.0544
  100SAPS    HY10038   6.021   2.655   6.767 -0.0885  0.1911 -0.4536
  100SAPS   O3110039   6.022   2.766   6.932 -0.5645  0.4755  0.1402
  100SAPS   C3110040   6.090   2.869   6.965 -0.3018  0.3866 -0.0320
  100SAPS   O3210041   6.147   2.947   6.890  0.0319  0.5585  0.0502
  100SAPS   C3210042   6.092   2.891   7.109  0.1954 -0.2047  0.0105
  100SAPS   H2X10043   6.151   2.982   7.133 -0.5924 -0.0557  1.4959
  100SAPS   H2Y10044   6.145   2.809   7.163 -0.0195  1.4749  2.9885
  100SAPS   C2310045   5.718   3.165   6.972 -0.3740 -0.3843  0.5451
  100SAPS   H3R10046   5.705   3.275   6.964 -0.0495 -0.3855 -0.1088
  100SAPS   H3S10047   5.826   3.141   6.960 -0.1508  0.0561  1.5340
  100SAPS   C2410048   5.676   3.117   7.112 -0.3928 -0.3907  0.1048
  100SAPS   H4R10049   5.763   3.141   7.177  0.2828 -1.3733 -0.4083
  100SAPS   H4S10050   5.675   3.006   7.125  1.4167 -0.6096 -1.2236
  100SAPS   C2510051   5.545   3.174   7.145 -0.1690  0.2517 -0.1183
  100SAPS   H5R10052   5.477   3.204   7.064  0.2437  1.8857  0.0985
  100SAPS   C2610053   5.510   3.213   7.272 -0.4041  0.0888 -0.5419
  100SAPS   H6R10054   5.414   3.262   7.291  0.1700  0.4660  1.6364
  100SAPS   C2710055   5.601   3.197   7.398  0.9089  0.2210 -0.6097
  100SAPS   H7R10056   5.557   3.267   7.471 -0.0182  1.3483 -2.1775
  100SAPS   H7S10057   5.705   3.231   7.380  1.5236 -1.8556 -1.2929
  100SAPS   C2810058   5.603   3.060   7.446 -0.3498  0.1896 -0.0892
  100SAPS   H8R10059   5.655   2.988   7.381 -0.3198  0.8218 -0.7866
  100SAPS   C2910060   5.550   3.013   7.559 -0.5742  0.3443 -0.9691
  100SAPS   H9R10061   5.544   2.903   7.566 -3.3717  0.5266  0.9738
  100SAPS  C21010062   5.485   3.089   7.674  0.3394  0.2986 -0.3550
  100SAPS  H10R10063   5.487   3.199   7.657 -1.7512  0.4426 -0.0206
  100SAPS  H10S10064   5.536   3.066   7.770 -2.9131 -1.5474  1.0933
  100SAPS  C21110065   5.349   3.035   7.673 -0.5518 -0.3035  0.0904
  100SAPS  H11R10066   5.298   3.053   7.577 -0.9599 -0.0427  0.3492
  100SAPS  C21210067   5.274   2.987   7.782  0.7096  0.2886  0.4946
  100SAPS  H12R10068   5.173   2.953   7.754  0.9113  0.5773 -0.6598
  100SAPS  C21310069   5.307   2.971   7.926 -0.1377 -0.1033 -0.2094
  100SAPS  H13R10070   5.233   3.030   7.983  3.1012  2.3149  1.8442
  100SAPS  H13S10071   5.405   3.020   7.944  0.4027 -0.0712 -2.8112
  100SAPS  C21410072   5.318   2.827   7.971  0.2010 -0.7170 -0.6519
  100SAPS  H14R10073   5.225   2.775   7.944  0.1881 -0.0666 -1.9749
  100SAPS  C21510074   5.424   2.772   8.033  0.2562  0.5577  0.8189
  100SAPS  H15R10075   5.413   2.667   8.063 -1.3057  0.0935 -1.1805
  100SAPS  C21610076   5.555   2.840   8.063 -0.7052 -0.1567  0.1106
  100SAPS  H16R10077   5.574   2.927   7.996 -1.2766  0.7551  1.1098
  100SAPS  H16S10078   5.629   2.765   8.027  0.2519  0.9967 -0.4183
  100SAPS  C21710079   5.576   2.882   8.214  0.8440  0.2856  0.2373
  100SAPS  H17R10080   5.519   2.974   8.239 -0.5014 -0.1598 -1.0494
  100SAPS  H17S10081   5.684   2.906   8.227  1.0105 -0.1891 -0.1984
  100SAPS  C21810082   5.554   2.758   8.313 -0.3441  0.3979  0.1855
  100SAPS  H18R10083   5.607   2.673   8.265 -0.4770  0.8913 -0.8713
  100SAPS  H18S10084   5.445   2.737   8.315 -0.5646  1.1226 -1.8550
  100SAPS  C21910085   5.598   2.784   8.462  0.0853  0.0015 -0.5075
  100SAPS  H19R10086   5.539   2.868   8.504  2.1144  1.4127 -0.3170
  100SAPS  H19S10087   5.696   2.835   8.462  0.8174 -1.2352  1.6706
  100SAPS  C22010088   5.580   2.663   8.544  0.3265 -1.1619 -0.0924
  100SAPS  H20R10089   5.482   2.616   8.523 -1.1969  1.6397  0.2436
  100SAPS  H20S10090   5.580   2.692   8.651  2.3342  0.8617 -0.5642
  100SAPS  H20T10091   5.661   2.587   8.534  1.5110  0.2104 -1.4328
  100SAPS   C3310092   5.955   2.921   7.178  0.3368 -0.0568 -0.0530
  100SAPS   H3X10093   5.900   2.825   7.186  0.7105 -0.2257  0.5232
  100SAPS   H3Y10094   5.900   2.992   7.112  1.1421 -0.9371 -1.7440
  100SAPS   C3410095   5.971   2.986   7.321 -0.7997 -0.0802 -0.4775
  100SAPS   H4X10096   5.869   3.005   7.361 -1.1138  0.0361 -1.2929
  100SAPS   H4Y10097   6.034   3.078   7.314  1.9115 -1.5631  2.2663
  100SAPS   C3510098   6.048   2.901   7.418 -0.1680 -0.0127 -0.6724
  100SAPS   H5X10099   6.154   2.896   7.386 -0.7533 -0.0123 -2.7291
  100SAPS   H5Y10100   6.012   2.796   7.417 -1.1884  0.3065  0.0718
  100SAPS   C3610101   6.037   2.956   7.562  0.0490  0.1136 -0.3041
  100SAPS   H6X10102   5.927   2.949   7.579  0.1668 -1.3063  0.0324
  100SAPS   H6Y10103   6.079   3.059   7.564 -0.2303  0.2509  2.6934
  100SAPS   C3710104   6.113   2.866   7.662 -0.0345 -0.0035 -0.2304
  100SAPS   H7X10105   6.220   2.861   7.634  0.8437 -1.1721  2.9317
  100SAPS   H7Y10106   6.069   2.764   7.661 -0.2901  0.0945  0.4217
  100SAPS   C3810107   6.094   2.909   7.804 -0.5100  0.0960 -0.5406
  100SAPS   H8X10108   6.091   3.020   7.812  0.5926  0.1645 -0.9506
  100SAPS   H8Y10109   6.175   2.869   7.869  0.0047 -0.0943 -1.2827
  100SAPS   C3910110   5.960   2.855   7.854  0.2526 -0.1272 -0.7631
  100SAPS   H9X10111   5.946   2.753   7.812  0.5396  0.4860 -2.4444
  100SAPS   H9Y10112   5.888   2.923   7.805  0.0433  1.3515  1.5051
  100SAPS  C31010113   5.940   2.848   8.006 -0.0273  0.0919  0.4746
  100SAPS  H10X10114   5.834   2.820   8.024 -0.1288 -0.2610 -0.5921
  100SAPS  H10Y10115   5.951   2.948   8.052 -0.7141  0.4515 -0.1387
  100SAPS  C31110116   6.015   2.723   8.078  0.1557  0.4007 -0.1545
  100SAPS  H11X10117   6.123   2.751   8.081  0.6888 -1.5623  2.1116
  100SAPS  H11Y10118   6.000   2.635   8.011  1.5659 -0.5933  0.7779
  100SAPS  C31210119   5.949   2.698   8.215 -0.3556  0.0611 -0.4116
  100SAPS  H12X10120   5.841   2.675   8.212 -0.3780  0.2047 -0.8052
  100SAPS  H12Y10121   5.967   2.792   8.272  0.5737 -1.8611  2.7128
  100SAPS  C31310122   6.022   2.590   8.299 -0.0018 -0.9703 -0.0662
  100SAPS  H13X10123   6.126   2.625   8.317 -0.5600  2.1186 -2.0164
  100SAPS  H13Y10124   6.037   2.495   8.244  1.0576 -0.4759 -0.6785
  100SAPS  C31410125   5.941   2.562   8.425  0.7310 -0.6763  0.2525
  100SAPS  H14X10126   5.835   2.545   8.396  0.5790  2.9643 -1.9677
  100SAPS  H14Y10127   5.952   2.653   8.488  2.2509 -2.6093  2.9737
  100SAPS  C31510128   6.005   2.446   8.497 -0.7439 -0.0984  0.3389
  100SAPS  H15X10129   6.102   2.479   8.539 -1.5473  0.9512  1.4623
  100SAPS  H15Y10130   6.032   2.360   8.432  0.2792  0.6619 -0.2789
  100SAPS  C31610131   5.915   2.389   8.602 -0.4526 -0.1353 -0.0630
  100SAPS  H16X10132   5.960   2.306   8.659  1.5220  0.8558 -0.1061
  100SAPS  H16Y10133   5.819   2.352   8.558 -0.6912  0.5901 -0.1725
  100SAPS  C31710134   5.877   2.493   8.705  0.6135 -0.8226 -0.0556
  100SAPS  H17X10135   5.794   2.457   8.768  0.3296 -0.5894 -0.2954
  100SAPS  H17Y10136   5.836   2.579   8.649 -1.9408 -3.1982 -2.1086
  100SAPS  C31810137   5.985   2.531   8.800  0.0278 -0.0023 -0.2571
  100SAPS  H18X10138   5.937   2.601   8.873  2.1006  0.5191  0.6945
  100SAPS  H18Y10139   6.074   2.587   8.762  1.3284  0.4486  3.0455
  100SAPS  H18Z10140   6.034   2.440   8.842  2.5261 -0.7059 -4.1852
  101OSM      N10141   2.372   1.620  11.207 -0.9769  0.5184 -0.3790
  101OSM    C1510142   2.404   1.567  11.345 -0.2106  0.1676 -0.1094
  101OSM   H15A10143   2.511   1.571  11.349 -0.2836  2.5660  2.4895
  101OSM   H15B10144   2.379   1.462  11.348 -1.2109  0.3706 -0.7195
  101OSM   H15C10145   2.356   1.629  11.419  0.0326 -0.4100  0.5430
  101OSM    C1410146   2.222   1.624  11.192  0.1472  0.2232 -0.3285
  101OSM   H14A10147   2.175   1.527  11.198 -0.3368  0.5231  1.2172
  101OSM   H14B10148   2.191   1.680  11.105  0.5525  0.2648 -0.4458
  101OSM   H14C10149   2.180   1.682  11.273 -1.5151 -1.9023  0.4570
  101OSM    C1310150   2.408   1.763  11.198 -0.7718  0.4967  0.5137
  101OSM   H13A10151   2.514   1.783  11.184 -0.4689 -0.8274  0.7518
  101OSM   H13B10152   2.386   1.825  11.283 -0.6051 -0.5642  1.3511
  101OSM   H13C10153   2.353   1.804  11.115 -0.6180 -0.6119 -0.1535
  101OSM    C1210154   2.445   1.539  11.099  0.3747 -0.1742  0.2193
  101OSM   H12A10155   2.414   1.585  11.006 -2.9671 -1.1023  0.7283
  101OSM   H12B10156   2.408   1.438  11.107  0.5282 -0.0973  2.3033
  101OSM    C1110157   2.601   1.548  11.099  0.4810 -0.3491 -0.1495
  101OSM   H11A10158   2.632   1.474  11.022 -3.6782 -1.4196 -1.0500
  101OSM   H11B10159   2.641   1.517  11.198  1.7650  2.0290  0.1577
  101OSM      P10160   2.693   1.725  10.926 -0.4481  0.4727 -0.0678
  101OSM    O1310161   2.661   1.867  10.935 -0.5378  0.3386  0.3872
  101OSM    O1410162   2.831   1.686  10.892 -0.0229  0.3639  0.3809
  101OSM    O1110163   2.593   1.658  10.836  0.2680  0.2063  0.1367
  101OSM    O1210164   2.654   1.675  11.072 -0.5037  0.0693 -0.5830
  101OSM    C1S10165   2.506   1.716  10.737  0.6886  0.3649 -0.4224
  101OSM    H1S10166   2.493   1.825  10.758 -1.3920 -0.4811  3.6629
  101OSM    H1T10167   2.403   1.677  10.748  0.7633  0.2146 -0.2678
  101OSM     NF10168   2.471   1.768  10.491  0.4431 -0.1867  0.3087
  101OSM    HNF10169   2.411   1.732  10.420 -2.3013 -0.2904  2.4839
  101OSM    C2S10170   2.540   1.682  10.589  0.4878 -0.2673  0.0772
  101OSM    H2S10171   2.650   1.694  10.577  0.7554 -1.3060  1.3134
  101OSM    C3S10172   2.524   1.537  10.567 -0.2907  0.5640 -0.2192
  101OSM    H3S10173   2.418   1.506  10.566  0.3356 -1.9391  0.9821
  101OSM     O310174   2.592   1.455  10.660 -0.7367 -0.5119  0.0264
  101OSM    HO310175   2.595   1.513  10.737 -0.4139 -1.4441  0.7380
  101OSM    C4S10176   2.584   1.496  10.434 -0.5844 -0.1031  0.0039
  101OSM    H4S10177   2.511   1.517  10.355  0.1778 -0.2126 -0.7491
  101OSM    C5S10178   2.704   1.431  10.401 -0.3723  0.2047  0.3714
  101OSM    H5S10179   2.773   1.415  10.485 -2.4025 -0.7008  1.9410
  101OSM    C6S10180   2.766   1.397  10.264  0.3391 -0.5937  0.1158
  101OSM    H6S10181   2.760   1.291  10.233  1.1209 -0.4880 -0.4081
  101OSM    H6T10182   2.874   1.421  10.263  0.3921 -0.8375 -1.3512
  101OSM    C7S10183   2.702   1.482  10.148 -0.3836  0.0891  0.5757
  101OSM    H7S10184   2.708   1.591  10.166 -0.8937  0.4764 -1.4132
  101OSM    H7T10185   2.596   1.452  10.132 -0.0493 -0.6658 -0.3117
  101OSM    C8S10186   2.764   1.460  10.003  0.1880  0.3393  0.1114
  101OSM    H8S10187   2.770   1.349  10.002  1.9330  0.4007  0.9024
  101OSM    H8T10188   2.863   1.510  10.002 -0.1164  0.9667  0.3973
  101OSM    C9S10189   2.678   1.504   9.879 -0.4787  0.0159  0.4714
  101OSM    H9S10190   2.665   1.613   9.865  0.1234 -0.1982 -2.1888
  101OSM    H9T10191   2.578   1.457   9.888 -0.6484 -0.3405 -2.4188
  101OSM   C10S10192   2.757   1.441   9.758 -0.0529 -0.4684 -0.3505
  101OSM   H10S10193   2.754   1.332   9.781 -0.7663 -0.7301 -1.6133
  101OSM   H10T10194   2.864   1.472   9.754  0.2390 -1.3829  0.0175
  101OSM   C11S10195   2.676   1.467   9.630 -0.0590 -0.3264  0.0692
  101OSM   H11S10196   2.696   1.573   9.606  3.6299 -1.1278 -0.8906
  101OSM   H11T10197   2.572   1.438   9.659  0.6027 -3.5914 -0.4941
  101OSM   C12S10198   2.717   1.375   9.514 -0.9119 -0.2215 -0.3964
  101OSM   H12S10199   2.721   1.270   9.550  0.4299 -0.6111 -1.6214
  101OSM   H12T10200   2.817   1.409   9.481 -0.8024 -1.6067 -1.5946
  101OSM   C13S10201   2.628   1.379   9.390  0.7726  0.2675  0.1905
  101OSM   H13S10202   2.588   1.482   9.375 -3.1055 -1.1540 -0.3999
  101OSM   H13T10203   2.537   1.316   9.403  0.0339  0.8808 -1.6783
  101OSM   C14S10204   2.701   1.329   9.260 -0.0090 -0.1019 -0.5282
  101OSM   H14S10205   2.712   1.219   9.270  0.9146 -0.1071 -1.4488
  101OSM   H14T10206   2.792   1.392   9.247  1.7374 -1.9858  1.7024
  101OSM   C15S10207   2.609   1.352   9.143 -0.6316  0.3385 -0.4618
  101OSM   H15S10208   2.589   1.461   9.153  2.9007  0.8866  3.1227
  101OSM   H15T10209   2.519   1.289   9.162 -0.2654  0.4367  1.8950
  101OSM   C16S10210   2.678   1.327   9.014  0.0535 -0.3604 -0.1835
  101OSM   H16S10211   2.703   1.219   9.001  2.4123  0.1484 -0.4165
  101OSM   H16T10212   2.780   1.372   9.008 -0.4155  0.6824 -0.4564
  101OSM   C17S10213   2.601   1.375   8.890 -0.0355 -1.0883  0.3279
  101OSM   H17S10214   2.683   1.399   8.819 -0.2787  1.6101  0.8664
  101OSM   H17T10215   2.545   1.464   8.925  3.2054  1.2895 -0.0953
  101OSM   C18S10216   2.513   1.276   8.832 -0.0754  0.4275  0.5490
  101OSM   H18S10217   2.431   1.237   8.895 -0.8805  2.1970  0.6602
  101OSM   H18T10218   2.586   1.199   8.800  0.4479  0.0797  2.4640
  101OSM   H18U10219   2.463   1.301   8.736 -0.9671 -2.4735  0.1553
  101OSM    C1F10220   2.480   1.908  10.495 -0.4233  1.1804  0.0293
  101OSM     OF10221   2.560   1.965  10.571  0.7377  0.2419  0.6289
  101OSM    C2F10222   2.411   1.979  10.389 -0.1348 -0.4971 -0.1049
  101OSM    H2F10223   2.319   1.920  10.366  1.1977 -2.9518  0.6200
  101OSM    H2G10224   2.478   1.975  10.300 -0.0172 -0.8134 -0.0009
  101OSM    C3F10225   2.375   2.125  10.417  0.7559 -0.1455  0.1885
  101OSM    H3F10226   2.464   2.185  10.446  0.4606 -0.0243  0.8584
  101OSM    H3G10227   2.306   2.122  10.504  1.1812  3.3018  0.7714
  101OSM    C4F10228   2.290   2.201  10.307 -0.0270  0.3031  0.6801
  101OSM    H4F10229   2.280   2.301  10.355  0.7912  1.5591 -1.6403
  101OSM    H4G10230   2.186   2.161  10.304 -0.5669  1.7196 -2.6107
  101OSM    C5F10231   2.344   2.211  10.165 -0.2410  0.2348  0.4842
  101OSM    H5F10232   2.369   2.106  10.137 -1.4485 -1.2964  4.4059
  101OSM    H5G10233   2.433   2.276  10.175  0.0244  0.0908 -0.8349
  101OSM    C6F10234   2.240   2.248  10.061  1.0132 -0.1371 -0.2196
  101OSM    H6F10235   2.170   2.166  10.033 -1.5365  1.2390  1.6773
  101OSM    H6G10236   2.294   2.276   9.969 -0.3451 -0.1214 -1.0376
  101OSM    C7F10237   2.157   2.370  10.103 -0.3809 -0.1707 -0.2911
  101OSM    H7F10238   2.216   2.435  10.171 -0.3523 -2.0963  1.6215
  101OSM    H7G10239   2.081   2.326  10.172  0.1641  1.5214  1.4836
  101OSM    C8F10240   2.100   2.469  10.001  1.1704 -0.4350 -0.4209
  101OSM    H8F10241   2.180   2.538   9.966  1.0085 -1.6049 -3.3905
  101OSM    H8G10242   2.032   2.542  10.050  1.5069 -0.4250  0.0423
  101OSM    C9F10243   2.016   2.401   9.895 -0.4657  0.4587  0.1083
  101OSM    H9F10244   1.948   2.324   9.933  0.4103  0.2401  1.3163
  101OSM   C10F10245   2.017   2.437   9.766  0.5229 -0.2196 -0.3001
  101OSM   H10F10246   1.955   2.383   9.693  0.7062 -0.2528 -0.4345
  101OSM   C11F10247   2.107   2.542   9.698 -0.2125  0.4277 -0.4807
  101OSM   H11F10248   2.184   2.493   9.634  0.3261  0.8599 -0.1761
  101OSM   H11G10249   2.157   2.599   9.779  1.2898 -0.5805 -0.6503
  101OSM   C12F10250   2.034   2.634   9.601  0.2866  0.4704  0.1573
  101OSM   H12F10251   1.981   2.714   9.657 -1.3992  0.4552 -1.3278
  101OSM   H12G10252   1.957   2.574   9.549  0.8235  0.2050 -0.3416
  101OSM   C13F10253   2.118   2.683   9.481  0.0816 -0.6240 -0.7271
  101OSM   H13F10254   2.187   2.611   9.431 -0.6247 -0.4496 -1.9921
  101OSM   H13G10255   2.178   2.770   9.515 -0.4103  0.1318 -1.7417
  101OSM   C14F10256   2.030   2.721   9.361  0.2240 -0.1751  0.1534
  101OSM   H14F10257   2.059   2.816   9.310 -1.6776 -0.6216 -1.9698
  101OSM   H14G10258   1.927   2.747   9.393  0.1796  1.9155 -1.4585
  101OSM   C15F10259   2.023   2.613   9.258 -0.3170 -0.9633  0.3870
  101OSM   H15F10260   1.993   2.523   9.316 -1.2757 -1.6797 -1.1200
  101OSM   H15G10261   2.122   2.590   9.213 -0.5875  1.4669 -1.7202
  101OSM   C16F10262   1.932   2.646   9.138 -0.1829  0.0171 -0.1177
  101OSM   H16F10263   1.988   2.722   9.079 -0.2057  1.2889  1.4072
  101OSM   H16G10264   1.843   2.699   9.178  0.7861  0.7291  1.1888
  101OSM   C17F10265   1.896   2.533   9.034 -0.3689 -0.3730 -0.1718
  101OSM   H17F10266   1.841   2.586   8.953 -0.9186 -1.2765 -0.4091
  101OSM   H17G10267   1.822   2.460   9.072 -0.8208 -1.4684 -2.9358
  101OSM   C18F10268   2.019   2.459   8.979  0.8590  0.1864 -0.7579
  101OSM   H18F10269   2.090   2.530   8.930  1.7445  0.8636  1.3821
  101OSM   H18G10270   1.991   2.383   8.903  1.4437  1.1223 -1.9506
  101OSM   H18H10271   2.074   2.406   9.059  1.0322  0.9324 -0.3687
  102OSM      N10272   1.780   1.996  11.153  0.0175 -0.0725  0.6981
  102OSM    C1510273   1.652   2.010  11.229 -0.7731  0.1192 -0.2170
  102OSM   H15A10274   1.605   2.104  11.206 -0.7053 -0.1136 -1.3570
  102OSM   H15B10275   1.675   2.014  11.334 -0.1605 -2.7124 -0.1435
  102OSM   H15C10276   1.568   1.949  11.199 -0.1844 -0.4207 -0.7997
  102OSM    C1410277   1.868   2.110  11.189  0.3166 -0.0740 -0.2949
  102OSM   H14A10278   1.818   2.197  11.150  3.8787  1.9078 -0.9050
  102OSM   H14B10279   1.964   2.107  11.138  0.3827  1.1593 -0.2731
  102OSM   H14C10280   1.876   2.111  11.297 -2.0694  1.9246 -0.0611
  102OSM    C1310281   1.842   1.865  11.186 -0.5577  0.2068  0.1630
  102OSM   H13A10282   1.889   1.852  11.282  0.1981 -0.4585 -0.2764
  102OSM   H13B10283   1.922   1.842  11.116 -1.2995 -0.7909 -0.3812
  102OSM   H13C10284   1.772   1.785  11.169  0.8661 -1.1852  0.5440
  102OSM    C1210285   1.746   1.990  11.000 -1.1480 -0.1891  0.1225
  102OSM   H12A10286   1.685   2.074  10.972 -0.2838  0.8856  1.3517
  102OSM   H12B10287   1.679   1.907  10.983  0.8152 -2.1661  1.4286
  102OSM    C1110288   1.867   1.975  10.899 -0.8602  0.1186 -1.0811
  102OSM   H11A10289   1.941   2.052  10.930 -0.1986 -1.4060  1.4061
  102OSM   H11B10290   1.836   2.000  10.795  1.2547  2.6785 -1.1843
  102OSM      P10291   1.847   1.719  10.862 -0.2656  0.2326  0.4038
  102OSM    O1310292   1.941   1.600  10.881  0.1894 -0.2033 -0.5592
  102OSM    O1410293   1.728   1.714  10.943  0.2445  0.0545 -0.1102
  102OSM    O1110294   1.828   1.755  10.703  0.1178  0.0814 -0.3285
  102OSM    O1210295   1.928   1.839  10.910 -0.0896 -0.8633  0.0577
  102OSM    C1S10296   1.693   1.751  10.655  0.3446 -0.1038  0.1094
  102OSM    H1S10297   1.637   1.845  10.672  2.3975  1.0849  0.6147
  102OSM    H1T10298   1.651   1.656  10.694  1.8837 -1.7635 -1.9600
  102OSM     NF10299   1.551   1.696  10.459  0.3452 -0.3084 -0.7756
  102OSM    HNF10300   1.537   1.599  10.441  1.0353 -0.7261  0.7554
  102OSM    C2S10301   1.683   1.717  10.503 -0.5591  0.2685 -0.3704
  102OSM    H2S10302   1.732   1.797  10.443  1.0347 -0.6834 -0.3971
  102OSM    C3S10303   1.772   1.588  10.466 -0.0282 -0.0190  0.5734
  102OSM    H3S10304   1.727   1.498  10.513 -0.4988  0.9346  2.0400
  102OSM     O310305   1.904   1.602  10.517 -0.2542  0.4794 -0.6535
  102OSM    HO310306   1.887   1.682  10.567 -0.3419  0.2065 -0.2509
  102OSM    C4S10307   1.760   1.560  10.313 -0.2747 -0.1702 -0.4995
  102OSM    H4S10308   1.695   1.474  10.291 -0.6169  0.1588 -0.7822
  102OSM    C5S10309   1.808   1.634  10.213 -0.0048 -0.2714  0.9438
  102OSM    H5S10310   1.867   1.725  10.230 -0.4535 -0.0698  1.4464
  102OSM    C6S10311   1.780   1.617  10.066 -0.0949  0.3710  0.4988
  102OSM    H6S10312   1.770   1.508  10.044 -3.3954  0.0118  2.9748
  102OSM    H6T10313   1.867   1.663  10.015 -0.7688 -0.1983 -1.2342
  102OSM    C7S10314   1.651   1.697  10.034 -0.4811  0.5018  0.9489
  102OSM    H7S10315   1.653   1.801  10.073 -0.5866  0.5142  0.9224
  102OSM    H7T10316   1.570   1.637  10.081 -0.3155 -0.2055  0.3614
  102OSM    C8S10317   1.631   1.716   9.877 -0.7293 -0.2162  1.0003
  102OSM    H8S10318   1.725   1.760   9.837  0.4639 -0.5542  3.2681
  102OSM    H8T10319   1.544   1.782   9.857  0.6125  1.4660  0.4795
  102OSM    C9S10320   1.594   1.580   9.804  0.0274 -0.0767  0.4630
  102OSM    H9S10321   1.502   1.538   9.850 -0.1094  0.7616  0.9776
  102OSM    H9T10322   1.680   1.513   9.827  0.9901  0.5431 -1.1406
  102OSM   C10S10323   1.554   1.575   9.654 -0.3913 -0.2755 -0.4271
  102OSM   H10S10324   1.450   1.614   9.646 -0.1737  0.1030 -1.7139
  102OSM   H10T10325   1.544   1.468   9.628 -1.1818 -0.4819  0.6721
  102OSM   C11S10326   1.666   1.647   9.582  0.6468 -0.0163  0.7347
  102OSM   H11S10327   1.762   1.596   9.609  1.0334  0.3882  0.1486
  102OSM   H11T10328   1.657   1.751   9.620  0.3672  0.7898 -1.4006
  102OSM   C12S10329   1.654   1.631   9.432  0.1750  0.0760 -0.2902
  102OSM   H12S10330   1.663   1.525   9.400  0.4986 -0.3253  1.0642
  102OSM   H12T10331   1.748   1.679   9.398 -0.1269  0.8553 -0.0482
  102OSM   C13S10332   1.538   1.716   9.358  0.4320 -0.6107  0.1456
  102OSM   H13S10333   1.556   1.825   9.363 -2.4962 -0.0039 -0.5077
  102OSM   H13T10334   1.441   1.700   9.410  0.6045 -1.8489  0.1302
  102OSM   C14S10335   1.507   1.669   9.218 -0.2943  0.7280  0.6868
  102OSM   H14S10336   1.411   1.723   9.204 -0.9486  0.2134  2.8387
  102OSM   H14T10337   1.477   1.562   9.218 -0.0334  0.5996 -1.4967
  102OSM   C15S10338   1.615   1.686   9.113 -0.4263  0.7593  0.7087
  102OSM   H15S10339   1.708   1.640   9.153  0.1206  1.4764  0.2873
  102OSM   H15T10340   1.635   1.794   9.103  0.2133  0.4070 -3.2475
  102OSM   C16S10341   1.574   1.634   8.973  0.2374  0.3575  0.3624
  102OSM   H16S10342   1.496   1.705   8.940 -0.0507 -0.0955  0.0511
  102OSM   H16T10343   1.532   1.532   8.986 -1.8708  0.9350 -1.3907
  102OSM   C17S10344   1.697   1.638   8.885 -0.0401 -0.3236  0.6478
  102OSM   H17S10345   1.772   1.579   8.942  0.1265  0.7055  1.5156
  102OSM   H17T10346   1.733   1.743   8.880  0.4186 -0.5079 -0.0949
  102OSM   C18S10347   1.668   1.576   8.748  0.3580 -0.8972 -0.3701
  102OSM   H18S10348   1.595   1.632   8.685  0.7306 -1.4403 -1.3151
  102OSM   H18T10349   1.631   1.472   8.755 -1.2223 -0.3086  0.4604
  102OSM   H18U10350   1.753   1.574   8.677 -0.2166 -0.4523 -1.0886
  102OSM    C1F10351   1.453   1.788  10.455  0.2893  0.0007 -0.0880
  102OSM     OF10352   1.468   1.900  10.504  0.0376  0.0766  0.1405
  102OSM    C2F10353   1.323   1.741  10.410  0.5537 -0.4979 -0.8214
  102OSM    H2F10354   1.262   1.692  10.489 -2.1676  2.6890 -0.7481
  102OSM    H2G10355   1.329   1.659  10.335  0.0961 -2.4534  1.1658
  102OSM    C3F10356   1.231   1.862  10.373  0.3279  0.6766  0.2156
  102OSM    H3F10357   1.217   1.918  10.468  0.1396 -0.2023  0.7172
  102OSM    H3G10358   1.132   1.825  10.342  0.1782  0.1547  1.2630
  102OSM    C4F10359   1.280   1.944  10.253  0.1111  0.3590 -0.6243
  102OSM    H4F10360   1.380   1.992  10.251  0.7264 -0.8350  0.1093
  102OSM    H4G10361   1.212   2.032  10.255 -1.0276 -0.4928 -0.9106
  102OSM    C5F10362   1.266   1.850  10.123  0.0068 -0.0145 -0.3698
  102OSM    H5F10363   1.165   1.804  10.121 -0.0363  0.0957 -2.3896
  102OSM    H5G10364   1.340   1.768  10.131  0.0716 -0.1276 -1.8978
  102OSM    C6F10365   1.283   1.926   9.995 -0.2352 -0.5964 -0.1754
  102OSM    H6F10366   1.389   1.957   9.981  0.0308 -2.0899 -1.7437
  102OSM    H6G10367   1.215   2.014   9.989 -0.7089 -0.9529 -0.0573
  102OSM    C7F10368   1.255   1.835   9.870  0.1826 -0.8215 -0.0122
  102OSM    H7F10369   1.149   1.799   9.869 -0.2670  0.4539 -0.0945
  102OSM    H7G10370   1.325   1.750   9.887 -1.3497 -1.5646  3.7011
  102OSM    C8F10371   1.293   1.894   9.731 -0.3383 -0.7513  0.5784
  102OSM    H8F10372   1.280   1.819   9.651  0.8141 -1.2555  0.8420
  102OSM    H8G10373   1.403   1.898   9.746 -0.5941  0.8734  2.5319
  102OSM    C9F10374   1.232   2.023   9.694 -0.2791 -0.7914 -0.3013
  102OSM    H9F10375   1.146   2.055   9.756  0.9861 -0.7193  1.5136
  102OSM   C10F10376   1.258   2.094   9.583  0.3858 -0.0426 -0.5695
  102OSM   H10F10377   1.197   2.184   9.571  1.1641  0.3621 -1.6805
  102OSM   C11F10378   1.346   2.068   9.471 -0.2174  0.4500 -0.3318
  102OSM   H11F10379   1.424   1.990   9.481 -1.5819 -0.9010  0.0999
  102OSM   H11G10380   1.389   2.170   9.462 -0.4028  0.6980  1.3380
  102OSM   C12F10381   1.269   2.048   9.337  0.4552 -0.1343  0.2210
  102OSM   H12F10382   1.201   2.135   9.324  0.2101  0.3080  3.5840
  102OSM   H12G10383   1.204   1.959   9.325 -1.4657  1.1776  0.3467
  102OSM   C13F10384   1.370   2.049   9.221 -0.1122 -0.0878 -0.1737
  102OSM   H13F10385   1.433   1.958   9.219  0.9901  0.5809  1.6745
  102OSM   H13G10386   1.436   2.138   9.227 -1.5582  1.0635 -0.6089
  102OSM   C14F10387   1.292   2.042   9.091 -0.2511 -0.5228  0.0147
  102OSM   H14F10388   1.236   2.134   9.065  0.1184  0.2087  1.7039
  102OSM   H14G10389   1.208   1.970   9.098  1.1587 -2.1668  0.7830
  102OSM   C15F10390   1.373   1.990   8.974  0.3753  0.3768  0.4340
  102OSM   H15F10391   1.307   1.972   8.886  1.6135  0.2125 -0.4961
  102OSM   H15G10392   1.419   1.895   9.007  1.9800  1.2574  0.8682
  102OSM   C16F10393   1.473   2.094   8.921  0.6611 -0.0126  0.3222
  102OSM   H16F10394   1.537   2.134   9.002  0.2907  0.3370  0.4447
  102OSM   H16G10395   1.411   2.172   8.871  0.4322 -0.9972 -0.9840
  102OSM   C17F10396   1.577   2.034   8.824 -0.3244 -0.0462 -0.7978
  102OSM   H17F10397   1.522   1.973   8.749  0.1062 -1.8729  0.3224
  102OSM   H17G10398   1.649   1.967   8.877 -2.8068 -0.3216  2.5503
  102OSM   C18F10399   1.663   2.143   8.746  0.3262  0.5020 -0.7594
  102OSM   H18F10400   1.748   2.098   8.691  1.2131  1.4885 -0.2331
  102OSM   H18G10401   1.718   2.216   8.809  1.0749  0.4069 -1.2820
  102OSM   H18H10402   1.593   2.201   8.682  0.4168  1.0811 -0.3397
  103OSM      N10403   4.575   5.043  11.034  0.1312 -0.2505  0.1062
  103OSM    C1510404   4.560   5.046  10.883 -0.1296  0.3189 -0.6789
  103OSM   H15A10405   4.472   4.992  10.852 -1.2146  1.3557  0.4797
  103OSM   H15B10406   4.649   5.008  10.834  1.9763  2.4281  1.2677
  103OSM   H15C10407   4.532   5.146  10.853 -2.0300  0.6515  1.8777
  103OSM    C1410408   4.693   5.121  11.081 -0.2953 -0.6456  0.5806
  103OSM   H14A10409   4.787   5.087  11.041 -0.1811 -1.7772  1.7470
  103OSM   H14B10410   4.698   5.123  11.189  0.3206 -1.6150  0.5842
  103OSM   H14C10411   4.699   5.221  11.040 -0.6460 -0.3530  1.2314
  103OSM    C1310412   4.452   5.103  11.096  0.3294 -0.9041 -0.1425
  103OSM   H13A10413   4.372   5.031  11.100 -1.1857  0.7560  1.0473
  103OSM   H13B10414   4.420   5.195  11.049  0.8317 -0.3867  0.5101
  103OSM   H13C10415   4.467   5.129  11.199 -1.5135 -0.2040 -0.0144
  103OSM    C1210416   4.590   4.902  11.086 -0.0697 -0.2362 -0.1112
  103OSM   H12A10417   4.599   4.905  11.194  1.0883  0.0289 -0.1952
  103OSM   H12B10418   4.687   4.870  11.052  0.5786 -0.4247  1.7941
  103OSM    C1110419   4.486   4.797  11.047  0.3125  0.2154  0.7713
  103OSM   H11A10420   4.510   4.690  11.064  0.2266  0.0334 -0.1614
  103OSM   H11B10421   4.467   4.806  10.937  1.0294  0.9893  0.7090
  103OSM      P10422   4.231   4.754  11.091 -0.0062  0.0549 -0.0303
  103OSM    O1310423   4.265   4.609  11.089  0.1499  0.1985  0.2255
  103OSM    O1410424   4.128   4.808  11.183 -0.3113 -0.0821 -0.1701
  103OSM    O1110425   4.190   4.792  10.945  0.0693  0.0456 -0.1076
  103OSM    O1210426   4.367   4.826  11.124  0.3967  0.3198  0.8407
  103OSM    C1S10427   4.182   4.929  10.895  0.3130 -0.0319  0.4052
  103OSM    H1S10428   4.282   4.977  10.901 -0.2052  0.9894  1.1431
  103OSM    H1T10429   4.119   4.994  10.960  0.8991  1.7873 -0.7714
  103OSM     NF10430   4.147   5.045  10.687 -0.4819  0.1953 -0.0059
  103OSM    HNF10431   4.070   5.108  10.684 -2.1342 -1.5602  2.3281
  103OSM    C2S10432   4.136   4.917  10.752  0.4219  0.3077  0.2545
  103OSM    H2S10433   4.208   4.846  10.706 -1.4176 -1.9067  0.6559
  103OSM    C3S10434   3.988   4.857  10.740 -0.5240 -0.2823 -0.6073
  103OSM    H3S10435   3.917   4.924  10.792 -0.2037 -0.3648 -0.0580
  103OSM     O310436   3.975   4.730  10.798  0.0213  0.3256  0.1850
  103OSM    HO310437   4.057   4.714  10.845 -1.1468 -2.9818  1.4048
  103OSM    C4S10438   3.933   4.852  10.598 -0.2369 -0.2991 -0.5691
  103OSM    H4S10439   4.001   4.804  10.525  0.8984  1.7977 -0.9690
  103OSM    C5S10440   3.816   4.904  10.564  0.2655 -0.4564  0.3484
  103OSM    H5S10441   3.755   4.945  10.646 -1.2045 -0.3551 -0.7548
  103OSM    C6S10442   3.745   4.897  10.431 -0.6624 -0.6068  0.4094
  103OSM    H6S10443   3.638   4.872  10.447 -0.1462 -2.4035  1.3560
  103OSM    H6T10444   3.792   4.814  10.374 -1.0844  0.2889 -1.3271
  103OSM    C7S10445   3.770   5.026  10.346  0.0537 -0.1659  0.3301
  103OSM    H7S10446   3.877   5.054  10.354 -0.2319  0.9589  0.3682
  103OSM    H7T10447   3.725   5.115  10.395  2.1305  2.0433 -1.5128
  103OSM    C8S10448   3.732   5.025  10.196  0.0209 -0.4953 -0.3171
  103OSM    H8S10449   3.791   4.941  10.154  1.8427  1.2912 -1.5000
  103OSM    H8T10450   3.774   5.119  10.155 -2.4191  0.3551 -1.0233
  103OSM    C9S10451   3.587   5.021  10.154  0.3100 -0.1831  0.0811
  103OSM    H9S10452   3.508   5.094  10.181  1.2327  1.1895 -0.8332
  103OSM    H9T10453   3.543   4.929  10.199 -0.9389  0.3177 -0.0568
  103OSM   C10S10454   3.576   5.000  10.006  0.2748  0.8790  0.1922
  103OSM   H10S10455   3.478   4.962   9.970  1.1699 -2.7688  1.1546
  103OSM   H10T10456   3.647   4.919   9.976  0.7271  1.8319 -1.4754
  103OSM   C11S10457   3.612   5.130   9.925 -0.0309  0.3010  0.0000
  103OSM   H11S10458   3.721   5.149   9.932 -0.1377  1.9266 -1.9912
  103OSM   H11T10459   3.569   5.220   9.975 -1.5332 -0.3226 -0.1173
  103OSM   C12S10460   3.562   5.128   9.775  0.0552 -0.1151 -0.3072
  103OSM   H12S10461   3.591   5.222   9.722  0.6407 -1.5782 -2.7331
  103OSM   H12T10462   3.451   5.124   9.778 -0.1369  2.4945 -0.9968
  103OSM   C13S10463   3.602   5.007   9.694  0.3938  0.0468 -0.3332
  103OSM   H13S10464   3.533   4.926   9.726 -0.3115  0.6098 -0.4246
  103OSM   H13T10465   3.703   4.981   9.733 -0.2423  0.4923  1.7515
  103OSM   C14S10466   3.581   5.031   9.544  0.9461  0.5379 -0.2887
  103OSM   H14S10467   3.637   4.947   9.496 -2.0695 -2.7482  1.4292
  103OSM   H14T10468   3.625   5.127   9.510  1.2998  1.0731  1.5715
  103OSM   C15S10469   3.437   5.010   9.494 -0.2993  0.2396  0.1628
  103OSM   H15S10470   3.374   5.088   9.541 -1.9097 -0.4628 -0.7315
  103OSM   H15T10471   3.403   4.909   9.527 -0.3816 -0.0463 -0.7617
  103OSM   C16S10472   3.420   5.017   9.338 -0.2441 -0.5015 -0.0913
  103OSM   H16S10473   3.327   4.962   9.312 -0.5050 -0.7504  1.3008
  103OSM   H16T10474   3.506   4.976   9.282 -2.2387 -2.4995 -1.9121
  103OSM   C17S10475   3.406   5.166   9.278 -0.3111  0.2452 -0.0215
  103OSM   H17S10476   3.507   5.209   9.295 -1.1755  2.7832 -0.9087
  103OSM   H17T10477   3.330   5.219   9.339  0.4355  1.4889 -0.1473
  103OSM   C18S10478   3.363   5.162   9.126  0.3077  0.5467 -0.0560
  103OSM   H18S10479   3.257   5.129   9.116  1.2094 -2.9266  0.3907
  103OSM   H18T10480   3.419   5.084   9.070  2.0587  1.2853  0.5715
  103OSM   H18U10481   3.379   5.262   9.080  0.5886  0.5320  0.0085
  103OSM    C1F10482   4.269   5.072  10.637 -0.3977 -0.2030 -0.0535
  103OSM     OF10483   4.363   5.004  10.665 -0.1336  0.3344  0.3272
  103OSM    C2F10484   4.282   5.196  10.556 -0.1788 -0.5578  0.0482
  103OSM    H2F10485   4.380   5.222  10.512  0.2146 -1.0551  0.6237
  103OSM    H2G10486   4.264   5.276  10.631  2.1545  0.1481 -0.0673
  103OSM    C3F10487   4.175   5.202  10.446  0.7066 -0.8394 -0.2891
  103OSM    H3F10488   4.197   5.297  10.393 -1.8513  0.6332  1.1289
  103OSM    H3G10489   4.070   5.208  10.482  0.7405  1.0881 -0.4173
  103OSM    C4F10490   4.183   5.092  10.337 -0.6018 -0.0972 -0.4404
  103OSM    H4F10491   4.132   5.008  10.389  1.6336 -0.2969  1.5619
  103OSM    H4G10492   4.289   5.080  10.307 -0.3459  0.3658  0.2731
  103OSM    C5F10493   4.129   5.137  10.199 -0.1870  0.0711 -0.0533
  103OSM    H5F10494   4.174   5.237  10.179 -3.3208  1.2391 -2.0687
  103OSM    H5G10495   4.020   5.156  10.210 -0.1776  0.5475 -0.7361
  103OSM    C6F10496   4.146   5.033  10.080  0.2662  0.2064 -0.4702
  103OSM    H6F10497   4.108   4.932  10.109  1.2522 -0.2232 -0.6287
  103OSM    H6G10498   4.255   5.018  10.065  0.4881  0.2051  1.0045
  103OSM    C7F10499   4.067   5.070   9.955  1.0048 -0.4799  0.1732
  103OSM    H7F10500   4.088   5.175   9.925 -3.2173  0.6642  0.5933
  103OSM    H7G10501   3.959   5.084   9.978  1.6297  0.9615  2.6778
  103OSM    C8F10502   4.092   4.982   9.840  0.1309  0.9446  0.6813
  103OSM    H8F10503   4.202   4.973   9.843  0.0775  0.5128  1.5723
  103OSM    H8G10504   4.071   5.037   9.746 -2.4574 -0.4116  0.3493
  103OSM    C9F10505   4.022   4.846   9.838 -0.9914  0.2620 -0.6271
  103OSM    H9F10506   4.033   4.786   9.929 -0.9138  0.8805 -0.2302
  103OSM   C10F10507   3.955   4.791   9.733  0.0276  0.1708  0.4430
  103OSM   H10F10508   3.919   4.687   9.731 -0.2381  0.2738 -0.3898
  103OSM   C11F10509   3.932   4.863   9.604  0.0292 -0.3929 -0.2134
  103OSM   H11F10510   3.987   4.959   9.591  0.7313 -0.6462  0.7376
  103OSM   H11G10511   3.824   4.889   9.606  0.1320  0.0807 -0.5804
  103OSM   C12F10512   3.936   4.765   9.483 -0.3119 -0.0898 -0.1291
  103OSM   H12F10513   3.859   4.688   9.503  1.3426 -1.1933  2.3767
  103OSM   H12G10514   4.036   4.717   9.473 -0.0217  0.7074 -1.3510
  103OSM   C13F10515   3.900   4.818   9.346  0.8136  0.1604 -0.3001
  103OSM   H13F10516   3.794   4.849   9.338  1.1732  1.3028 -0.7538
  103OSM   H13G10517   3.955   4.911   9.322 -1.4972  2.4445  2.4600
  103OSM   C14F10518   3.930   4.716   9.233  0.2709  0.0200  0.2455
  103OSM   H14F10519   3.884   4.621   9.267 -1.1980  0.4370 -0.5253
  103OSM   H14G10520   4.041   4.706   9.225  0.0487 -2.9355 -0.1007
  103OSM   C15F10521   3.874   4.756   9.099 -0.4243  0.1783 -0.0027
  103OSM   H15F10522   3.765   4.761   9.117 -0.8658 -0.1571 -2.2462
  103OSM   H15G10523   3.899   4.675   9.026  0.7699  0.6193 -0.1066
  103OSM   C16F10524   3.935   4.879   9.032  0.9193 -0.6785 -0.4526
  103OSM   H16F10525   4.046   4.871   9.029  1.0123 -0.8069  1.7419
  103OSM   H16G10526   3.916   4.973   9.088  1.7854 -0.8400  0.1388
  103OSM   C17F10527   3.890   4.914   8.889  0.7625 -0.4086  0.3367
  103OSM   H17F10528   3.785   4.893   8.858  1.3163  1.0317 -2.8733
  103OSM   H17G10529   3.951   4.845   8.826 -0.6131 -0.1293 -1.3865
  103OSM   C18F10530   3.916   5.064   8.856  0.6473 -0.1989 -0.1426
  103OSM   H18F10531   3.886   5.090   8.752 -0.6358  0.2950  0.3410
  103OSM   H18G10532   4.021   5.094   8.877  0.8252 -1.6123  1.1000
  103OSM   H18H10533   3.859   5.126   8.928  0.1525 -3.1762  2.2247
  104OSM      N10534   1.336   5.463  11.178  0.2417 -1.1392 -0.1173
  104OSM    C1510535   1.453   5.531  11.106  0.2121 -0.1324 -0.5042
  104OSM   H15A10536   1.430   5.530  11.001  1.8829  0.9269 -0.9188
  104OSM   H15B10537   1.548   5.482  11.119 -0.8804 -2.6198 -1.3964
  104OSM   H15C10538   1.468   5.633  11.139  1.7382 -0.4793 -0.0231
  104OSM    C1410539   1.354   5.476  11.325  0.0443  0.2278 -0.1372
  104OSM   H14A10540   1.363   5.577  11.360 -2.3954  0.1401  0.9465
  104OSM   H14B10541   1.444   5.424  11.355  1.1196  1.7519 -0.6267
  104OSM   H14C10542   1.270   5.430  11.375 -0.3653 -0.6855 -1.6110
  104OSM    C1310543   1.219   5.548  11.145  0.1324 -0.3025 -0.1757
  104OSM   H13A10544   1.139   5.513  11.208  0.0877 -0.2328 -0.1942
  104OSM   H13B10545   1.184   5.539  11.043 -0.3791 -2.2223  0.1371
  104OSM   H13C10546   1.244   5.652  11.160 -0.9082 -0.0965  0.2200
  104OSM    C1210547   1.316   5.325  11.134  0.6236  0.6835 -0.4203
  104OSM   H12A10548   1.406   5.268  11.153  0.7156  0.2669 -2.0232
  104OSM   H12B10549   1.297   5.332  11.028  2.2535  0.5226 -0.7452
  104OSM    C1110550   1.197   5.243  11.186  0.4258  0.4486  0.7471
  104OSM   H11A10551   1.207   5.231  11.296 -1.7469  2.3627  1.2276
  104OSM   H11B10552   1.197   5.137  11.155 -0.2414  0.9386 -1.0082
  104OSM      P10553   0.977   5.245  11.062  0.1958 -0.1863 -0.1424
  104OSM    O1310554   0.920   5.116  11.107  0.0229  0.8647 -0.5359
  104OSM    O1410555   0.875   5.351  11.033 -0.8370  0.0074 -0.0339
  104OSM    O1110556   1.070   5.224  10.940 -0.0905  0.2758  0.5506
  104OSM    O1210557   1.070   5.303  11.166 -0.6629  0.1277  0.4653
  104OSM    C1S10558   1.024   5.151  10.825  0.1840 -0.4853  0.2302
  104OSM    H1S10559   0.940   5.204  10.774 -0.7187 -2.8539 -0.8676
  104OSM    H1T10560   0.983   5.054  10.860 -1.6619  0.2725  0.2839
  104OSM     NF10561   1.094   5.044  10.607 -0.0926  0.8901 -0.1954
  104OSM    HNF10562   1.082   4.945  10.607  0.0506  0.8585 -1.3084
  104OSM    C2S10563   1.137   5.116  10.726 -0.2855  0.2184 -0.2641
  104OSM    H2S10564   1.179   5.217  10.706  2.7547 -0.6016  1.3078
  104OSM    C3S10565   1.251   5.041  10.801  0.2691  0.4327 -0.4163
  104OSM    H3S10566   1.204   4.947  10.837  0.4875  0.2965 -0.4858
  104OSM     O310567   1.301   5.093  10.923  0.4109  0.2086  0.3373
  104OSM    HO310568   1.231   5.153  10.951  0.1697  0.3784 -0.5993
  104OSM    C4S10569   1.361   5.010  10.707  0.0348 -0.0946 -0.0057
  104OSM    H4S10570   1.391   5.093  10.641 -1.4173 -0.6085 -1.3750
  104OSM    C5S10571   1.403   4.888  10.671 -0.1412 -0.0943  0.1363
  104OSM    H5S10572   1.355   4.799  10.712  0.7930 -0.1499  1.1403
  104OSM    C6S10573   1.501   4.856  10.555  0.5683  0.8551 -0.1508
  104OSM    H6S10574   1.473   4.755  10.518 -0.1855  1.0982 -0.2624
  104OSM    H6T10575   1.601   4.838  10.600 -0.0015 -0.5641  0.5973
  104OSM    C7S10576   1.533   4.965  10.451 -0.3511  0.4246  0.4502
  104OSM    H7S10577   1.621   4.927  10.395 -0.9451 -1.4069  0.7070
  104OSM    H7T10578   1.571   5.050  10.513 -1.8245  0.3751  1.4588
  104OSM    C8S10579   1.426   4.991  10.352  0.2700  0.3622  0.3183
  104OSM    H8S10580   1.327   5.020  10.394  0.0535  0.3693 -0.1873
  104OSM    H8T10581   1.397   4.890  10.316 -3.4998  1.0858  0.8791
  104OSM    C9S10582   1.474   5.096  10.249  0.1298 -0.9845  0.5418
  104OSM    H9S10583   1.565   5.059  10.198 -0.6002 -0.8149 -0.9362
  104OSM    H9T10584   1.502   5.186  10.308  0.5655 -1.4315  1.0226
  104OSM   C10S10585   1.382   5.122  10.135  0.7425 -0.0852 -0.8665
  104OSM   H10S10586   1.427   5.188  10.057 -1.9676  2.2262 -0.6420
  104OSM   H10T10587   1.295   5.173  10.183 -0.8025 -1.1178 -2.4361
  104OSM   C11S10588   1.324   5.000  10.064  0.7718  0.0797  0.0679
  104OSM   H11S10589   1.235   5.037  10.010 -1.1701 -2.3419  1.4365
  104OSM   H11T10590   1.288   4.925  10.137  2.3410 -0.8240 -0.0419
  104OSM   C12S10591   1.419   4.934   9.958 -0.3698  0.3204 -0.2721
  104OSM   H12S10592   1.372   4.837   9.931  0.8702 -0.4330  0.2098
  104OSM   H12T10593   1.514   4.905  10.008 -0.6459 -0.5022 -0.2129
  104OSM   C13S10594   1.446   5.016   9.826 -0.3045  0.0950 -0.1990
  104OSM   H13S10595   1.537   4.970   9.783 -2.1703 -1.6812 -2.5705
  104OSM   H13T10596   1.467   5.124   9.842 -1.3561  0.5628 -1.7468
  104OSM   C14S10597   1.327   5.016   9.728 -0.0945  0.1789  0.3333
  104OSM   H14S10598   1.240   5.078   9.758  0.0316  0.8393 -0.6125
  104OSM   H14T10599   1.295   4.910   9.714 -3.5035  1.2975 -1.3394
  104OSM   C15S10600   1.377   5.056   9.588 -0.4354  1.3712  0.1121
  104OSM   H15S10601   1.446   4.977   9.550 -1.9637  0.1063 -0.1516
  104OSM   H15T10602   1.428   5.154   9.594 -2.4879  2.4079  1.8104
  104OSM   C16S10603   1.278   5.070   9.475  0.3668  0.4216  0.7339
  104OSM   H16S10604   1.180   5.100   9.519 -0.9686 -0.7914 -1.2314
  104OSM   H16T10605   1.252   4.977   9.421 -1.3441 -0.2493  2.5835
  104OSM   C17S10606   1.306   5.175   9.376 -0.1220  0.1814 -0.1612
  104OSM   H17S10607   1.322   5.275   9.422  2.0779 -0.1365 -0.0868
  104OSM   H17T10608   1.219   5.194   9.309 -0.2183  1.3311  0.2641
  104OSM   C18S10609   1.420   5.136   9.294 -0.2982  0.0312  0.0064
  104OSM   H18S10610   1.393   5.035   9.255 -2.3596  0.4342  0.2469
  104OSM   H18T10611   1.514   5.124   9.352 -2.0597 -3.0655  2.6061
  104OSM   H18U10612   1.442   5.214   9.218 -0.6426 -0.8722 -1.0669
  104OSM    C1F10613   1.019   5.095  10.510  0.6094 -0.0377 -0.4161
  104OSM     OF10614   0.995   5.218  10.523 -0.0037 -0.3807  0.2751
  104OSM    C2F10615   0.970   4.998  10.405 -0.5278  0.3636  0.4413
  104OSM    H2F10616   0.907   4.916  10.445 -0.4537  0.7656  1.4201
  104OSM    H2G10617   1.056   4.947  10.357 -0.5932  2.1747 -1.7603
  104OSM    C3F10618   0.903   5.063  10.280 -0.3238  0.3749 -0.1972
  104OSM    H3F10619   0.970   5.149  10.257  0.3294 -0.3096 -0.9159
  104OSM    H3G10620   0.809   5.116  10.304  1.0284  2.3027  1.1508
  104OSM    C4F10621   0.876   4.975  10.159  0.2921 -0.1234 -0.2167
  104OSM    H4F10622   0.817   4.887  10.192 -3.0656  1.2831 -1.9257
  104OSM    H4G10623   0.973   4.938  10.121 -0.4684 -1.8618 -0.5396
  104OSM    C5F10624   0.788   5.041  10.051 -0.0712 -0.6069 -0.3052
  104OSM    H5F10625   0.836   5.141  10.049  0.0845 -0.6670  0.2922
  104OSM    H5G10626   0.686   5.056  10.092 -0.0356 -0.1971 -0.3564
  104OSM    C6F10627   0.788   4.972   9.916 -0.0664  0.5528 -0.0866
  104OSM    H6F10628   0.708   5.010   9.849 -0.2906 -0.9740 -0.7261
  104OSM    H6G10629   0.774   4.863   9.931 -0.2828  0.1622 -2.6638
  104OSM    C7F10630   0.922   4.974   9.850  0.0197 -0.3988  0.5054
  104OSM    H7F10631   1.007   4.923   9.902  2.9430  3.3108 -0.1678
  104OSM    H7G10632   0.956   5.079   9.859  0.4489  0.2768 -5.1646
  104OSM    C8F10633   0.926   4.955   9.696  0.1671  0.3543  0.3973
  104OSM    H8F10634   1.027   4.948   9.652 -0.0569 -1.4492  0.0848
  104OSM    H8G10635   0.886   5.053   9.663  1.8201  2.0081  2.9329
  104OSM    C9F10636   0.838   4.837   9.665 -0.3251 -0.5324 -0.4593
  104OSM    H9F10637   0.826   4.765   9.747  1.1442 -1.1855 -0.7681
  104OSM   C10F10638   0.758   4.833   9.555 -1.4647  0.4307  0.2242
  104OSM   H10F10639   0.698   4.742   9.539 -1.2829  0.7486 -2.9747
  104OSM   C11F10640   0.766   4.927   9.439  0.3672 -0.4796  0.2951
  104OSM   H11F10641   0.733   5.030   9.466 -0.6289 -1.0875  1.4649
  104OSM   H11G10642   0.683   4.887   9.377  0.8348 -0.1703 -0.5531
  104OSM   C12F10643   0.900   4.925   9.366 -0.4770  0.0134  0.0121
  104OSM   H12F10644   0.938   4.820   9.369 -0.9932 -0.1529  1.3421
  104OSM   H12G10645   0.963   4.994   9.425 -0.4123 -0.4420  0.4850
  104OSM   C13F10646   0.890   4.957   9.216 -0.6789  0.1324 -0.6170
  104OSM   H13F10647   0.850   5.061   9.211 -1.0377 -0.0003 -0.5386
  104OSM   H13G10648   0.826   4.886   9.159 -0.4962 -0.5932  0.0650
  104OSM   C14F10649   1.035   4.968   9.146 -0.5512  0.3749  0.1144
  104OSM   H14F10650   1.101   4.895   9.198 -0.5251 -0.5378 -1.1506
  104OSM   H14G10651   1.070   5.073   9.152 -1.4116  0.6071  1.5274
  104OSM   C15F10652   1.018   4.933   8.996 -0.3988  0.5064 -0.2306
  104OSM   H15F10653   0.970   5.012   8.933 -0.5725 -0.1651 -0.9585
  104OSM   H15G10654   0.963   4.837   8.995 -0.0691  0.2831  1.2134
  104OSM   C16F10655   1.155   4.896   8.936 -0.6580 -0.3461 -0.1324
  104OSM   H16F10656   1.157   4.854   8.833  1.0363 -2.5607  0.7186
  104OSM   H16G10657   1.188   4.806   8.991 -1.9181 -0.6548  0.1538
  104OSM   C17F10658   1.251   5.017   8.939 -0.6240  0.2879 -0.5636
  104OSM   H17F10659   1.278   5.035   9.045 -0.1002 -0.6466 -0.5268
  104OSM   H17G10660   1.185   5.101   8.908 -1.4954  0.0307  0.5284
  104OSM   C18F10661   1.375   5.005   8.846  0.0526  0.1103 -0.4788
  104OSM   H18F10662   1.441   4.932   8.898  1.0560  1.5024  0.2708
  104OSM   H18G10663   1.418   5.107   8.836 -0.6477  0.6073  1.2149
  104OSM   H18H10664   1.342   4.962   8.749 -1.3571  2.3032 -1.0603
  105OSM      N10665   0.895   3.644  11.350  0.0341  0.3444  0.1115
  105OSM    C1510666   0.815   3.748  11.279  0.0896  0.6502  0.1278
  105OSM   H15A10667   0.747   3.704  11.208  0.6640  0.0913 -0.0800
  105OSM   H15B10668   0.882   3.803  11.215  1.4785  0.8992  1.7125
  105OSM   H15C10669   0.756   3.815  11.340 -1.2262  0.1332 -0.5433
  105OSM    C1410670   1.010   3.596  11.269 -0.0310 -0.1349  0.3971
  105OSM   H14A10671   1.072   3.681  11.245 -2.2746  1.1019 -1.5826
  105OSM   H14B10672   0.966   3.560  11.177 -0.5825  0.1689  0.5346
  105OSM   H14C10673   1.072   3.518  11.309  0.3680 -0.7160 -1.2710
  105OSM    C1310674   0.960   3.701  11.474  0.6255 -0.1220  0.7925
  105OSM   H13A10675   1.033   3.643  11.529  0.7694  0.4072  1.1728
  105OSM   H13B10676   0.881   3.722  11.545  0.8147 -2.3838  1.7703
  105OSM   H13C10677   1.009   3.791  11.440  0.2196  1.0647  3.1356
  105OSM    C1210678   0.806   3.528  11.392  0.1511 -0.0232 -0.2621
  105OSM   H12A10679   0.714   3.554  11.442  0.2278 -0.1228 -0.0702
  105OSM   H12B10680   0.864   3.473  11.464 -2.6641 -1.4772  1.0483
  105OSM    C1110681   0.778   3.411  11.294  0.1511  0.0455  0.1020
  105OSM   H11A10682   0.730   3.325  11.346 -1.3745 -0.1347 -1.5026
  105OSM   H11B10683   0.876   3.381  11.251  0.9652  0.0230  1.8691
  105OSM      P10684   0.667   3.372  11.057 -0.0516  0.1439 -0.3705
  105OSM    O1310685   0.797   3.319  11.017  0.5515 -0.6285  0.3627
  105OSM    O1410686   0.550   3.275  11.071  0.3456 -0.1106 -0.0546
  105OSM    O1110687   0.616   3.492  10.965 -0.1816 -0.8982  0.3771
  105OSM    O1210688   0.685   3.451  11.193 -0.1819  0.5610  0.0898
  105OSM    C1S10689   0.723   3.593  10.942 -0.6819  0.3351  0.0166
  105OSM    H1S10690   0.818   3.536  10.934 -2.2038 -2.4035  0.4983
  105OSM    H1T10691   0.732   3.671  11.021  2.3494 -0.4889  0.6037
  105OSM     NF10692   0.838   3.734  10.770 -0.2950  0.0717  0.2313
  105OSM    HNF10693   0.854   3.828  10.799  0.7407 -0.1111  0.3157
  105OSM    C2S10694   0.714   3.663  10.800 -0.2357  0.1862  0.0225
  105OSM    H2S10695   0.688   3.590  10.720  0.9070 -0.4369  0.1956
  105OSM    C3S10696   0.592   3.763  10.803 -0.5049 -0.9786 -0.0075
  105OSM    H3S10697   0.620   3.846  10.872 -0.5842  0.0580 -1.1672
  105OSM     O310698   0.477   3.700  10.852 -0.5437 -0.5662  0.1264
  105OSM    HO310699   0.519   3.624  10.893 -0.0845 -0.9136 -0.9491
  105OSM    C4S10700   0.549   3.825  10.669  0.0721 -0.1095 -0.2123
  105OSM    H4S10701   0.519   3.756  10.589  0.4462  0.7234 -1.0921
  105OSM    C5S10702   0.535   3.957  10.660 -1.2006 -0.2400  0.1411
  105OSM    H5S10703   0.560   4.025  10.742  1.5791 -1.9905  0.8737
  105OSM    C6S10704   0.481   4.023  10.534  0.3107  0.0577  0.0573
  105OSM    H6S10705   0.557   4.092  10.490  0.7236 -0.1418  0.4580
  105OSM    H6T10706   0.389   4.081  10.555  0.3948  0.8857 -1.6764
  105OSM    C7S10707   0.448   3.933  10.414  0.3383  0.8481 -0.4623
  105OSM    H7S10708   0.380   3.851  10.446  2.6484 -0.6279  0.9338
  105OSM    H7T10709   0.538   3.875  10.386 -0.8937 -2.2256  1.3847
  105OSM    C8S10710   0.399   4.001  10.293 -0.2075 -0.0924 -0.2420
  105OSM    H8S10711   0.488   4.028  10.232  0.5393 -1.3670  0.2553
  105OSM    H8T10712   0.329   4.086  10.312 -1.1172  0.0888 -3.6804
  105OSM    C9S10713   0.333   3.894  10.194  0.4585 -0.3898 -0.1503
  105OSM    H9S10714   0.265   3.828  10.251  0.2221 -0.7866 -0.8836
  105OSM    H9T10715   0.410   3.818  10.171  1.1273 -0.0250  0.8135
  105OSM   C10S10716   0.284   3.952  10.061 -0.1845  1.2010 -0.1496
  105OSM   H10S10717   0.368   4.013  10.022  0.4984  1.0922  1.0921
  105OSM   H10T10718   0.193   4.016  10.062 -3.1898 -2.4842 -3.7631
  105OSM   C11S10719   0.263   3.842   9.951  0.1293 -0.7494 -0.5612
  105OSM   H11S10720   0.193   3.760   9.978 -0.1380 -0.1934  0.5100
  105OSM   H11T10721   0.363   3.800   9.931  1.1445  0.6537  1.2315
  105OSM   C12S10722   0.211   3.918   9.828 -0.1079  0.8130 -0.4921
  105OSM   H12S10723   0.292   3.984   9.793  0.4018  0.2719 -0.3484
  105OSM   H12T10724   0.117   3.975   9.845 -0.1105  0.0950  2.4317
  105OSM   C13S10725   0.183   3.814   9.717  0.1753  0.2744 -0.0327
  105OSM   H13S10726   0.122   3.731   9.758  0.1112  0.2796 -0.1162
  105OSM   H13T10727   0.275   3.767   9.679  0.5925  0.5721  0.5858
  105OSM   C14S10728   0.117   3.886   9.596  0.6000 -0.1244  0.3184
  105OSM   H14S10729   0.180   3.973   9.570  0.9988 -0.6856 -0.6584
  105OSM   H14T10730   0.024   3.922   9.644  0.4613 -2.8665  2.3428
  105OSM   C15S10731   0.093   3.797   9.474  0.0301 -0.1302  0.3867
  105OSM   H15S10732   0.196   3.779   9.437  0.1407  2.2766 -0.6700
  105OSM   H15T10733   0.047   3.864   9.398  1.8431  1.1380  0.3390
  105OSM   C16S10734  -0.004   3.673   9.498 -0.5439  0.3710  0.2436
  105OSM   H16S10735  -0.100   3.704   9.544 -0.0886 -1.8822  3.0417
  105OSM   H16T10736   0.050   3.620   9.580  0.2580  2.6806  1.2870
  105OSM   C17S10737  -0.016   3.577   9.380 -0.0620  0.3965  0.7234
  105OSM   H17S10738  -0.068   3.638   9.303  0.6843 -1.0760 -1.0044
  105OSM   H17T10739  -0.079   3.493   9.417  0.9723 -0.2435  1.0772
  105OSM   C18S10740   0.102   3.511   9.325 -1.0209  0.2523  0.3733
  105OSM   H18S10741   0.181   3.587   9.306 -0.5734 -0.2107  0.3715
  105OSM   H18T10742   0.083   3.469   9.224  2.7708  0.8769 -0.7637
  105OSM   H18U10743   0.150   3.434   9.390  1.9497  0.0156 -1.9043
  105OSM    C1F10744   0.941   3.660  10.718 -0.3080  0.4506 -0.1322
  105OSM     OF10745   0.938   3.533  10.728 -0.7155  0.3953  0.6584
  105OSM    C2F10746   1.042   3.742  10.647 -0.4428  0.3673 -0.2058
  105OSM    H2F10747   1.061   3.835  10.704 -1.0500  1.7897 -2.2019
  105OSM    H2G10748   0.998   3.773  10.550 -0.3093  4.2554  0.8200
  105OSM    C3F10749   1.172   3.666  10.619 -0.2065 -0.0738 -0.2253
  105OSM    H3F10750   1.151   3.573  10.563 -1.1420 -0.9292  1.4516
  105OSM    H3G10751   1.228   3.648  10.714  0.5537 -1.0999 -0.8546
  105OSM    C4F10752   1.283   3.739  10.530  0.4703 -0.2914 -0.3745
  105OSM    H4F10753   1.368   3.668  10.526 -0.5767 -1.7601  1.5532
  105OSM    H4G10754   1.320   3.827  10.587  0.0893 -0.8930  0.8482
  105OSM    C5F10755   1.235   3.762  10.383 -0.4473 -0.0309  0.1159
  105OSM    H5F10756   1.133   3.806  10.385  0.4588  2.1977  1.2113
  105OSM    H5G10757   1.241   3.662  10.336 -1.8803 -1.2286  2.3417
  105OSM    C6F10758   1.333   3.842  10.293  0.1658 -0.2212 -0.7760
  105OSM    H6F10759   1.426   3.785  10.270  1.8829  1.9368  0.4476
  105OSM    H6G10760   1.361   3.927  10.358 -1.4115 -0.2117 -0.0712
  105OSM    C7F10761   1.260   3.892  10.170 -0.4123  0.4375 -0.1128
  105OSM    H7F10762   1.184   3.969  10.197  0.5252  1.8674 -1.3947
  105OSM    H7G10763   1.198   3.809  10.127 -0.0111  0.0673  0.0164
  105OSM    C8F10764   1.347   3.970  10.073 -0.5013 -0.1758 -0.2209
  105OSM    H8F10765   1.426   4.017  10.135 -0.9423 -0.8770  0.9115
  105OSM    H8G10766   1.301   4.062  10.031  3.8798  0.4880 -4.5216
  105OSM    C9F10767   1.406   3.873   9.966  0.1377 -0.1909  0.0016
  105OSM    H9F10768   1.462   3.784   9.999 -0.2748 -1.4563 -2.5027
  105OSM   C10F10769   1.384   3.888   9.832  0.0895  0.3446 -0.8577
  105OSM   H10F10770   1.434   3.816   9.766  0.6290  0.4550 -0.5735
  105OSM   C11F10771   1.319   4.007   9.764  0.3097  0.0342  0.1112
  105OSM   H11F10772   1.396   4.063   9.707  1.5032 -0.9945  0.6605
  105OSM   H11G10773   1.271   4.082   9.831 -1.4186 -1.0049  0.1194
  105OSM   C12F10774   1.209   3.955   9.664 -0.0734 -0.6676  0.1038
  105OSM   H12F10775   1.143   4.041   9.637  3.8605  1.7530 -2.8778
  105OSM   H12G10776   1.149   3.869   9.700 -1.0912  0.5249  1.3841
  105OSM   C13F10777   1.264   3.899   9.532  0.8228 -0.2154  0.1453
  105OSM   H13F10778   1.277   3.789   9.531  0.8345 -0.2154  0.3209
  105OSM   H13G10779   1.360   3.950   9.507  0.6311  1.2186  2.0892
  105OSM   C14F10780   1.160   3.930   9.421  0.1677  0.1105 -1.1158
  105OSM   H14F10781   1.059   3.889   9.442 -0.0188  0.4643 -1.3219
  105OSM   H14G10782   1.203   3.876   9.334  1.4451  0.8984 -1.0074
  105OSM   C15F10783   1.153   4.075   9.384  0.2784 -0.2528  0.2567
  105OSM   H15F10784   1.254   4.122   9.387  0.4901 -0.6157 -0.8355
  105OSM   H15G10785   1.084   4.138   9.444 -0.1851 -0.6522  0.1413
  105OSM   C16F10786   1.115   4.086   9.231 -0.7422  0.0420 -0.7614
  105OSM   H16F10787   1.045   4.004   9.203  0.3187 -0.4340 -2.1303
  105OSM   H16G10788   1.212   4.090   9.177 -0.3684  1.0463 -0.0335
  105OSM   C17F10789   1.038   4.219   9.204  0.3425  0.3247  0.2515
  105OSM   H17F10790   1.095   4.304   9.249  1.1504  0.1515 -0.4329
  105OSM   H17G10791   0.945   4.209   9.263 -0.6657  0.1812 -1.3100
  105OSM   C18F10792   1.018   4.250   9.056 -0.4705 -0.1040  0.1949
  105OSM   H18F10793   0.956   4.169   9.012 -1.7431  1.3181 -0.7338
  105OSM   H18G10794   1.112   4.259   8.998  0.0593 -0.8720  0.9132
  105OSM   H18H10795   0.961   4.344   9.042  2.1093  1.3200 -1.3827
  106OSM      N10796   1.191   2.048  10.863  0.2085 -0.5584 -0.2591
  106OSM    C1510797   1.281   2.089  10.974 -0.0909  0.1381  0.5969
  106OSM   H15A10798   1.351   2.156  10.927 -1.5473  0.9246 -0.5439
  106OSM   H15B10799   1.333   2.005  11.019  0.3801  0.3045  0.3603
  106OSM   H15C10800   1.232   2.136  11.058  2.3054  0.0759  2.1182
  106OSM    C1410801   1.074   1.975  10.929 -0.1846  0.5245  0.3784
  106OSM   H14A10802   1.107   1.896  10.994  0.6071  0.8315  0.3601
  106OSM   H14B10803   1.005   1.935  10.857 -1.2474  0.1391  1.5787
  106OSM   H14C10804   1.016   2.054  10.974 -2.4862 -0.2070 -1.1538
  106OSM    C1310805   1.127   2.178  10.814  1.5185  0.0703  0.0642
  106OSM   H13A10806   1.091   2.238  10.895 -0.0742 -2.0291  1.0054
  106OSM   H13B10807   1.047   2.159  10.743 -1.3181  1.0689  2.7994
  106OSM   H13C10808   1.194   2.236  10.752  2.7505 -0.1334  1.1600
  106OSM    C1210809   1.262   1.963  10.759 -0.3665 -0.8490 -0.6529
  106OSM   H12A10810   1.317   2.027  10.691 -3.8247  1.4566 -1.5224
  106OSM   H12B10811   1.190   1.903  10.705 -1.8703 -1.4546  1.8485
  106OSM    C1110812   1.370   1.870  10.819  0.2708  0.2414  0.0574
  106OSM   H11A10813   1.447   1.927  10.875  0.3743  0.5732 -0.4140
  106OSM   H11B10814   1.430   1.837  10.731  0.6434 -1.0960  0.7981
  106OSM      P10815   1.253   1.642  10.826  0.0150  0.2112 -0.2783
  106OSM    O1310816   1.200   1.552  10.932 -0.2513  0.5505  0.1062
  106OSM    O1410817   1.163   1.685  10.714 -0.8043  0.1094 -0.0968
  106OSM    O1110818   1.379   1.558  10.777 -0.1190  0.9806  0.0689
  106OSM    O1210819   1.319   1.763  10.896 -0.1407  0.2184 -0.0499
  106OSM    C1S10820   1.359   1.444  10.690 -0.5762  0.7461  0.4083
  106OSM    H1S10821   1.309   1.466  10.594  2.6743 -1.4005 -1.9728
  106OSM    H1T10822   1.296   1.370  10.745 -2.1639  1.6123 -0.1814
  106OSM     NF10823   1.462   1.286  10.515  0.9803  0.2282 -0.2240
  106OSM    HNF10824   1.452   1.187  10.522 -0.0906  0.4183  1.5790
  106OSM    C2S10825   1.494   1.372  10.640 -0.4713  0.0970 -0.7098
  106OSM    H2S10826   1.571   1.444  10.608  0.6585 -0.3538  0.8848
  106OSM    C3S10827   1.562   1.299  10.755 -0.9267  0.0704  0.3159
  106OSM    H3S10828   1.500   1.217  10.797 -0.5796 -1.1563 -1.4581
  106OSM     O310829   1.599   1.380  10.860 -0.7312  0.1350  0.1714
  106OSM    HO310830   1.560   1.466  10.844  2.4195  1.7818  0.4894
  106OSM    C4S10831   1.679   1.227  10.694  0.1489  0.0524 -0.0413
  106OSM    H4S10832   1.661   1.122  10.664  1.5195 -0.2178  0.0220
  106OSM    C5S10833   1.807   1.265  10.676 -0.1830 -0.6787 -0.3895
  106OSM    H5S10834   1.830   1.368  10.707 -1.9453 -0.5217  0.5328
  106OSM    C6S10835   1.914   1.168  10.634  0.5901 -0.3229  0.4467
  106OSM    H6S10836   1.918   1.083  10.705 -0.6537 -0.6531  0.1382
  106OSM    H6T10837   2.012   1.220  10.646  0.9961 -0.7374 -0.9233
  106OSM    C7S10838   1.907   1.115  10.489 -0.2440 -0.0619  0.7246
  106OSM    H7S10839   1.805   1.070  10.489  0.7517 -2.5202  1.5027
  106OSM    H7T10840   1.972   1.029  10.463  0.8062  1.2627 -1.3101
  106OSM    C8S10841   1.911   1.217  10.377 -0.8853  0.0691  0.4029
  106OSM    H8S10842   2.013   1.256  10.353 -1.3904  0.7852 -0.6266
  106OSM    H8T10843   1.860   1.309  10.413  1.4519  1.3502  0.6742
  106OSM    C9S10844   1.853   1.161  10.246  0.2789  0.0039 -0.5915
  106OSM    H9S10845   1.743   1.154  10.256  0.4272 -0.4394  0.9199
  106OSM    H9T10846   1.890   1.057  10.255  0.2511  0.1404  1.4660
  106OSM   C10S10847   1.902   1.233  10.113  0.2635 -0.2649 -0.2977
  106OSM   H10S10848   2.006   1.196  10.103 -0.0594 -0.6782 -2.7090
  106OSM   H10T10849   1.913   1.343  10.126  0.9339  0.0783 -3.2356
  106OSM   C11S10850   1.810   1.207  10.003 -0.1465 -0.8209  0.4692
  106OSM   H11S10851   1.714   1.257  10.028  1.4193  3.0214 -0.5659
  106OSM   H11T10852   1.795   1.097  10.007  1.2468 -1.0286  0.3597
  106OSM   C12S10853   1.869   1.254   9.869 -0.4215  0.1844  0.0403
  106OSM   H12S10854   1.979   1.256   9.885 -0.2402  0.8223 -1.2145
  106OSM   H12T10855   1.822   1.351   9.846  0.1401  0.5413  0.3614
  106OSM   C13S10856   1.837   1.162   9.753 -0.1050 -0.2739  1.0015
  106OSM   H13S10857   1.730   1.160   9.723  0.2163 -0.5676 -0.1564
  106OSM   H13T10858   1.862   1.057   9.779 -1.1471 -0.5225  1.0442
  106OSM   C14S10859   1.913   1.208   9.625 -0.2402  0.6495  0.0493
  106OSM   H14S10860   2.016   1.244   9.647  0.0580  0.5267 -1.0937
  106OSM   H14T10861   1.864   1.300   9.586 -0.7461  0.4681  0.2464
  106OSM   C15S10862   1.907   1.106   9.513 -0.1135  0.6705 -0.2003
  106OSM   H15S10863   1.806   1.067   9.486  0.3473 -0.2696 -0.6229
  106OSM   H15T10864   1.967   1.019   9.547  2.7792  2.4289 -0.5143
  106OSM   C16S10865   1.963   1.159   9.385  0.2683 -0.0392  0.8064
  106OSM   H16S10866   2.054   1.220   9.405  0.3856  1.0415 -2.3025
  106OSM   H16T10867   1.891   1.231   9.341  0.5389 -1.0183 -1.3712
  106OSM   C17S10868   1.999   1.047   9.288 -0.1906 -0.1281 -0.0190
  106OSM   H17S10869   1.903   0.994   9.270 -0.5234  0.1819  0.8339
  106OSM   H17T10870   2.075   0.979   9.333  1.4113  3.1561  2.7008
  106OSM   C18S10871   2.060   1.098   9.150  0.1071 -0.8697 -0.9392
  106OSM   H18S10872   1.981   1.167   9.112 -0.0743  1.0968  2.5943
  106OSM   H18T10873   2.091   1.012   9.087  2.8164 -1.4534  1.0072
  106OSM   H18U10874   2.148   1.166   9.161 -2.0691  2.1651 -0.8252
  106OSM    C1F10875   1.436   1.340  10.395  0.3467 -0.3453  0.0785
  106OSM     OF10876   1.440   1.462  10.375 -0.0047 -0.4632 -0.1694
  106OSM    C2F10877   1.412   1.246  10.283 -0.5144 -0.1023 -0.3534
  106OSM    H2F10878   1.315   1.193  10.292 -0.9756  0.5296 -1.3740
  106OSM    H2G10879   1.490   1.167  10.286 -0.1409  0.1640 -2.1272
  106OSM    C3F10880   1.405   1.321  10.150  0.7336  0.5792 -0.8493
  106OSM    H3F10881   1.506   1.368  10.143  0.9891  0.1770  0.0163
  106OSM    H3G10882   1.325   1.397  10.160 -0.1555 -0.3149 -1.0608
  106OSM    C4F10883   1.395   1.227  10.029 -0.5355 -0.0746  0.3168
  106OSM    H4F10884   1.491   1.174  10.010 -0.5090  0.0577  0.0826
  106OSM    H4G10885   1.378   1.290   9.939 -1.9198 -0.2574  0.4229
  106OSM    C5F10886   1.280   1.127  10.026 -0.6690 -1.1416  0.3747
  106OSM    H5F10887   1.183   1.179  10.018  0.2744  0.7295  0.5327
  106OSM    H5G10888   1.269   1.078  10.126 -1.1922  0.3704  1.0820
  106OSM    C6F10889   1.279   1.020   9.912  0.4734 -0.7597 -0.8977
  106OSM    H6F10890   1.202   0.941   9.923 -0.6552  0.5108  1.0091
  106OSM    H6G10891   1.372   0.960   9.926  1.1216  0.5513  0.8432
  106OSM    C7F10892   1.263   1.089   9.775 -0.2121 -0.2040 -0.2783
  106OSM    H7F10893   1.350   1.158   9.769 -1.6613  1.5550 -3.3038
  106OSM    H7G10894   1.169   1.147   9.764  0.1180  0.1699 -1.2590
  106OSM    C8F10895   1.267   0.996   9.648 -0.4735  0.4302 -0.3226
  106OSM    H8F10896   1.189   0.918   9.665 -1.9039  1.7868 -0.4037
  106OSM    H8G10897   1.370   0.955   9.643 -1.3239 -1.7850 -0.6490
  106OSM    C9F10898   1.231   1.078   9.523  0.2818 -0.0109  0.2914
  106OSM    H9F10899   1.123   1.073   9.499 -0.0772 -0.6952  1.9425
  106OSM   C10F10900   1.309   1.154   9.440 -0.3315  0.4971 -0.6488
  106OSM   H10F10901   1.264   1.204   9.353  1.6988  0.8467 -1.5668
  106OSM   C11F10902   1.458   1.180   9.455 -0.3051 -0.5538  0.2067
  106OSM   H11F10903   1.495   1.138   9.551  0.5416 -2.2174 -0.8084
  106OSM   H11G10904   1.484   1.287   9.467 -1.5328 -0.4151  2.0910
  106OSM   C12F10905   1.539   1.123   9.335  0.8537  0.1716 -0.7873
  106OSM   H12F10906   1.509   1.015   9.330 -1.6714  0.6000  1.9019
  106OSM   H12G10907   1.644   1.127   9.370  0.2223 -0.2154  1.3487
  106OSM   C13F10908   1.529   1.195   9.201 -0.1790  0.2797 -0.0229
  106OSM   H13F10909   1.508   1.303   9.215 -2.5416 -0.0168 -0.7452
  106OSM   H13G10910   1.444   1.149   9.144  0.4078 -1.3867  0.3915
  106OSM   C14F10911   1.658   1.167   9.116  0.3096 -0.0880 -0.1853
  106OSM   H14F10912   1.664   1.058   9.094  1.0427 -0.5490  2.0490
  106OSM   H14G10913   1.736   1.196   9.189  1.1899 -1.5988 -0.4978
  106OSM   C15F10914   1.661   1.241   8.978 -0.7077 -0.0233  0.3220
  106OSM   H15F10915   1.684   1.346   9.005 -0.8870  0.3933 -1.0664
  106OSM   H15G10916   1.565   1.229   8.922 -0.6398 -1.2012  0.4368
  106OSM   C16F10917   1.792   1.209   8.900 -0.0730 -0.0961 -0.0724
  106OSM   H16F10918   1.873   1.227   8.974  0.9811 -0.5302 -1.0950
  106OSM   H16G10919   1.809   1.268   8.807  0.5157 -1.7736 -1.0688
  106OSM   C17F10920   1.807   1.064   8.853 -0.6964 -0.0857 -0.2292
  106OSM   H17F10921   1.751   0.988   8.911 -1.0182  1.0649  1.0082
  106OSM   H17G10922   1.913   1.041   8.878 -0.4720  0.4722 -0.6509
  106OSM   C18F10923   1.795   1.047   8.703  0.2739  0.1593 -0.3435
  106OSM   H18F10924   1.844   1.125   8.641  1.2979 -0.8670 -0.8791
  106OSM   H18G10925   1.689   1.058   8.669  0.4026  0.0551 -0.7904
  106OSM   H18H10926   1.828   0.943   8.685 -0.0150  0.3971 -2.4944
  107OSM      N10927   2.223   5.777  11.229 -0.3441  0.1790  0.1668
  107OSM    C1510928   2.225   5.641  11.277  0.2493  0.4629  0.4466
  107OSM   H15A10929   2.129   5.590  11.277 -0.6935  2.1036 -1.3252
  107OSM   H15B10930   2.272   5.630  11.374 -0.1116  0.2799  0.6041
  107OSM   H15C10931   2.284   5.577  11.214  1.1850  1.2932  0.4687
  107OSM    C1410932   2.352   5.832  11.275 -0.7347 -0.3189  0.1427
  107OSM   H14A10933   2.357   5.927  11.225  0.3123  0.4631  1.6577
  107OSM   H14B10934   2.437   5.771  11.250 -1.0267 -1.9256  2.6741
  107OSM   H14C10935   2.359   5.840  11.383  2.5370 -0.2510  0.0313
  107OSM    C1310936   2.219   5.773  11.080 -0.2497  0.5946 -0.8529
  107OSM   H13A10937   2.230   5.870  11.035  0.7512 -0.2854 -2.6120
  107OSM   H13B10938   2.120   5.735  11.055  0.6132 -1.7865 -0.9385
  107OSM   H13C10939   2.297   5.708  11.044 -0.4071 -0.0791 -0.0039
  107OSM    C1210940   2.102   5.858  11.277  0.5099 -0.2381 -0.3753
  107OSM   H12A10941   2.099   5.960  11.242 -1.3226 -0.1456 -0.0365
  107OSM   H12B10942   2.117   5.880  11.381 -3.4533  0.9824  0.1055
  107OSM    C1110943   1.959   5.797  11.273 -0.5084  0.3940  0.4869
  107OSM   H11A10944   1.887   5.859  11.330  0.3540  0.8613  1.0875
  107OSM   H11B10945   1.957   5.701  11.330  1.2113 -0.8051 -1.3089
  107OSM      P10946   1.773   5.713  11.112  0.0245  0.0284 -0.0088
  107OSM    O1310947   1.778   5.580  11.168  0.0751  0.5098 -0.5054
  107OSM    O1410948   1.663   5.801  11.159 -0.7104 -0.1840  0.3153
  107OSM    O1110949   1.766   5.715  10.950  0.2209 -0.3784 -0.9198
  107OSM    O1210950   1.916   5.771  11.141  0.3291 -0.4078 -0.3865
  107OSM    C1S10951   1.830   5.607  10.873 -0.0340  0.2076 -1.0389
  107OSM    H1S10952   1.756   5.525  10.861 -0.6653  0.9285 -2.2675
  107OSM    H1T10953   1.917   5.563  10.928 -0.2111  2.0271  0.8292
  107OSM     NF10954   1.940   5.538  10.661  0.1106  0.9306  0.2870
  107OSM    HNF10955   2.036   5.540  10.635 -0.1547 -0.2936 -0.9342
  107OSM    C2S10956   1.882   5.648  10.734 -0.6620  0.5294  0.1594
  107OSM    H2S10957   1.792   5.678  10.677 -1.7513 -2.3866  0.1784
  107OSM    C3S10958   1.973   5.779  10.739 -0.0368 -1.0893  0.4384
  107OSM    H3S10959   2.055   5.733  10.798  1.0554 -1.4043 -1.2672
  107OSM     O310960   1.924   5.892  10.807  0.3783 -0.2965  0.0135
  107OSM    HO310961   1.846   5.871  10.859  0.3589  2.9217  1.5564
  107OSM    C4S10962   2.011   5.814  10.596 -0.8281 -0.1732  0.2302
  107OSM    H4S10963   2.110   5.778  10.562 -1.4104 -2.0231  0.3871
  107OSM    C5S10964   1.940   5.898  10.513 -0.2306  0.5114 -0.4379
  107OSM    H5S10965   1.847   5.939  10.555 -1.3488 -1.4093 -0.9245
  107OSM    C6S10966   1.992   5.948  10.379  0.9515 -0.2575 -0.0866
  107OSM    H6S10967   2.071   6.022  10.408 -1.0779  0.8680  3.0824
  107OSM    H6T10968   1.906   6.006  10.339  0.3427 -2.2975 -1.9059
  107OSM    C7S10969   2.031   5.857  10.260 -0.0040  0.0824 -0.3330
  107OSM    H7S10970   1.945   5.787  10.249  1.2821 -1.4510 -0.9497
  107OSM    H7T10971   2.123   5.809  10.298  0.4618  0.8093 -0.5281
  107OSM    C8S10972   2.056   5.943  10.135 -0.6324 -0.5864  0.2888
  107OSM    H8S10973   2.155   5.988  10.159 -1.2099  0.5627  0.5281
  107OSM    H8T10974   1.985   6.028  10.135 -0.8454 -0.7642 -0.0164
  107OSM    C9S10975   2.078   5.852  10.015 -0.4833 -0.4530 -0.2688
  107OSM    H9S10976   2.154   5.775  10.041  0.6988  0.1426 -1.8155
  107OSM    H9T10977   2.119   5.912   9.931  1.0851 -0.8563  0.1754
  107OSM   C10S10978   1.949   5.787   9.969 -0.1493 -0.3413  0.1165
  107OSM   H10S10979   1.869   5.863   9.956 -0.3654 -0.5917 -0.0196
  107OSM   H10T10980   1.910   5.712  10.041 -1.7956 -0.3316 -0.7399
  107OSM   C11S10981   1.980   5.714   9.841 -0.3224 -0.6900 -0.0338
  107OSM   H11S10982   2.011   5.608   9.860  1.4602 -0.5439 -1.8639
  107OSM   H11T10983   2.061   5.751   9.776 -0.6257 -3.1560 -1.9505
  107OSM   C12S10984   1.856   5.685   9.754  0.4469  1.3893  0.4735
  107OSM   H12S10985   1.812   5.782   9.722  3.9010  2.7780 -0.5828
  107OSM   H12T10986   1.784   5.625   9.813  0.4730  1.2793  0.3945
  107OSM   C13S10987   1.889   5.609   9.624 -0.8334  0.1986 -0.2609
  107OSM   H13S10988   1.942   5.513   9.638 -0.9047  0.2615  0.5150
  107OSM   H13T10989   1.953   5.687   9.577 -1.6038  0.5673 -0.7179
  107OSM   C14S10990   1.765   5.585   9.528  0.6938 -0.0722 -0.3755
  107OSM   H14S10991   1.718   5.685   9.514 -0.3285 -0.4577  0.1901
  107OSM   H14T10992   1.702   5.508   9.578  2.2000 -1.2436 -0.2111
  107OSM   C15S10993   1.803   5.542   9.380  0.3319 -0.1622 -0.0212
  107OSM   H15S10994   1.902   5.491   9.383  2.0544  2.6399 -2.6464
  107OSM   H15T10995   1.809   5.634   9.318 -0.0246  0.2881  0.5997
  107OSM   C16S10996   1.691   5.452   9.328 -0.2967 -0.0017 -0.1333
  107OSM   H16S10997   1.593   5.504   9.316 -1.2530 -1.3528  1.4052
  107OSM   H16T10998   1.679   5.361   9.389  0.2005  0.3314  0.4713
  107OSM   C17S10999   1.713   5.406   9.184 -0.0966 -0.8059 -0.8809
  107OSM   H17S11000   1.711   5.495   9.117  0.7582 -0.7794 -0.8813
  107OSM   H17T11001   1.650   5.326   9.140 -0.9876  0.5023 -2.1032
  107OSM   C18S11002   1.858   5.348   9.149  0.2378 -0.2336  0.0364
  107OSM   H18S11003   1.859   5.243   9.185  1.4506 -0.7939 -1.5004
  107OSM   H18T11004   1.937   5.418   9.185  0.0201  0.3035 -0.5172
  107OSM   H18U11005   1.870   5.342   9.038  0.2450  0.7905 -0.0292
  107OSM    C1F11006   1.882   5.420  10.639 -1.0109 -0.3576 -0.1291
  107OSM     OF11007   1.758   5.413  10.655  0.1149 -0.5821  0.1968
  107OSM    C2F11008   1.961   5.303  10.597  0.7405  0.5660 -0.5863
  107OSM    H2F11009   1.962   5.238  10.688 -0.1457 -0.8630 -1.5538
  107OSM    H2G11010   2.066   5.317  10.564  0.8771  1.5808  0.2332
  107OSM    C3F11011   1.896   5.219  10.482 -0.1428 -0.3166 -0.0370
  107OSM    H3F11012   1.793   5.192  10.513 -0.6475  1.0286 -0.4564
  107OSM    H3G11013   1.960   5.130  10.468 -1.2193 -1.2449  0.7986
  107OSM    C4F11014   1.909   5.290  10.347  0.3516  0.0507 -0.7986
  107OSM    H4F11015   2.013   5.325  10.330  0.0884  1.4998  0.4146
  107OSM    H4G11016   1.841   5.376  10.329  3.0711  2.2216 -1.5570
  107OSM    C5F11017   1.884   5.194  10.228 -0.9370 -0.3104  0.0551
  107OSM    H5F11018   1.785   5.143  10.221 -1.6361  0.8558  1.1932
  107OSM    H5G11019   1.963   5.117  10.215  0.5367  1.3053 -0.9320
  107OSM    C6F11020   1.891   5.277  10.098  0.1998 -0.5216 -0.5320
  107OSM    H6F11021   1.998   5.280  10.068  0.0294  0.7347 -1.0764
  107OSM    H6G11022   1.862   5.381  10.125  1.7670 -0.4586  1.1346
  107OSM    C7F11023   1.803   5.234   9.976 -0.0109 -0.9295 -0.0839
  107OSM    H7F11024   1.694   5.245   9.992 -0.2845  1.8058 -2.8813
  107OSM    H7G11025   1.820   5.125   9.965 -0.6415 -0.9478 -0.9681
  107OSM    C8F11026   1.843   5.309   9.855 -0.1245  0.0075  0.6198
  107OSM    H8F11027   1.950   5.299   9.830 -0.4271  1.2154 -1.3741
  107OSM    H8G11028   1.813   5.415   9.874  0.9503  0.1621  1.5126
  107OSM    C9F11029   1.754   5.254   9.745 -0.1406  0.4888 -0.1291
  107OSM    H9F11030   1.647   5.249   9.771 -0.0419  1.5087  0.5533
  107OSM   C10F11031   1.796   5.215   9.623  0.7176  0.2261 -0.4526
  107OSM   H10F11032   1.720   5.173   9.555  2.4265  0.8340 -2.8795
  107OSM   C11F11033   1.936   5.213   9.568 -0.2208 -0.5215 -0.8807
  107OSM   H11F11034   2.004   5.286   9.617 -1.1782 -0.2645  0.1044
  107OSM   H11G11035   1.937   5.251   9.464  2.1034  4.1626  0.5816
  107OSM   C12F11036   1.998   5.078   9.575  0.6610 -0.3205  0.6432
  107OSM   H12F11037   2.098   5.073   9.526  0.1652 -0.1500 -0.4116
  107OSM   H12G11038   1.942   4.995   9.526  2.3607 -2.0598  1.5189
  107OSM   C13F11039   2.023   5.030   9.721 -0.1316 -0.1350  0.1552
  107OSM   H13F11040   1.922   5.010   9.763 -1.2566  0.7600 -1.9834
  107OSM   H13G11041   2.066   5.117   9.774 -2.7786  1.1339  0.3601
  107OSM   C14F11042   2.119   4.905   9.723  0.2763  0.2380 -0.3225
  107OSM   H14F11043   2.221   4.935   9.693  0.1284 -0.0463 -1.1250
  107OSM   H14G11044   2.080   4.836   9.645 -1.7894  0.9776 -0.0285
  107OSM   C15F11045   2.110   4.833   9.858  0.4862 -0.0234 -0.5023
  107OSM   H15F11046   2.155   4.732   9.851  1.8191  0.4657  0.5791
  107OSM   H15G11047   2.001   4.822   9.876  0.7716 -0.4452  1.2232
  107OSM   C16F11048   2.183   4.914   9.966  0.0003  0.3229  0.1773
  107OSM   H16F11049   2.115   4.994  10.003 -2.9284 -1.2638 -1.4730
  107OSM   H16G11050   2.261   4.984   9.929 -0.5889  2.1091  2.0722
  107OSM   C17F11051   2.246   4.841  10.083  0.0812  0.2898  0.4017
  107OSM   H17F11052   2.337   4.793  10.042 -0.8613  0.6502 -2.3517
  107OSM   H17G11053   2.183   4.758  10.122 -0.3624  1.2048  1.7394
  107OSM   C18F11054   2.286   4.942  10.193  0.3352 -0.5307 -0.6430
  107OSM   H18F11055   2.366   5.010  10.157 -0.2306  1.9988  2.3970
  107OSM   H18G11056   2.331   4.875  10.270  2.4581 -0.5797 -1.8547
  107OSM   H18H11057   2.195   4.994  10.231  0.8066 -0.4529  0.4337
  108OSM      N11058   5.388   3.137  11.012  0.1242 -0.3447  0.0884
  108OSM    C1511059   5.351   2.996  11.006 -0.2649 -0.0848 -0.1357
  108OSM   H15A11060   5.416   2.944  10.938  1.8212  1.1742  0.7953
  108OSM   H15B11061   5.250   2.986  10.969 -0.7907 -0.0530  1.2336
  108OSM   H15C11062   5.364   2.948  11.102  1.8832 -1.0878 -0.8796
  108OSM    C1411063   5.536   3.138  11.031  0.5493 -0.1566  0.1986
  108OSM   H14A11064   5.566   3.242  11.034  1.7329 -0.4771 -0.1969
  108OSM   H14B11065   5.586   3.100  10.943 -1.8826  0.2687 -1.4846
  108OSM   H14C11066   5.570   3.094  11.123  1.4653  0.7940  0.3358
  108OSM    C1311067   5.367   3.198  10.873  0.0261  0.5451  0.1673
  108OSM   H13A11068   5.274   3.168  10.828 -0.1287  1.6928 -0.3038
  108OSM   H13B11069   5.441   3.157  10.805 -0.9777  0.1582 -0.7123
  108OSM   H13C11070   5.364   3.305  10.868 -1.0021  0.5122 -0.0050
  108OSM    C1211071   5.319   3.214  11.121 -0.0321  0.3787 -0.6110
  108OSM   H12A11072   5.365   3.311  11.131  0.1480  0.6032 -2.9674
  108OSM   H12B11073   5.350   3.168  11.214  1.9767  0.2220 -1.2931
  108OSM    C1111074   5.170   3.236  11.115 -0.3662  0.4860 -0.2924
  108OSM   H11A11075   5.149   3.304  11.030  0.8620  0.9084 -0.2815
  108OSM   H11B11076   5.138   3.291  11.206  0.6409 -0.7718  0.8787
  108OSM      P11077   4.975   3.090  11.013 -0.0087 -0.3010  0.3228
  108OSM    O1311078   4.867   3.036  11.101 -0.2666 -0.0935 -0.6392
  108OSM    O1411079   4.949   3.220  10.944 -0.3571 -0.2645 -0.0232
  108OSM    O1111080   5.025   2.988  10.901 -0.0317 -0.2105  0.7210
  108OSM    O1211081   5.100   3.114  11.110 -0.9291  0.0582  0.4516
  108OSM    C1S11082   5.052   2.851  10.928 -0.7554  0.9214  0.2638
  108OSM    H1S11083   4.977   2.809  10.998  0.7125  0.9440  1.9123
  108OSM    H1T11084   5.147   2.836  10.984  0.3567  0.4254 -1.6599
  108OSM     NF11085   5.093   2.629  10.810 -0.5718  0.0698 -0.0366
  108OSM    HNF11086   5.184   2.597  10.787 -0.7954 -1.2524  0.7717
  108OSM    C2S11087   5.054   2.769  10.794  0.4943  0.3488 -0.1555
  108OSM    H2S11088   4.949   2.777  10.759  0.3523  0.3859  0.2751
  108OSM    C3S11089   5.141   2.836  10.681  0.0806 -0.0873  0.2400
  108OSM    H3S11090   5.248   2.845  10.708  0.6401 -1.6040 -1.2555
  108OSM     O311091   5.108   2.967  10.643  0.5652  0.1083  0.2858
  108OSM    HO311092   5.039   2.992  10.704  0.1035 -1.5996  0.5115
  108OSM    C4S11093   5.142   2.744  10.562 -0.2427  0.5814 -0.3796
  108OSM    H4S11094   5.237   2.689  10.570 -1.2597 -1.3529 -0.9543
  108OSM    C5S11095   5.052   2.713  10.464  1.3370  0.5013 -0.0855
  108OSM    H5S11096   4.949   2.751  10.463  0.9015 -0.6231 -1.0019
  108OSM    C6S11097   5.073   2.615  10.351 -0.9744  0.9059  0.2300
  108OSM    H6S11098   4.980   2.555  10.342  0.0620 -0.5464 -1.5619
  108OSM    H6T11099   5.156   2.547  10.378 -2.1925 -0.4292  0.7679
  108OSM    C7S11100   5.104   2.704  10.227  0.0735 -0.1440 -0.6345
  108OSM    H7S11101   5.189   2.772  10.248 -0.9070  0.8616  0.1698
  108OSM    H7T11102   5.016   2.772  10.217  0.3426  0.0721 -1.6547
  108OSM    C8S11103   5.134   2.629  10.096  0.3840 -0.0210 -0.5799
  108OSM    H8S11104   5.089   2.528  10.092 -0.2343  0.1665  1.0633
  108OSM    H8T11105   5.242   2.613  10.078  0.6844  1.4514 -0.2062
  108OSM    C9S11106   5.098   2.718   9.979  0.5643 -0.0311 -0.6108
  108OSM    H9S11107   5.157   2.812   9.990  2.3409 -1.1764  0.0794
  108OSM    H9T11108   4.989   2.739   9.982  0.3624 -0.7838 -1.9505
  108OSM   C10S11109   5.126   2.647   9.848 -0.6898  0.2664  0.4314
  108OSM   H10S11110   5.080   2.546   9.845 -1.2238  0.5266 -1.2217
  108OSM   H10T11111   5.236   2.638   9.852 -0.8747 -1.9798  2.1740
  108OSM   C11S11112   5.081   2.732   9.727  0.2057 -0.1797 -0.2520
  108OSM   H11S11113   5.112   2.837   9.747 -1.1301  0.2243 -0.2187
  108OSM   H11T11114   4.970   2.731   9.726  0.1684 -3.1235 -0.1375
  108OSM   C12S11115   5.147   2.683   9.596 -0.6599 -0.3961 -0.8441
  108OSM   H12S11116   5.115   2.581   9.568 -0.4154 -0.2799 -1.5597
  108OSM   H12T11117   5.256   2.674   9.615 -0.8995 -0.8521  0.4263
  108OSM   C13S11118   5.126   2.794   9.493 -0.3739  0.5035  0.2364
  108OSM   H13S11119   5.176   2.886   9.528  0.4696  0.4322 -0.7490
  108OSM   H13T11120   5.018   2.813   9.479 -0.1667  1.9274  0.4272
  108OSM   C14S11121   5.188   2.766   9.353  0.1194 -0.2519 -0.6151
  108OSM   H14S11122   5.297   2.772   9.371  0.1002  0.3776 -0.6917
  108OSM   H14T11123   5.158   2.858   9.299 -4.2759  0.4074  2.3582
  108OSM   C15S11124   5.151   2.644   9.278  0.6004 -0.5534  1.2086
  108OSM   H15S11125   5.041   2.633   9.282  0.4227 -0.2506 -1.1068
  108OSM   H15T11126   5.191   2.554   9.329  1.3554 -0.1934  1.2792
  108OSM   C16S11127   5.179   2.652   9.122 -0.5027 -0.1859  0.2513
  108OSM   H16S11128   5.277   2.703   9.111  0.3615 -1.4691  1.5896
  108OSM   H16T11129   5.105   2.727   9.085 -2.7726 -1.7217  1.3967
  108OSM   C17S11130   5.156   2.524   9.037  0.1644 -0.1975 -0.2860
  108OSM   H17S11131   5.052   2.490   9.058  0.6592 -0.7984  1.3515
  108OSM   H17T11132   5.225   2.449   9.081  1.4334  0.0203 -1.8231
  108OSM   C18S11133   5.172   2.542   8.883  0.2103  0.3091 -0.2510
  108OSM   H18S11134   5.123   2.457   8.831  0.5577  0.2129 -0.4228
  108OSM   H18T11135   5.280   2.549   8.859  0.6753  1.8751  1.9784
  108OSM   H18U11136   5.130   2.642   8.860  0.1613  0.4976  0.6178
  108OSM    C1F11137   5.026   2.536  10.871  0.0587 -0.2617  0.2678
  108OSM     OF11138   4.922   2.561  10.933 -0.2679 -0.1207 -0.2450
  108OSM    C2F11139   5.076   2.397  10.861  0.2746  0.0058  0.1109
  108OSM    H2F11140   5.103   2.357  10.961 -2.0608 -0.4389  0.6126
  108OSM    H2G11141   5.166   2.394  10.796  0.8837  1.1089  0.8643
  108OSM    C3F11142   4.984   2.297  10.796  0.7135  0.3429  0.4611
  108OSM    H3F11143   4.891   2.288  10.856  0.9463  2.0165  1.1238
  108OSM    H3G11144   5.037   2.199  10.793 -0.0249 -0.1202 -4.5590
  108OSM    C4F11145   4.949   2.309  10.650 -0.7213 -0.3665  0.0272
  108OSM    H4F11146   5.041   2.307  10.588 -0.5555  3.1014 -0.0400
  108OSM    H4G11147   4.899   2.406  10.630 -2.7699 -0.9956  1.8188
  108OSM    C5F11148   4.837   2.218  10.601  0.3593 -0.1037  0.3979
  108OSM    H5F11149   4.746   2.247  10.658 -0.7964  0.4396 -1.6480
  108OSM    H5G11150   4.863   2.113  10.627 -2.7663 -1.3311 -0.9787
  108OSM    C6F11151   4.801   2.227  10.454 -0.2431  0.7375  0.5231
  108OSM    H6F11152   4.886   2.184  10.397  1.8986  3.2291  1.6371
  108OSM    H6G11153   4.803   2.332  10.419  1.2500  0.1337 -1.3482
  108OSM    C7F11154   4.663   2.162  10.424  0.0735  0.3653  0.3972
  108OSM    H7F11155   4.587   2.211  10.488  0.3419 -0.8178  1.6746
  108OSM    H7G11156   4.654   2.058  10.460  0.4417 -0.2427 -1.1771
  108OSM    C8F11157   4.619   2.163  10.275 -0.3950 -0.0426 -0.0145
  108OSM    H8F11158   4.614   2.269  10.242  0.1794 -0.3427 -1.1121
  108OSM    H8G11159   4.518   2.118  10.263  0.7620 -3.1169  0.9275
  108OSM    C9F11160   4.707   2.072  10.190 -0.4828  0.1704  0.5342
  108OSM    H9F11161   4.695   1.965  10.215  0.6787 -0.2222 -0.4874
  108OSM   C10F11162   4.799   2.112  10.093 -0.0543 -0.5602 -0.3668
  108OSM   H10F11163   4.840   2.038  10.023 -1.8404 -1.9138 -0.0536
  108OSM   C11F11164   4.825   2.256  10.060  0.4405 -0.0707  0.2009
  108OSM   H11F11165   4.936   2.260  10.065  0.4693 -1.2696  0.7878
  108OSM   H11G11166   4.788   2.333  10.130  1.4487  0.8408 -0.2315
  108OSM   C12F11167   4.781   2.298   9.913 -0.5713  0.4489  0.1384
  108OSM   H12F11168   4.674   2.274   9.893 -0.0434 -1.3715 -0.6435
  108OSM   H12G11169   4.846   2.245   9.841 -0.4854  2.2465 -1.1936
  108OSM   C13F11170   4.783   2.446   9.892  0.3635 -0.4409 -0.3111
  108OSM   H13F11171   4.885   2.484   9.870 -0.8825  1.8482 -2.7889
  108OSM   H13G11172   4.733   2.497   9.978 -1.4362  0.6323 -1.9041
  108OSM   C14F11173   4.704   2.484   9.763  0.1346 -0.0095  0.2452
  108OSM   H14F11174   4.722   2.592   9.743 -0.7633 -0.2942 -2.6637
  108OSM   H14G11175   4.595   2.471   9.782  0.0870  1.5524  1.1749
  108OSM   C15F11176   4.751   2.408   9.633  0.4087 -0.7617 -1.0053
  108OSM   H15F11177   4.713   2.303   9.638 -1.9198  0.1020  1.0167
  108OSM   H15G11178   4.862   2.403   9.626  0.3254 -3.1621 -1.8676
  108OSM   C16F11179   4.689   2.463   9.504  0.0206  0.1667 -0.0134
  108OSM   H16F11180   4.694   2.574   9.507 -1.1070  0.2185  3.2877
  108OSM   H16G11181   4.583   2.431   9.511 -0.0587 -0.0642 -1.7478
  108OSM   C17F11182   4.760   2.414   9.374 -0.4982  0.7062 -0.3434
  108OSM   H17F11183   4.777   2.304   9.369 -1.3662  0.5620 -0.2367
  108OSM   H17G11184   4.859   2.460   9.351 -1.2022  1.5931 -1.7443
  108OSM   C18F11185   4.668   2.446   9.255  0.0445 -0.1200 -0.6929
  108OSM   H18F11186   4.730   2.447   9.163  0.2414  2.3329 -0.5928
  108OSM   H18G11187   4.627   2.549   9.254  2.5256  0.9552 -0.7441
  108OSM   H18H11188   4.587   2.370   9.247  0.6749 -1.2950  2.5653
  109OSM      N11189   4.794   4.368  10.775  0.1040  0.0839  0.3471
  109OSM    C1511190   4.737   4.308  10.644 -0.3780 -0.1505 -0.0882
  109OSM   H15A11191   4.632   4.288  10.652 -0.1704 -1.1293  0.2836
  109OSM   H15B11192   4.780   4.210  10.631  2.7717  0.7216  2.4104
  109OSM   H15C11193   4.747   4.366  10.553  2.2007 -1.5679 -0.8225
  109OSM    C1411194   4.747   4.511  10.781 -0.2871  0.0791  0.2100
  109OSM   H14A11195   4.762   4.563  10.688 -2.7174 -1.1132 -0.9428
  109OSM   H14B11196   4.792   4.569  10.860  0.3556  0.4078 -0.3821
  109OSM   H14C11197   4.640   4.518  10.792 -0.3580 -2.3045  1.8177
  109OSM    C1311198   4.756   4.291  10.898  0.4098  0.9878  0.3434
  109OSM   H13A11199   4.825   4.210  10.917  0.4826  1.1491  0.7858
  109OSM   H13B11200   4.659   4.246  10.885 -0.1776  2.0189  1.0315
  109OSM   H13C11201   4.755   4.356  10.984  0.5508 -0.4395  1.4781
  109OSM    C1211202   4.946   4.370  10.767  0.1780 -0.6638  0.6484
  109OSM   H12A11203   4.981   4.440  10.693  0.2005 -1.2610  0.0909
  109OSM   H12B11204   4.972   4.268  10.745 -0.0445 -0.2730 -1.6783
  109OSM    C1111205   5.025   4.400  10.893  0.9577 -0.1445  0.8065
  109OSM   H11A11206   5.131   4.369  10.880  0.7262 -0.2627 -0.9668
  109OSM   H11B11207   4.987   4.337  10.976  1.4454 -1.8598 -0.2201
  109OSM      P11208   5.097   4.661  10.860 -0.2093 -0.4478  0.0160
  109OSM    O1311209   5.025   4.787  10.907 -0.7149 -0.3091  0.2061
  109OSM    O1411210   5.244   4.643  10.896 -0.1242 -0.0396 -0.1804
  109OSM    O1111211   5.078   4.640  10.703  0.3536  0.8540 -0.5303
  109OSM    O1211212   5.023   4.538  10.925 -0.2940 -0.6487  0.0374
  109OSM    C1S11213   5.188   4.610  10.616 -0.0541 -0.1995 -0.2090
  109OSM    H1S11214   5.237   4.513  10.639  0.5799  0.4549  1.3490
  109OSM    H1T11215   5.266   4.688  10.631  0.7330 -1.5411  3.7133
  109OSM     NF11216   5.272   4.556  10.395  0.3088 -0.0226  0.0262
  109OSM    HNF11217   5.346   4.618  10.373 -0.5080  1.1389  0.4729
  109OSM    C2S11218   5.151   4.609  10.464 -0.5563 -0.3222  0.5135
  109OSM    H2S11219   5.066   4.537  10.454 -0.9048 -0.1620  2.0562
  109OSM    C3S11220   5.112   4.758  10.426 -0.3173 -0.1930 -0.0360
  109OSM    H3S11221   5.201   4.824  10.418  2.2170 -3.2200  0.6316
  109OSM     O311222   5.027   4.824  10.517  0.0535  0.1776 -0.6120
  109OSM    HO311223   5.026   4.761  10.589  0.2355 -0.0533 -0.8119
  109OSM    C4S11224   5.057   4.749  10.289  0.3569 -0.1922  1.2791
  109OSM    H4S11225   5.134   4.767  10.213  0.5037  0.0997  1.4920
  109OSM    C5S11226   4.929   4.745  10.256 -0.5595 -0.4718 -0.2245
  109OSM    H5S11227   4.838   4.755  10.318 -1.5415  0.3802 -1.7389
  109OSM    C6S11228   4.883   4.742  10.114  0.3904  0.6919  0.1438
  109OSM    H6S11229   4.821   4.833  10.096 -1.7823 -0.9338 -1.0191
  109OSM    H6T11230   4.816   4.654  10.108  0.5785  0.5207  0.5184
  109OSM    C7S11231   4.981   4.728   9.987  0.2491  0.0562 -0.1674
  109OSM    H7S11232   5.055   4.646   9.999  0.5854  0.2209 -1.0549
  109OSM    H7T11233   5.028   4.825   9.960 -4.1954  1.6903 -3.0804
  109OSM    C8S11234   4.896   4.689   9.872  0.4034 -0.0190 -0.0769
  109OSM    H8S11235   4.827   4.772   9.844 -0.3054 -1.7028 -3.9728
  109OSM    H8T11236   4.837   4.596   9.890 -1.5342  1.2858  0.7428
  109OSM    C9S11237   4.992   4.667   9.747 -0.2270  0.1680  0.4620
  109OSM    H9S11238   5.059   4.591   9.794 -0.4676 -0.0033  0.5266
  109OSM    H9T11239   5.052   4.759   9.735  1.0027 -0.7488 -0.7394
  109OSM   C10S11240   4.929   4.615   9.617  0.2795  0.2049 -0.5783
  109OSM   H10S11241   4.867   4.528   9.647 -2.1480  2.2278  0.6779
  109OSM   H10T11242   5.009   4.594   9.543  1.2096  3.4899 -0.6879
  109OSM   C11S11243   4.845   4.707   9.524 -0.2329  0.4335  0.1600
  109OSM   H11S11244   4.896   4.805   9.510  1.3033 -0.4183 -0.4840
  109OSM   H11T11245   4.749   4.718   9.578 -0.2208 -1.6929  0.7277
  109OSM   C12S11246   4.804   4.656   9.382 -0.3324 -0.1628  0.1353
  109OSM   H12S11247   4.708   4.699   9.345 -0.2819 -1.2372 -1.3504
  109OSM   H12T11248   4.784   4.548   9.397 -1.5816 -0.0855 -0.7966
  109OSM   C13S11249   4.909   4.690   9.274 -0.2658  0.0976 -0.4735
  109OSM   H13S11250   5.008   4.653   9.308 -0.6168  0.5965  1.2127
  109OSM   H13T11251   4.932   4.797   9.253 -2.2214  0.3262 -1.6793
  109OSM   C14S11252   4.876   4.636   9.134  0.3175  0.6765 -0.2873
  109OSM   H14S11253   4.771   4.658   9.105  0.3800  1.0903 -0.1948
  109OSM   H14T11254   4.877   4.524   9.136 -1.4520  0.6332 -0.0732
  109OSM   C15S11255   4.977   4.671   9.023  0.6550  0.2158  0.0122
  109OSM   H15S11256   5.066   4.607   9.043  0.2971 -0.5294 -0.7425
  109OSM   H15T11257   5.001   4.778   9.035 -2.8889  1.0815  0.3380
  109OSM   C16S11258   4.918   4.634   8.879  0.0111 -1.0426 -0.2102
  109OSM   H16S11259   4.884   4.528   8.879  0.1259 -1.0791 -0.3751
  109OSM   H16T11260   4.990   4.643   8.795  0.7685  0.3672  0.5658
  109OSM   C17S11261   4.795   4.713   8.824  0.3766 -0.3122 -0.8499
  109OSM   H17S11262   4.700   4.696   8.879  0.6401  0.9952  0.0401
  109OSM   H17T11263   4.776   4.681   8.719 -0.2232 -0.2527 -0.7642
  109OSM   C18S11264   4.825   4.859   8.848 -0.0904  0.1573  0.1814
  109OSM   H18S11265   4.819   4.880   8.956  0.7685 -3.1263  0.9962
  109OSM   H18T11266   4.757   4.916   8.781 -0.6550 -2.4110 -1.6303
  109OSM   H18U11267   4.928   4.872   8.809 -0.3389 -0.7719 -0.8711
  109OSM    C1F11268   5.305   4.428  10.402  0.9657 -0.2581  0.0355
  109OSM     OF11269   5.229   4.350  10.466  0.0204 -0.3530  0.0049
  109OSM    C2F11270   5.426   4.375  10.342 -1.0127  0.3147 -0.9333
  109OSM    H2F11271   5.491   4.341  10.426 -1.7726 -1.4796 -1.0362
  109OSM    H2G11272   5.480   4.459  10.292 -1.5881 -0.2002 -2.4448
  109OSM    C3F11273   5.410   4.263  10.242  0.4247 -0.1097  0.7246
  109OSM    H3F11274   5.334   4.294  10.166  1.4375 -0.1105 -0.3113
  109OSM    H3G11275   5.379   4.163  10.281 -2.5504 -0.0881 -1.2203
  109OSM    C4F11276   5.529   4.241  10.143  0.3616  0.5262 -0.0144
  109OSM    H4F11277   5.599   4.180  10.204 -1.1767 -0.5566  0.7457
  109OSM    H4G11278   5.589   4.329  10.109  3.2389 -0.6975  1.5416
  109OSM    C5F11279   5.490   4.153  10.027  0.5428  0.1944 -0.8308
  109OSM    H5F11280   5.411   4.213   9.977 -2.0702  0.5687  3.2941
  109OSM    H5G11281   5.434   4.069  10.074  1.1960  1.2183  1.9861
  109OSM    C6F11282   5.603   4.109   9.941 -0.1017  0.1693  0.1795
  109OSM    H6F11283   5.683   4.051   9.991  0.0873 -2.2676 -2.6681
  109OSM    H6G11284   5.658   4.200   9.907  0.3407  0.2228  1.0023
  109OSM    C7F11285   5.575   4.029   9.812 -0.3498 -0.2882 -0.0500
  109OSM    H7F11286   5.536   3.929   9.842 -0.5538 -0.6786 -1.5147
  109OSM    H7G11287   5.670   3.991   9.769  0.2994  0.9892  0.2317
  109OSM    C8F11288   5.469   4.091   9.720 -0.0278 -0.1750  0.2128
  109OSM    H8F11289   5.376   4.109   9.778 -1.1388  1.5627 -1.9533
  109OSM    H8G11290   5.447   4.014   9.643  0.7856 -1.5330  1.2897
  109OSM    C9F11291   5.505   4.214   9.654  0.1760  0.1562 -0.2911
  109OSM    H9F11292   5.526   4.296   9.724  3.0249 -1.1143  0.4959
  109OSM   C10F11293   5.530   4.246   9.527  0.3101  0.1442 -0.2222
  109OSM   H10F11294   5.541   4.351   9.498 -2.1998  0.1277 -1.6262
  109OSM   C11F11295   5.514   4.152   9.407  0.4660 -0.4480  0.4838
  109OSM   H11F11296   5.472   4.053   9.433  0.1883 -0.7134 -0.9424
  109OSM   H11G11297   5.613   4.126   9.363  0.4950 -1.2458  0.9979
  109OSM   C12F11298   5.446   4.225   9.288 -0.1132  0.0522  0.5573
  109OSM   H12F11299   5.503   4.310   9.246 -0.0468 -0.9004 -1.4146
  109OSM   H12G11300   5.346   4.260   9.320 -0.2040  0.0100  0.3253
  109OSM   C13F11301   5.429   4.129   9.165 -0.6232  0.4154 -0.7310
  109OSM   H13F11302   5.364   4.040   9.171  2.2589 -1.7107  2.3815
  109OSM   H13G11303   5.528   4.093   9.129 -1.6294  0.6179 -3.9970
  109OSM   C14F11304   5.381   4.213   9.042 -0.1955  0.1267 -0.2799
  109OSM   H14F11305   5.361   4.151   8.952 -1.5671  0.6850 -0.3793
  109OSM   H14G11306   5.455   4.296   9.033 -1.6304  1.5488  0.5839
  109OSM   C15F11307   5.243   4.275   9.066  0.9252 -0.0969 -0.0974
  109OSM   H15F11308   5.269   4.355   9.138 -0.6233  1.1163 -0.8457
  109OSM   H15G11309   5.188   4.191   9.113 -1.0638 -1.1571 -3.8904
  109OSM   C16F11310   5.177   4.343   8.940  0.5255  0.2173  0.4214
  109OSM   H16F11311   5.227   4.438   8.913  0.3988 -0.3786 -2.0823
  109OSM   H16G11312   5.066   4.346   8.954  0.1141  0.1592 -2.3176
  109OSM   C17F11313   5.180   4.257   8.808  1.0710  0.4166  0.4042
  109OSM   H17F11314   5.154   4.149   8.821  0.5020  0.4574 -0.3431
  109OSM   H17G11315   5.283   4.243   8.770  1.3804  0.2891  1.2621
  109OSM   C18F11316   5.103   4.321   8.694 -0.2239 -0.1772 -0.3698
  109OSM   H18F11317   4.996   4.341   8.718 -0.4861  1.2139 -2.4601
  109OSM   H18G11318   5.100   4.253   8.606 -2.0120 -2.7192  1.5055
  109OSM   H18H11319   5.148   4.420   8.670 -1.0764  0.5707  0.9380
  110OSM      N11320   1.457   4.169  10.959 -0.1404  0.0031 -0.0108
  110OSM    C1511321   1.440   4.290  11.054  0.4021  0.1396  0.3881
  110OSM   H15A11322   1.460   4.267  11.158 -1.7293 -1.2300  0.5512
  110OSM   H15B11323   1.333   4.304  11.047  0.1343 -1.6165  0.6949
  110OSM   H15C11324   1.492   4.379  11.020  1.2282 -1.0338 -1.5749
  110OSM    C1411325   1.429   4.195  10.817 -0.1139  0.2662  0.1528
  110OSM   H14A11326   1.492   4.277  10.788  1.7357 -1.6361 -1.4818
  110OSM   H14B11327   1.323   4.203  10.798 -0.5357 -3.0345  0.4832
  110OSM   H14C11328   1.457   4.109  10.758 -0.2016 -0.3369  0.9718
  110OSM    C1311329   1.597   4.124  10.969 -0.4916  0.0001 -0.2583
  110OSM   H13A11330   1.609   4.079  11.066 -0.6967  0.1241 -0.1728
  110OSM   H13B11331   1.656   4.214  10.957 -2.3063  1.0776 -1.8927
  110OSM   H13C11332   1.605   4.040  10.902  0.8629  0.2050 -0.3744
  110OSM    C1211333   1.362   4.053  11.010 -0.9227  0.7329  0.1265
  110OSM   H12A11334   1.268   4.100  11.032 -0.3915  1.1916  1.4975
  110OSM   H12B11335   1.405   4.015  11.101 -0.9071  0.9158  0.1947
  110OSM    C1111336   1.349   3.932  10.916  0.2240  0.0089  0.1206
  110OSM   H11A11337   1.291   3.959  10.826  0.7678  1.0065  0.0620
  110OSM   H11B11338   1.291   3.856  10.973 -1.5273  0.9273 -0.3729
  110OSM      P11339   1.538   3.765  10.936 -0.2098  0.0667  0.4275
  110OSM    O1311340   1.605   3.808  11.058 -0.0383  0.8584  0.2666
  110OSM    O1411341   1.433   3.662  10.955  0.0037 -0.2375  0.6314
  110OSM    O1111342   1.652   3.722  10.834 -0.1516  0.3766  0.1867
  110OSM    O1211343   1.478   3.894  10.869 -0.1207  0.3195  0.5794
  110OSM    C1S11344   1.609   3.701  10.696  0.5241 -0.5899  0.0384
  110OSM    H1S11345   1.590   3.797  10.642  1.3391 -0.2129  0.4093
  110OSM    H1T11346   1.527   3.629  10.679  2.0331 -2.0246 -1.5342
  110OSM     NF11347   1.704   3.641  10.478  0.2483 -0.6381  0.9067
  110OSM    HNF11348   1.636   3.581  10.437  2.1527 -2.1066 -0.2472
  110OSM    C2S11349   1.716   3.627  10.621 -0.5191  0.6156  0.3006
  110OSM    H2S11350   1.815   3.671  10.644 -0.2509 -0.3838  1.1388
  110OSM    C3S11351   1.724   3.480  10.672 -0.0292  0.0626  0.6313
  110OSM    H3S11352   1.633   3.433  10.630  0.9575  2.4772 -4.9976
  110OSM     O311353   1.742   3.452  10.809  0.5508  0.3044 -0.5403
  110OSM    HO311354   1.700   3.528  10.849  1.6204  0.4409  0.4010
  110OSM    C4S11355   1.839   3.408  10.603 -0.1319 -0.0087  0.4233
  110OSM    H4S11356   1.940   3.444  10.626 -0.4714  0.2123  1.6273
  110OSM    C5S11357   1.832   3.302  10.521 -0.6093  0.2929  0.1309
  110OSM    H5S11358   1.735   3.254  10.507 -1.1259  0.9318  1.2835
  110OSM    C6S11359   1.947   3.242  10.454  0.6268 -0.5271 -0.4539
  110OSM    H6S11360   1.950   3.133  10.477 -0.4679 -0.4741 -0.0155
  110OSM    H6T11361   2.044   3.281  10.493 -0.7216  0.7458  1.8508
  110OSM    C7S11362   1.938   3.256  10.300  0.2162  0.1311 -0.3165
  110OSM    H7S11363   1.841   3.221  10.258  0.4527  0.0289 -0.7824
  110OSM    H7T11364   2.018   3.189  10.260 -0.6757 -0.9466 -0.3563
  110OSM    C8S11365   1.979   3.400  10.258  0.0689  0.2973  0.1793
  110OSM    H8S11366   2.072   3.447  10.295  0.0193  0.7814 -0.3086
  110OSM    H8T11367   1.906   3.471  10.303  1.6283  1.6002  0.7497
  110OSM    C9S11368   1.970   3.419  10.101  0.5044  0.2024 -0.0508
  110OSM    H9S11369   2.044   3.355  10.048  0.2158 -0.0389 -0.1603
  110OSM    H9T11370   1.994   3.522  10.066 -0.0428  0.2038 -0.4295
  110OSM   C10S11371   1.828   3.385  10.038 -1.3580  0.6359  0.1315
  110OSM   H10S11372   1.748   3.431  10.100  0.9317  1.3310  2.7766
  110OSM   H10T11373   1.819   3.275  10.046  2.0957 -0.0246 -2.7775
  110OSM   C11S11374   1.813   3.423   9.893 -0.0792  0.3260 -0.2722
  110OSM   H11S11375   1.874   3.351   9.836  0.4618  0.4048  0.1914
  110OSM   H11T11376   1.857   3.524   9.880  0.3507 -0.0070 -1.4779
  110OSM   C12S11377   1.663   3.422   9.858 -0.2495  0.5412 -0.1181
  110OSM   H12S11378   1.610   3.500   9.916  0.6060  1.3504 -0.3989
  110OSM   H12T11379   1.624   3.324   9.894  1.4130 -0.5642 -1.1586
  110OSM   C13S11380   1.643   3.439   9.707  0.2213 -0.0608 -0.0072
  110OSM   H13S11381   1.648   3.341   9.655 -1.8424  0.2932 -0.9855
  110OSM   H13T11382   1.719   3.507   9.662  0.5005 -0.5330 -0.2472
  110OSM   C14S11383   1.506   3.475   9.673  0.4105 -0.1364 -0.0033
  110OSM   H14S11384   1.493   3.586   9.671 -0.3310 -0.2296 -1.3622
  110OSM   H14T11385   1.445   3.433   9.756  0.4424  1.1355  0.7019
  110OSM   C15S11386   1.469   3.427   9.530 -0.0454  0.6834  0.1478
  110OSM   H15S11387   1.370   3.473   9.507 -1.5420 -0.5477  3.5197
  110OSM   H15T11388   1.451   3.318   9.531 -1.6490  0.9024 -0.7181
  110OSM   C16S11389   1.553   3.469   9.419 -0.4361 -0.3613 -1.1886
  110OSM   H16S11390   1.653   3.422   9.427 -0.6015 -0.6088 -0.4942
  110OSM   H16T11391   1.572   3.579   9.420 -0.2462 -0.3921 -0.4984
  110OSM   C17S11392   1.485   3.440   9.289  0.8501 -0.0797 -0.3959
  110OSM   H17S11393   1.385   3.486   9.294  2.1556  2.8730  0.5766
  110OSM   H17T11394   1.491   3.330   9.275  0.0903 -0.0186 -1.3386
  110OSM   C18S11395   1.564   3.494   9.164  0.1048  0.7579  0.2834
  110OSM   H18S11396   1.659   3.440   9.148  0.8731  2.6489 -2.4806
  110OSM   H18T11397   1.580   3.604   9.174 -2.0673  1.1577  0.0112
  110OSM   H18U11398   1.508   3.474   9.069  0.7486 -2.5029  0.4803
  110OSM    C1F11399   1.748   3.751  10.412 -0.7238 -0.9912 -0.1641
  110OSM     OF11400   1.798   3.849  10.465  0.3180  0.3161 -0.4883
  110OSM    C2F11401   1.732   3.736  10.261  0.3935  0.2046 -0.4763
  110OSM    H2F11402   1.628   3.711  10.233 -0.3394  2.4694  0.0197
  110OSM    H2G11403   1.792   3.648  10.229 -0.1496  0.1052 -1.2608
  110OSM    C3F11404   1.787   3.860  10.178 -0.0177  0.0895 -0.1704
  110OSM    H3F11405   1.889   3.879  10.216 -0.1485 -0.4542  0.4694
  110OSM    H3G11406   1.727   3.952  10.193 -1.1073 -0.1379 -2.6093
  110OSM    C4F11407   1.797   3.830  10.022  0.0747 -0.1664 -0.3486
  110OSM    H4F11408   1.699   3.854   9.976  0.1569 -0.3088 -0.6012
  110OSM    H4G11409   1.808   3.720  10.022  0.2321 -0.2007  2.0076
  110OSM    C5F11410   1.912   3.903   9.951  0.0447  0.0802 -0.3855
  110OSM    H5F11411   2.007   3.886  10.006 -0.8214 -0.8528  0.8854
  110OSM    H5G11412   1.899   4.013   9.956  0.4999  0.0971  1.0479
  110OSM    C6F11413   1.935   3.843   9.812 -0.0097  0.1723 -0.1415
  110OSM    H6F11414   1.959   3.735   9.807  1.7809  0.4217  1.4786
  110OSM    H6G11415   2.017   3.898   9.760 -0.0963  1.1764  0.7476
  110OSM    C7F11416   1.818   3.847   9.709 -0.4351  0.2362 -0.0291
  110OSM    H7F11417   1.775   3.950   9.705 -2.2983 -0.3488  2.5359
  110OSM    H7G11418   1.734   3.788   9.752 -0.0364 -1.6272 -1.6813
  110OSM    C8F11419   1.872   3.824   9.564 -0.0298 -0.0029  0.3043
  110OSM    H8F11420   1.947   3.743   9.569  0.0646 -0.0954 -1.8054
  110OSM    H8G11421   1.919   3.917   9.524 -0.8923  0.4577  0.3368
  110OSM    C9F11422   1.756   3.792   9.470 -0.0063  0.2724 -0.1759
  110OSM    H9F11423   1.702   3.715   9.527  1.1443  1.4855  2.7535
  110OSM   C10F11424   1.721   3.826   9.344  0.6945 -0.0774 -0.2206
  110OSM   H10F11425   1.638   3.768   9.299 -0.4587  1.4961 -0.2319
  110OSM   C11F11426   1.774   3.923   9.243  0.3103 -0.4226  0.2163
  110OSM   H11F11427   1.811   3.866   9.155 -0.6426 -0.8592  0.0864
  110OSM   H11G11428   1.860   3.976   9.287  0.1112 -0.1731  0.3043
  110OSM   C12F11429   1.657   4.014   9.206 -0.0879  0.3914 -0.7232
  110OSM   H12F11430   1.695   4.102   9.150 -0.5406  1.7700  1.0553
  110OSM   H12G11431   1.602   4.054   9.294 -1.0329 -2.5646  0.1259
  110OSM   C13F11432   1.553   3.949   9.114 -0.0531 -0.4088  0.7513
  110OSM   H13F11433   1.500   4.032   9.064  1.2052 -2.0589 -3.7676
  110OSM   H13G11434   1.475   3.891   9.168 -2.4006  1.6662 -0.2419
  110OSM   C14F11435   1.606   3.856   9.002  0.0230 -0.2531 -0.5996
  110OSM   H14F11436   1.662   3.773   9.050  0.5348  1.2090  1.4277
  110OSM   H14G11437   1.678   3.912   8.939  1.7318  1.2785  2.4840
  110OSM   C15F11438   1.500   3.786   8.921 -0.4864  0.3555 -0.7026
  110OSM   H15F11439   1.412   3.853   8.914 -0.9581 -0.3819 -2.3896
  110OSM   H15G11440   1.452   3.704   8.979  1.9620 -0.4275  0.3736
  110OSM   C16F11441   1.563   3.731   8.790  0.1462 -0.3298 -0.3016
  110OSM   H16F11442   1.647   3.659   8.805 -0.7689 -1.3861 -0.1502
  110OSM   H16G11443   1.601   3.821   8.737 -0.6576  0.5186  0.5285
  110OSM   C17F11444   1.461   3.644   8.703 -0.6000 -0.8448  0.2266
  110OSM   H17F11445   1.464   3.684   8.600 -0.2879  0.5252  0.7473
  110OSM   H17G11446   1.359   3.680   8.730 -0.1006  2.8486 -2.1508
  110OSM   C18F11447   1.488   3.498   8.708 -0.3978  0.3162 -0.3609
  110OSM   H18F11448   1.474   3.445   8.805  0.1222  0.0472 -0.4313
  110OSM   H18G11449   1.597   3.487   8.691 -0.6772 -1.5012 -1.2323
  110OSM   H18H11450   1.435   3.439   8.630 -0.9848  0.7460 -0.2954
  111OSM      N11451   2.286   0.845  11.346  0.0783  0.5065 -0.0121
  111OSM    C1511452   2.247   0.936  11.462 -0.2503 -0.3007 -0.4008
  111OSM   H15A11453   2.147   0.916  11.496  0.0897  0.4856  1.1586
  111OSM   H15B11454   2.263   1.039  11.432  0.0361 -0.1470  0.2767
  111OSM   H15C11455   2.300   0.917  11.554  0.1866  0.5629 -0.4581
  111OSM    C1411456   2.430   0.876  11.302  0.8826  0.5994  0.4182
  111OSM   H14A11457   2.491   0.835  11.381 -0.8354 -0.4229  1.2786
  111OSM   H14B11458   2.447   0.982  11.291 -0.2726  0.7206 -0.3586
  111OSM   H14C11459   2.447   0.819  11.212 -0.7499 -2.0413  1.6614
  111OSM    C1311460   2.283   0.701  11.380 -0.0958  0.7689  0.2652
  111OSM   H13A11461   2.310   0.636  11.297  0.6840  0.4005  0.7957
  111OSM   H13B11462   2.181   0.678  11.409  1.0236 -0.2313  3.9019
  111OSM   H13C11463   2.345   0.670  11.463 -1.0022 -1.4476  0.2003
  111OSM    C1211464   2.184   0.862  11.235  0.1837 -0.3052 -0.4909
  111OSM   H12A11465   2.172   0.969  11.226 -1.4017 -0.3875  0.2906
  111OSM   H12B11466   2.089   0.820  11.266  1.1028 -2.0642  0.1192
  111OSM    C1111467   2.225   0.814  11.095 -0.6971 -0.6405  0.2775
  111OSM   H11A11468   2.273   0.714  11.106  1.3380  0.1514 -0.8193
  111OSM   H11B11469   2.295   0.887  11.048 -1.0955 -1.1880 -1.2334
  111OSM      P11470   2.043   0.938  10.967 -0.0175 -0.4188  0.2642
  111OSM    O1311471   1.921   0.890  10.887  0.1270  0.0150 -0.2898
  111OSM    O1411472   2.023   1.032  11.081 -0.4208 -0.2233  0.0876
  111OSM    O1111473   2.149   0.995  10.869 -0.1289 -0.4512 -0.1605
  111OSM    O1211474   2.102   0.815  11.025 -0.4519  0.0510 -0.0484
  111OSM    C1S11475   2.210   0.901  10.772 -0.1403 -0.1902  1.2751
  111OSM    H1S11476   2.139   0.819  10.746  0.9633 -0.9443  0.5389
  111OSM    H1T11477   2.313   0.868  10.796  1.0232  1.6382 -0.8362
  111OSM     NF11478   2.280   0.867  10.532 -0.0449  0.3439  0.6315
  111OSM    HNF11479   2.375   0.876  10.505 -0.4577 -1.1893 -1.5692
  111OSM    C2S11480   2.227   0.964  10.626 -0.3569  0.6541  0.6288
  111OSM    H2S11481   2.126   0.997  10.596 -0.5205 -0.1698  0.2459
  111OSM    C3S11482   2.310   1.096  10.634  0.4061  0.6624  0.7413
  111OSM    H3S11483   2.413   1.068  10.663  0.3144  0.5337  0.9463
  111OSM     O311484   2.258   1.189  10.732  0.0464  0.3652 -0.6697
  111OSM    HO311485   2.214   1.137  10.799  0.8658 -2.3874 -2.1230
  111OSM    C4S11486   2.313   1.168  10.506  0.3641 -0.1542 -0.0556
  111OSM    H4S11487   2.226   1.233  10.490 -0.3619 -0.5905  1.7914
  111OSM    C5S11488   2.412   1.157  10.419 -0.4084  0.7622 -0.3323
  111OSM    H5S11489   2.503   1.102  10.447 -1.0967 -0.4659 -0.4465
  111OSM    C6S11490   2.414   1.218  10.282 -0.0422  0.1401  0.7954
  111OSM    H6S11491   2.513   1.219  10.231 -0.0683 -1.4917  0.6714
  111OSM    H6T11492   2.371   1.321  10.281 -0.8104 -0.1773  0.8367
  111OSM    C7S11493   2.326   1.117  10.192 -0.5957  1.0665  0.2762
  111OSM    H7S11494   2.217   1.120  10.211 -0.8601 -0.3342 -0.8616
  111OSM    H7T11495   2.366   1.018  10.223  0.8409  1.6064  0.2487
  111OSM    C8S11496   2.346   1.153  10.044  0.3930  0.2053 -0.1688
  111OSM    H8S11497   2.451   1.178  10.019  0.9045 -1.5052  0.1398
  111OSM    H8T11498   2.286   1.246  10.030 -1.9522 -1.1237  0.4756
  111OSM    C9S11499   2.310   1.036   9.950  0.2201  0.4995  0.1717
  111OSM    H9S11500   2.220   0.986   9.991  0.8327 -1.4689 -0.7439
  111OSM    H9T11501   2.387   0.959   9.974  0.0114  0.7141  1.6172
  111OSM   C10S11502   2.307   1.054   9.795 -0.0416  0.1472 -0.2208
  111OSM   H10S11503   2.237   1.138   9.776 -2.5680 -2.5362 -4.2911
  111OSM   H10T11504   2.260   0.963   9.753 -2.0195  0.9589  0.1575
  111OSM   C11S11505   2.446   1.088   9.729  0.8978  0.0119 -0.5692
  111OSM   H11S11506   2.508   0.997   9.743  0.7724 -0.1020 -0.7535
  111OSM   H11T11507   2.492   1.179   9.772 -3.0071  2.0550 -0.2594
  111OSM   C12S11508   2.434   1.105   9.579  0.5200 -0.3169 -0.0050
  111OSM   H12S11509   2.513   1.168   9.534  0.7442 -1.5025 -1.3756
  111OSM   H12T11510   2.341   1.164   9.570  0.2732 -0.6479  0.3696
  111OSM   C13S11511   2.430   0.972   9.499  0.0320  0.2240  0.3373
  111OSM   H13S11512   2.344   0.915   9.539  0.7446  0.9003  3.0393
  111OSM   H13T11513   2.525   0.918   9.519  0.3531  0.4791 -0.4375
  111OSM   C14S11514   2.415   1.010   9.353  0.9772  0.2390 -1.2596
  111OSM   H14S11515   2.471   1.097   9.313  2.8604 -0.8102 -1.0227
  111OSM   H14T11516   2.311   1.049   9.346  0.2131 -1.5659 -0.5729
  111OSM   C15S11517   2.446   0.893   9.264 -0.0704  0.4720  0.1909
  111OSM   H15S11518   2.404   0.793   9.290  1.6180 -0.4405 -0.3905
  111OSM   H15T11519   2.556   0.876   9.261 -0.1874 -0.3017  0.0275
  111OSM   C16S11520   2.388   0.908   9.120 -0.7419 -0.4649  0.5447
  111OSM   H16S11521   2.403   1.014   9.088  0.8492 -1.2734 -1.6636
  111OSM   H16T11522   2.282   0.877   9.120 -0.5776 -1.0676  1.7828
  111OSM   C17S11523   2.466   0.820   9.012  0.8943  0.6252  0.9190
  111OSM   H17S11524   2.484   0.720   9.057  1.5929  0.7082  0.8283
  111OSM   H17T11525   2.563   0.867   8.988  0.0199  2.1993  0.3105
  111OSM   C18S11526   2.388   0.808   8.877  1.2576 -0.0734  0.3781
  111OSM   H18S11527   2.403   0.904   8.823 -1.9144  1.0081  1.2237
  111OSM   H18T11528   2.278   0.817   8.883  1.3427  2.5082 -0.5655
  111OSM   H18U11529   2.423   0.725   8.811 -1.1912  1.7934 -3.6994
  111OSM    C1F11530   2.206   0.759  10.497  0.2868 -0.3113 -0.0274
  111OSM     OF11531   2.083   0.748  10.528  0.3368 -0.5841 -0.3351
  111OSM    C2F11532   2.275   0.642  10.426  0.0016  0.0462  0.3166
  111OSM    H2F11533   2.302   0.566  10.503  1.3170 -0.6547 -0.8042
  111OSM    H2G11534   2.375   0.676  10.393 -0.0962 -0.1704 -0.2022
  111OSM    C3F11535   2.194   0.595  10.308  0.0665  0.2894  0.7481
  111OSM    H3F11536   2.104   0.544  10.348 -0.2560 -1.3790 -1.8675
  111OSM    H3G11537   2.255   0.517  10.257 -0.3235  1.3011 -1.4061
  111OSM    C4F11538   2.147   0.699  10.203  0.3003 -0.4509  0.7732
  111OSM    H4F11539   2.232   0.763  10.171 -0.0149 -0.8335 -0.9087
  111OSM    H4G11540   2.078   0.763  10.262 -1.6557 -1.8649  0.0949
  111OSM    C5F11541   2.070   0.660  10.077  0.2242 -0.8259 -0.6209
  111OSM    H5F11542   2.003   0.740  10.038 -2.7733 -1.5829  2.4826
  111OSM    H5G11543   1.998   0.584  10.113  0.5215 -1.1022 -0.6126
  111OSM    C6F11544   2.159   0.613   9.964  0.0415  0.5193  0.0209
  111OSM    H6F11545   2.222   0.534  10.009 -1.1332 -1.1508 -1.1092
  111OSM    H6G11546   2.219   0.697   9.922 -1.6291  1.3077 -0.9443
  111OSM    C7F11547   2.087   0.535   9.850  0.4970 -0.5035  0.1664
  111OSM    H7F11548   2.038   0.444   9.890 -1.0074 -0.0613 -0.6168
  111OSM    H7G11549   2.162   0.505   9.773  0.9445 -1.3477  0.9080
  111OSM    C8F11550   1.982   0.619   9.773  0.5044 -0.1028  0.0257
  111OSM    H8F11551   1.904   0.660   9.841  1.8158 -0.5604  1.9048
  111OSM    H8G11552   1.920   0.555   9.707 -3.4941  0.5515  2.7674
  111OSM    C9F11553   2.040   0.734   9.699  0.4251  0.8775  0.3325
  111OSM    H9F11554   2.086   0.815   9.757  0.8639  1.7566 -1.2049
  111OSM   C10F11555   2.063   0.748   9.563  0.0005 -0.5737 -0.5505
  111OSM   H10F11556   2.106   0.848   9.542 -1.1976 -0.1714 -1.1600
  111OSM   C11F11557   2.026   0.662   9.443 -0.3092  0.5087  0.0536
  111OSM   H11F11558   1.993   0.720   9.354  0.9690 -1.0291 -1.4980
  111OSM   H11G11559   1.942   0.591   9.462 -0.7813  1.1217  0.2967
  111OSM   C12F11560   2.145   0.573   9.397  1.2173  0.4738 -1.3065
  111OSM   H12F11561   2.163   0.503   9.481  0.6177  0.3569 -1.2698
  111OSM   H12G11562   2.237   0.636   9.392  0.0043  2.7374  1.7107
  111OSM   C13F11563   2.115   0.498   9.270 -0.0549 -0.2303  0.2019
  111OSM   H13F11564   2.012   0.459   9.257  0.7826 -2.4316 -0.3176
  111OSM   H13G11565   2.183   0.411   9.257 -2.5190 -2.2818  0.2687
  111OSM   C14F11566   2.138   0.594   9.158  0.5452 -0.2712 -0.2915
  111OSM   H14F11567   2.236   0.644   9.171  0.1762  0.4103 -0.1191
  111OSM   H14G11568   2.067   0.679   9.162  0.8134 -0.1107  1.8889
  111OSM   C15F11569   2.125   0.516   9.024  0.1356  0.2496 -0.5364
  111OSM   H15F11570   2.095   0.583   8.941 -0.5144 -1.0153 -1.3459
  111OSM   H15G11571   2.046   0.438   9.020 -2.2951  2.5729 -0.9614
  111OSM   C16F11572   2.266   0.464   8.973  0.0906  0.1427 -0.5098
  111OSM   H16F11573   2.313   0.407   9.056  0.8784  0.4072 -0.7714
  111OSM   H16G11574   2.334   0.552   8.968  0.2761  0.1353  1.1793
  111OSM   C17F11575   2.267   0.379   8.846 -0.0258  0.0974  0.6561
  111OSM   H17F11576   2.216   0.285   8.875 -1.9317  0.6205 -0.7567
  111OSM   H17G11577   2.373   0.362   8.818 -0.5524  0.9355 -2.2479
  111OSM   C18F11578   2.186   0.443   8.733  0.0435 -0.2729 -0.8797
  111OSM   H18F11579   2.206   0.394   8.635  0.3570 -0.0936 -0.9072
  111OSM   H18G11580   2.214   0.550   8.723  0.7543 -0.5845 -2.6574
  111OSM   H18H11581   2.080   0.425   8.760  0.4161  0.1978  0.9857
  112OSM      N11582   3.074   5.228  11.143  0.4960  0.5328 -0.2314
  112OSM    C1511583   3.158   5.104  11.165 -0.6166 -0.3021 -0.7847
  112OSM   H15A11584   3.244   5.105  11.100  0.1846  0.1598  0.2618
  112OSM   H15B11585   3.107   5.012  11.140  1.2619 -1.2053 -1.4846
  112OSM   H15C11586   3.190   5.095  11.268 -2.1834  0.5305 -0.1835
  112OSM    C1411587   2.980   5.247  11.262 -0.0324 -0.6454 -0.1040
  112OSM   H14A11588   2.950   5.150  11.300  0.9182 -1.6808 -1.8970
  112OSM   H14B11589   2.888   5.287  11.222 -0.2878 -2.1968 -1.1536
  112OSM   H14C11590   3.026   5.304  11.342 -0.0567 -0.2708 -0.3559
  112OSM    C1311591   3.160   5.353  11.150 -0.0276  0.4451 -0.2997
  112OSM   H13A11592   3.251   5.353  11.090 -1.2054 -1.4480 -2.2091
  112OSM   H13B11593   3.187   5.362  11.254  0.1487 -1.2209 -0.1830
  112OSM   H13C11594   3.111   5.447  11.129 -1.0026 -0.1443 -0.7150
  112OSM    C1211595   2.994   5.209  11.013 -0.5063  0.3030 -0.7986
  112OSM   H12A11596   2.946   5.113  11.026  0.5597 -0.2683 -0.8882
  112OSM   H12B11597   3.066   5.206  10.932  1.3960  4.0742  0.4868
  112OSM    C1111598   2.872   5.300  10.977  1.2850  0.3580  0.0572
  112OSM   H11A11599   2.827   5.281  10.877 -0.0905 -3.6080  1.2538
  112OSM   H11B11600   2.906   5.406  10.972  2.3769  0.0657  0.9414
  112OSM      P11601   2.679   5.165  11.076  0.1457  0.2935  0.2700
  112OSM    O1311602   2.758   5.045  11.115  0.4447 -0.4637  0.3154
  112OSM    O1411603   2.572   5.192  11.174 -0.6140  0.0496  0.1520
  112OSM    O1111604   2.616   5.147  10.924 -0.2729 -0.0935  0.1232
  112OSM    O1211605   2.776   5.292  11.076 -0.1727 -0.1731  0.4705
  112OSM    C1S11606   2.543   5.030  10.886  0.1421  0.6653  0.3662
  112OSM    H1S11607   2.440   5.026  10.925 -0.3211  1.5912 -0.7212
  112OSM    H1T11608   2.589   4.938  10.929  0.9569  0.6421 -0.5008
  112OSM     NF11609   2.449   4.911  10.693  0.6852 -0.1090 -0.3228
  112OSM    HNF11610   2.488   4.832  10.647  0.3251  1.3186 -3.3399
  112OSM    C2S11611   2.539   5.016  10.729 -0.1769  0.7368  0.2758
  112OSM    H2S11612   2.500   5.115  10.698 -1.0362  0.5005  0.5710
  112OSM    C3S11613   2.679   4.988  10.666 -0.8291 -0.1871  0.3014
  112OSM    H3S11614   2.707   4.884  10.693 -1.5861 -0.5995 -0.4520
  112OSM     O311615   2.783   5.071  10.723  0.2438  0.1540  0.0521
  112OSM    HO311616   2.752   5.106  10.807  2.9309  0.6354  0.9216
  112OSM    C4S11617   2.672   5.007  10.514 -0.2032 -0.2047 -0.4976
  112OSM    H4S11618   2.642   4.916  10.461  1.3079 -0.3635 -1.1343
  112OSM    C5S11619   2.709   5.115  10.450 -0.8516 -0.1268  0.3348
  112OSM    H5S11620   2.734   5.203  10.510 -0.3473  0.6497 -0.9800
  112OSM    C6S11621   2.713   5.131  10.297 -1.1080 -0.0784  0.1125
  112OSM    H6S11622   2.818   5.142  10.264 -0.6914  0.0820  1.4172
  112OSM    H6T11623   2.657   5.222  10.266  0.4089  1.1225  0.7703
  112OSM    C7S11624   2.657   5.018  10.204  0.1103  0.8563 -0.6678
  112OSM    H7S11625   2.549   5.009  10.229 -0.2193  2.2685 -1.4911
  112OSM    H7T11626   2.704   4.922  10.234 -0.0821  1.0647  0.3237
  112OSM    C8S11627   2.680   5.055  10.059 -0.1664  0.0536  0.4613
  112OSM    H8S11628   2.787   5.070  10.036 -0.5229 -1.5017 -2.7289
  112OSM    H8T11629   2.628   5.152  10.049 -1.4487 -0.1998  3.5049
  112OSM    C9S11630   2.615   4.952   9.958 -0.0521  0.2908 -0.1395
  112OSM    H9S11631   2.507   4.951   9.981  0.0960 -2.0547  0.8105
  112OSM    H9T11632   2.654   4.849   9.976  1.4425  1.0424  1.3044
  112OSM   C10S11633   2.645   4.991   9.810 -0.3663  0.0854 -0.2792
  112OSM   H10S11634   2.752   4.972   9.789  0.0087  0.9544  0.7476
  112OSM   H10T11635   2.622   5.100   9.806 -0.2316  0.1614  0.8194
  112OSM   C11S11636   2.554   4.922   9.712 -0.0660  0.1895  0.0055
  112OSM   H11S11637   2.450   4.949   9.743  0.5524  2.0732  0.5839
  112OSM   H11T11638   2.559   4.812   9.716  1.7490  0.2695  2.8109
  112OSM   C12S11639   2.576   4.981   9.566  0.0042  0.2207 -0.0990
  112OSM   H12S11640   2.656   4.920   9.519 -0.1357  3.3282 -5.1397
  112OSM   H12T11641   2.612   5.087   9.567  1.4862 -0.2134 -2.0636
  112OSM   C13S11642   2.447   4.989   9.489  0.4244  0.0533 -0.5264
  112OSM   H13S11643   2.379   5.057   9.545 -3.7762 -3.4754 -0.7087
  112OSM   H13T11644   2.390   4.895   9.471  0.5674  0.0954 -1.2198
  112OSM   C14S11645   2.467   5.069   9.359  0.2337  0.2024 -0.0438
  112OSM   H14S11646   2.511   5.168   9.381  0.0251  0.1406  0.7022
  112OSM   H14T11647   2.371   5.083   9.305  1.4982  1.4168 -2.1103
  112OSM   C15S11648   2.551   4.973   9.272  0.5452  0.1298 -0.0860
  112OSM   H15S11649   2.503   4.873   9.269 -1.4420  1.0610 -1.0588
  112OSM   H15T11650   2.655   4.970   9.312  1.0454  3.6076 -0.8086
  112OSM   C16S11651   2.550   5.006   9.119 -0.5701  0.5342 -0.3937
  112OSM   H16S11652   2.610   5.100   9.112 -0.1373  0.2738 -0.2253
  112OSM   H16T11653   2.447   5.046   9.109 -0.3862  1.7781  1.9087
  112OSM   C17S11654   2.606   4.895   9.033 -0.3057  0.8531 -0.2473
  112OSM   H17S11655   2.517   4.828   9.028  0.2071  0.2503 -3.3737
  112OSM   H17T11656   2.688   4.847   9.091 -1.9693  2.0323  3.3263
  112OSM   C18S11657   2.645   4.943   8.890 -0.2185 -0.9092  0.0837
  112OSM   H18S11658   2.662   4.855   8.824 -2.2446 -0.2347 -1.4317
  112OSM   H18T11659   2.745   4.989   8.896  1.1814 -3.7273  0.1464
  112OSM   H18U11660   2.578   5.020   8.848 -0.6496 -0.3130  1.7713
  112OSM    C1F11661   2.315   4.925  10.702 -0.2709 -0.3890  1.2988
  112OSM     OF11662   2.266   5.030  10.747 -0.0206  0.2507 -0.4498
  112OSM    C2F11663   2.236   4.810  10.652 -0.2030  0.1642  0.4329
  112OSM    H2F11664   2.217   4.748  10.742 -1.7340 -1.2876 -0.8229
  112OSM    H2G11665   2.302   4.759  10.579 -0.8867 -1.7929  1.1050
  112OSM    C3F11666   2.096   4.850  10.596 -0.6862  0.3375  0.8443
  112OSM    H3F11667   2.109   4.916  10.508 -0.7564  2.2260  2.1968
  112OSM    H3G11668   2.038   4.903  10.675  0.2414 -0.4707  2.1230
  112OSM    C4F11669   2.010   4.723  10.557  0.7274  0.1926  0.0521
  112OSM    H4F11670   2.004   4.663  10.651 -2.0163  0.4184  0.1232
  112OSM    H4G11671   2.063   4.662  10.481 -1.7192  0.8947 -2.3686
  112OSM    C5F11672   1.864   4.754  10.516  0.2212  0.6815 -0.2233
  112OSM    H5F11673   1.870   4.842  10.449  1.0948 -0.6065 -1.9040
  112OSM    H5G11674   1.818   4.787  10.612  2.6212 -1.6193  1.8977
  112OSM    C6F11675   1.784   4.642  10.445  0.4948 -0.8935 -0.2787
  112OSM    H6F11676   1.685   4.685  10.421  0.4542 -0.5987  0.3980
  112OSM    H6G11677   1.772   4.561  10.519 -2.4513  1.0644  1.5683
  112OSM    C7F11678   1.853   4.590  10.316 -0.5391  0.0072  0.1535
  112OSM    H7F11679   1.784   4.508  10.286 -0.2670  0.5424 -2.1273
  112OSM    H7G11680   1.949   4.544  10.349 -0.3792 -0.1212 -0.4746
  112OSM    C8F11681   1.864   4.697  10.203 -0.1038  0.7901  0.2030
  112OSM    H8F11682   1.945   4.770  10.219  0.2138  0.3904  0.4349
  112OSM    H8G11683   1.761   4.740  10.199 -0.6134 -0.4135 -0.3073
  112OSM    C9F11684   1.911   4.628  10.078  0.2474  0.0455 -0.1409
  112OSM    H9F11685   2.020   4.615  10.065  0.7355  0.0741  2.9735
  112OSM   C10F11686   1.835   4.622   9.968  0.0344  0.1799  0.1655
  112OSM   H10F11687   1.873   4.560   9.885 -0.2547 -1.9529  1.5458
  112OSM   C11F11688   1.694   4.677   9.966 -0.2452 -0.5493  0.2330
  112OSM   H11F11689   1.675   4.784   9.986  1.9084 -0.2061  0.7488
  112OSM   H11G11690   1.636   4.607  10.031 -1.4605  0.3883  0.1819
  112OSM   C12F11691   1.637   4.663   9.821 -0.3018  0.1583  0.0527
  112OSM   H12F11692   1.532   4.698   9.823 -0.5570 -0.5533 -0.6425
  112OSM   H12G11693   1.627   4.562   9.776  1.9693  0.3138 -0.9787
  112OSM   C13F11694   1.707   4.747   9.710 -0.1121 -0.5097  0.1616
  112OSM   H13F11695   1.804   4.693   9.700  0.0088 -0.3035  0.2304
  112OSM   H13G11696   1.742   4.847   9.743 -1.1960 -0.1051  0.1134
  112OSM   C14F11697   1.630   4.749   9.576  0.7521 -0.4572  0.4847
  112OSM   H14F11698   1.525   4.781   9.591  0.3104 -1.7093  0.1801
  112OSM   H14G11699   1.626   4.646   9.535 -0.3881  0.6409 -2.4481
  112OSM   C15F11700   1.703   4.824   9.467  0.6960  0.5999  0.1686
  112OSM   H15F11701   1.808   4.789   9.460  1.3486  2.4336  0.1267
  112OSM   H15G11702   1.717   4.926   9.510  0.0365  0.6022  0.3822
  112OSM   C16F11703   1.625   4.833   9.331  0.5114  0.2903  0.2562
  112OSM   H16F11704   1.531   4.887   9.353  0.4154  0.9972 -1.6780
  112OSM   H16G11705   1.603   4.730   9.296  1.1452  0.3467 -0.3270
  112OSM   C17F11706   1.713   4.912   9.236  0.2130 -0.7720 -0.4662
  112OSM   H17F11707   1.809   4.857   9.228  1.7772  1.6998  0.3196
  112OSM   H17G11708   1.735   5.010   9.283  0.1448 -0.4800 -1.0339
  112OSM   C18F11709   1.671   4.946   9.094 -0.3333  0.0007 -0.1354
  112OSM   H18F11710   1.753   4.998   9.041 -0.6378  0.3866 -0.2283
  112OSM   H18G11711   1.575   5.002   9.088 -1.4971 -1.6055  2.0387
  112OSM   H18H11712   1.653   4.855   9.032 -0.3621  0.2564 -0.5021
  113OSM      N11713   6.229   1.454  11.236 -0.7657  0.4996  0.1989
  113OSM    C1511714   6.330   1.452  11.353  0.5207 -0.1058  0.8103
  113OSM   H15A11715   6.297   1.507  11.441  2.5568 -1.0394  2.2313
  113OSM   H15B11716   6.426   1.495  11.330  0.0356  0.3015 -0.5382
  113OSM   H15C11717   6.340   1.350  11.387  0.6949  0.8023  3.7702
  113OSM    C1411718   6.306   1.430  11.118 -0.7625  0.3258 -0.2699
  113OSM   H14A11719   6.379   1.510  11.116  0.3584 -0.6426  0.5833
  113OSM   H14B11720   6.246   1.429  11.028 -1.8340 -0.3588  0.4379
  113OSM   H14C11721   6.361   1.337  11.128 -0.6811  0.2746 -1.1022
  113OSM    C1311722   6.132   1.344  11.257  0.0760  0.6128 -0.1268
  113OSM   H13A11723   6.054   1.342  11.183 -1.7958  0.3099  1.7526
  113OSM   H13B11724   6.086   1.356  11.354  0.7460  3.0214 -0.0366
  113OSM   H13C11725   6.182   1.248  11.251 -0.1980  0.5544 -1.9803
  113OSM    C1211726   6.153   1.588  11.229  0.0919  0.0694  0.3151
  113OSM   H12A11727   6.094   1.600  11.319  1.9058  1.9679  1.3266
  113OSM   H12B11728   6.078   1.577  11.152 -0.5752  1.4738  0.7328
  113OSM    C1111729   6.226   1.715  11.195 -0.0067  0.2253  0.9109
  113OSM   H11A11730   6.152   1.798  11.191 -0.4104 -0.1212  1.1466
  113OSM   H11B11731   6.256   1.712  11.088 -0.7176 -0.6532  0.7266
  113OSM      P11732   6.465   1.783  11.265 -0.1496  0.1904  0.0154
  113OSM    O1311733   6.504   1.871  11.383  0.1223 -0.0866 -0.6968
  113OSM    O1411734   6.536   1.660  11.258 -0.3962 -0.3742  0.2954
  113OSM    O1111735   6.456   1.872  11.134  0.2080  0.5202  0.2320
  113OSM    O1211736   6.315   1.745  11.289 -0.4034 -0.2192  0.1503
  113OSM    C1S11737   6.499   1.848  11.000 -0.1700 -0.1361  0.3746
  113OSM    H1S11738   6.443   1.759  10.963  0.6173 -0.6036  0.2881
  113OSM    H1T11739   6.604   1.810  10.998 -0.6401 -1.7501 -3.6676
  113OSM     NF11740   6.532   1.940  10.759  0.0144 -0.5918  0.0064
  113OSM    HNF11741   6.627   1.962  10.737  0.6648  0.5846  3.4283
  113OSM    C2S11742   6.484   1.966  10.895  0.0263  0.6361  0.8437
  113OSM    H2S11743   6.376   1.991  10.890 -0.0726  0.5080  2.0947
  113OSM    C3S11744   6.555   2.087  10.960  0.8510 -0.1360 -1.3470
  113OSM    H3S11745   6.662   2.065  10.974  0.9789  0.3364 -1.5511
  113OSM     O311746   6.504   2.128  11.090  0.8029  0.7697  0.4855
  113OSM    HO311747   6.454   2.052  11.118  0.9460 -0.1790 -1.6247
  113OSM    C4S11748   6.545   2.210  10.870  0.0888  0.8479  0.8607
  113OSM    H4S11749   6.622   2.203  10.791 -1.2135 -1.2002 -0.3238
  113OSM    C5S11750   6.455   2.307  10.853  0.3121  0.0268 -0.9275
  113OSM    H5S11751   6.364   2.297  10.915  0.5404 -1.8876 -0.8389
  113OSM    C6S11752   6.468   2.426  10.763 -0.0272 -0.1217  0.4197
  113OSM    H6S11753   6.558   2.426  10.697 -1.2268  1.0976 -1.2999
  113OSM    H6T11754   6.474   2.508  10.836  1.1007 -0.7614  1.0759
  113OSM    C7S11755   6.338   2.442  10.674 -0.3016  0.3397  0.7374
  113OSM    H7S11756   6.258   2.445  10.751  1.1975  0.7771  2.3533
  113OSM    H7T11757   6.325   2.352  10.611  2.0793  0.0525  0.5551
  113OSM    C8S11758   6.331   2.584  10.616 -0.4290  0.2182  0.0077
  113OSM    H8S11759   6.339   2.662  10.695 -1.2640  0.0498  0.2708
  113OSM    H8T11760   6.226   2.597  10.581 -0.8256 -0.0259  1.0596
  113OSM    C9S11761   6.426   2.614  10.503  0.4714 -0.4621  0.3917
  113OSM    H9S11762   6.529   2.586  10.533 -0.2977 -1.2327  2.4646
  113OSM    H9T11763   6.432   2.725  10.498  1.6903 -0.4381  1.7074
  113OSM   C10S11764   6.379   2.548  10.370  0.0870 -0.2879 -0.2428
  113OSM   H10S11765   6.273   2.578  10.355  0.5464  0.9198 -1.2851
  113OSM   H10T11766   6.402   2.440  10.388 -0.1074 -0.5481 -1.4591
  113OSM   C11S11767   6.453   2.590  10.241  0.0504  0.0348  0.2588
  113OSM   H11S11768   6.559   2.561  10.251 -0.3203 -1.0822  1.1465
  113OSM   H11T11769   6.439   2.700  10.226  0.3028  0.2868  1.7570
  113OSM   C12S11770   6.374   2.533  10.117  0.2497 -0.3109 -0.1070
  113OSM   H12S11771   6.270   2.569  10.112  0.8710  2.0555  1.9706
  113OSM   H12T11772   6.385   2.422  10.114  1.1311 -0.3425  2.0554
  113OSM   C13S11773   6.445   2.589   9.995 -0.1940 -0.3594  0.2783
  113OSM   H13S11774   6.549   2.550   9.993  1.6627  4.0339 -0.8648
  113OSM   H13T11775   6.458   2.698  10.012  2.3501 -0.5639 -0.0450
  113OSM   C14S11776   6.395   2.551   9.852  0.2645  0.0153 -0.0420
  113OSM   H14S11777   6.300   2.602   9.827  0.0403 -0.0732  0.6120
  113OSM   H14T11778   6.369   2.444   9.867  0.3282  0.0296  0.1810
  113OSM   C15S11779   6.490   2.569   9.738  0.2463  0.5008 -0.1137
  113OSM   H15S11780   6.588   2.525   9.765  0.4168  1.3454  0.7213
  113OSM   H15T11781   6.513   2.677   9.726  0.6298  0.4321 -0.0037
  113OSM   C16S11782   6.446   2.515   9.599  0.0127 -0.4960 -0.4946
  113OSM   H16S11783   6.348   2.559   9.572 -0.2724 -1.5636 -1.2858
  113OSM   H16T11784   6.434   2.405   9.591  1.7065 -0.6804 -0.8888
  113OSM   C17S11785   6.529   2.558   9.482  0.6283 -0.2397 -0.2198
  113OSM   H17S11786   6.625   2.503   9.473  0.2040 -1.1139  0.4510
  113OSM   H17T11787   6.563   2.661   9.506  3.8187 -0.8491 -1.5634
  113OSM   C18S11788   6.459   2.574   9.347 -0.8085  0.7042  0.7844
  113OSM   H18S11789   6.429   2.474   9.309 -1.1826  0.6692  1.1611
  113OSM   H18T11790   6.532   2.620   9.277 -1.6581  1.4563  0.3683
  113OSM   H18U11791   6.366   2.635   9.357 -1.0210  0.4820  0.2151
  113OSM    C1F11792   6.456   1.868  10.673  0.1887  0.1049 -0.8491
  113OSM     OF11793   6.343   1.833  10.691  0.4250  0.2834  0.2889
  113OSM    C2F11794   6.529   1.826  10.543 -1.4100 -0.1865 -0.3041
  113OSM    H2F11795   6.618   1.766  10.571  0.3386  1.1418 -2.7322
  113OSM    H2G11796   6.568   1.915  10.490  0.4305 -1.3908 -1.0828
  113OSM    C3F11797   6.444   1.750  10.448 -0.2950  0.0204 -0.3900
  113OSM    H3F11798   6.352   1.811  10.436  1.1705  2.2511 -0.9470
  113OSM    H3G11799   6.419   1.656  10.501  0.4903 -0.7095 -1.2626
  113OSM    C4F11800   6.494   1.730  10.304  0.0583  0.0354  0.4036
  113OSM    H4F11801   6.591   1.677  10.310  2.2538  3.8713  4.8944
  113OSM    H4G11802   6.517   1.833  10.271  1.2554  0.6169  2.8609
  113OSM    C5F11803   6.390   1.666  10.211 -0.6050 -0.4164 -1.5772
  113OSM    H5F11804   6.299   1.729  10.205 -0.1369  0.6823  1.3067
  113OSM    H5G11805   6.361   1.563  10.241  0.7216 -0.6928 -1.1478
  113OSM    C6F11806   6.444   1.670  10.066 -0.1781 -0.6876  0.5119
  113OSM    H6F11807   6.552   1.648  10.062 -0.4325 -2.1133  1.1149
  113OSM    H6G11808   6.435   1.776  10.033  2.6163 -0.1629  1.2153
  113OSM    C7F11809   6.374   1.576   9.961 -0.2281 -0.3517  0.5613
  113OSM    H7F11810   6.270   1.612   9.946  0.0731 -0.0244 -0.8957
  113OSM    H7G11811   6.378   1.470   9.995  1.5516 -1.4010 -2.4837
  113OSM    C8F11812   6.439   1.589   9.818  0.4882 -0.3124  0.1098
  113OSM    H8F11813   6.549   1.599   9.829  0.6345 -0.4783 -1.0684
  113OSM    H8G11814   6.405   1.683   9.770 -0.6576 -2.6386 -4.1320
  113OSM    C9F11815   6.395   1.477   9.731  0.4465 -0.5547  0.6139
  113OSM    H9F11816   6.299   1.487   9.677  0.4152 -0.6335  0.6534
  113OSM   C10F11817   6.464   1.363   9.704  0.0595 -0.4229 -0.4418
  113OSM   H10F11818   6.424   1.291   9.632  0.8610 -1.3104 -0.0180
  113OSM   C11F11819   6.599   1.324   9.758  0.4659 -0.2403 -0.4527
  113OSM   H11F11820   6.595   1.219   9.792 -0.7863 -0.0698 -0.0124
  113OSM   H11G11821   6.619   1.387   9.848  2.1170  0.9372 -1.5821
  113OSM   C12F11822   6.715   1.338   9.656  0.2911  0.3387 -0.0538
  113OSM   H12F11823   6.809   1.353   9.713 -0.6425  3.3986  0.8769
  113OSM   H12G11824   6.692   1.439   9.615 -1.1845 -0.1744 -0.5817
  113OSM   C13F11825   6.742   1.232   9.554  0.5575  0.5194  0.0189
  113OSM   H13F11826   6.649   1.230   9.493  0.4273 -0.5637  0.2322
  113OSM   H13G11827   6.758   1.130   9.596  2.2648  1.2834  1.3334
  113OSM   C14F11828   6.867   1.262   9.476 -0.0822 -0.2103  0.3436
  113OSM   H14F11829   6.953   1.262   9.546  0.0166  2.3052  0.3086
  113OSM   H14G11830   6.855   1.355   9.416  2.3417 -0.6381 -0.9327
  113OSM   C15F11831   6.900   1.155   9.366  0.6038  0.2808 -0.8395
  113OSM   H15F11832   6.820   1.175   9.291 -0.6937  1.1526  0.7161
  113OSM   H15G11833   6.892   1.056   9.414 -3.8538  1.7101  1.9696
  113OSM   C16F11834   7.042   1.171   9.305  0.2454 -0.3372  0.3705
  113OSM   H16F11835   7.113   1.132   9.380 -0.3677 -2.9330 -0.2927
  113OSM   H16G11836   7.063   1.279   9.290  1.3522 -0.5923 -0.0078
  113OSM   C17F11837   7.062   1.100   9.168  0.2784  0.7086 -0.0225
  113OSM   H17F11838   6.983   1.131   9.098  1.3540 -0.4794 -1.8443
  113OSM   H17G11839   7.032   0.994   9.183 -1.8111  1.0340 -1.5629
  113OSM   C18F11840   7.197   1.116   9.103  0.3170  0.7310  0.0094
  113OSM   H18F11841   7.267   1.061   9.169  0.7924 -1.7129 -2.3159
  113OSM   H18G11842   7.242   1.216   9.089  0.1722  0.8129  0.1295
  113OSM   H18H11843   7.205   1.071   9.001 -0.1877  0.1528  0.2169
  114OSM      N11844   1.974   4.958  11.106  0.8899  0.1274  0.0247
  114OSM    C1511845   1.829   4.946  11.130 -0.4920 -0.6316  0.0228
  114OSM   H15A11846   1.786   5.044  11.141 -0.2876 -0.4227 -0.9376
  114OSM   H15B11847   1.793   4.883  11.210  2.1329 -1.5366  0.5927
  114OSM   H15C11848   1.785   4.903  11.042 -0.5667  1.0458 -0.8047
  114OSM    C1411849   2.002   5.041  10.984  0.3810  0.9015  0.0858
  114OSM   H14A11850   2.107   5.027  10.964  1.1232 -0.9156  4.1860
  114OSM   H14B11851   1.989   5.145  11.009  0.2806  1.4851 -2.2123
  114OSM   H14C11852   1.937   5.003  10.906  1.4166  0.8802 -0.7828
  114OSM    C1311853   2.041   5.027  11.222 -0.5855  0.3391  0.3191
  114OSM   H13A11854   2.143   5.055  11.201 -1.2719  2.8084 -0.0763
  114OSM   H13B11855   2.031   4.972  11.315 -0.0940 -0.3367 -0.0237
  114OSM   H13C11856   1.992   5.121  11.245  1.4857  1.5217  0.0765
  114OSM    C1211857   2.047   4.826  11.081  0.1801 -0.1359 -0.3156
  114OSM   H12A11858   2.038   4.765  11.170 -0.4932  0.2218 -0.1300
  114OSM   H12B11859   2.153   4.841  11.067 -0.1183  1.2277 -1.3732
  114OSM    C1111860   1.990   4.741  10.960 -0.3083  0.7285  0.5605
  114OSM   H11A11861   2.073   4.684  10.912  1.1605  2.8975  0.3442
  114OSM   H11B11862   1.964   4.807  10.875  1.5127 -2.4305 -2.7094
  114OSM      P11863   1.912   4.527  11.079 -0.2536 -0.0226 -0.0679
  114OSM    O1311864   1.996   4.563  11.198 -0.0594  0.7759 -0.1954
  114OSM    O1411865   1.781   4.461  11.104 -0.4334 -0.1882 -0.3405
  114OSM    O1111866   1.996   4.442  10.973  0.2896 -0.0389 -0.1029
  114OSM    O1211867   1.879   4.662  11.002 -0.1094 -0.4783  0.3968
  114OSM    C1S11868   1.938   4.326  10.915 -0.4992 -0.5940  0.1155
  114OSM    H1S11869   1.828   4.323  10.924 -0.6358  3.1638  1.2993
  114OSM    H1T11870   1.986   4.232  10.952 -1.8140 -0.6586  1.7492
  114OSM     NF11871   1.873   4.234  10.697 -0.3130 -0.0398  0.5960
  114OSM    HNF11872   1.901   4.138  10.689 -2.4879 -0.6042 -1.0806
  114OSM    C2S11873   1.964   4.333  10.756 -0.5023  0.0471  0.1708
  114OSM    H2S11874   1.921   4.432  10.729 -1.1493 -0.1181  0.5760
  114OSM    C3S11875   2.112   4.316  10.712  0.0245  0.2525  0.0582
  114OSM    H3S11876   2.134   4.208  10.721 -2.7469 -0.4058  0.0366
  114OSM     O311877   2.203   4.388  10.795  0.3966  0.1325  0.0451
  114OSM    HO311878   2.149   4.441  10.854 -0.3021  0.5844 -0.9906
  114OSM    C4S11879   2.129   4.354  10.567  0.4969  0.2010  0.5287
  114OSM    H4S11880   2.149   4.458  10.536  2.4587 -1.5590 -5.3081
  114OSM    C5S11881   2.139   4.264  10.465 -0.1874  0.3043 -0.0722
  114OSM    H5S11882   2.128   4.157  10.485  2.5409  0.1398  0.9351
  114OSM    C6S11883   2.163   4.302  10.320  0.1703  0.4439 -0.3603
  114OSM    H6S11884   2.262   4.264  10.288  1.7587  3.1793  0.9899
  114OSM    H6T11885   2.163   4.410  10.295 -0.7510  0.4217 -0.4917
  114OSM    C7S11886   2.054   4.233  10.238 -0.5507  0.8054  0.2396
  114OSM    H7S11887   1.950   4.246  10.274 -0.6219  1.7826 -0.2991
  114OSM    H7T11888   2.073   4.123  10.242  1.3404  1.0845  0.1592
  114OSM    C8S11889   2.053   4.251  10.089  0.2748  0.3871 -0.0902
  114OSM    H8S11890   2.044   4.360  10.068 -0.2554  0.4062  0.2188
  114OSM    H8T11891   1.957   4.207  10.058 -0.0609 -0.3494  1.8279
  114OSM    C9S11892   2.172   4.203  10.011 -0.3090 -0.0714  0.0755
  114OSM    H9S11893   2.184   4.094  10.031 -0.9515 -0.2545 -0.4787
  114OSM    H9T11894   2.261   4.252  10.053 -0.4316 -1.1385  1.6449
  114OSM   C10S11895   2.140   4.210   9.861 -0.4566  0.5197  0.0682
  114OSM   H10S11896   2.149   4.318   9.840 -1.3055  0.7114  0.6357
  114OSM   H10T11897   2.037   4.174   9.840  0.2897 -0.7453 -1.5716
  114OSM   C11S11898   2.235   4.130   9.761  1.2155 -0.1229  0.0256
  114OSM   H11S11899   2.263   4.030   9.799  0.8982 -0.1965  0.0648
  114OSM   H11T11900   2.332   4.184   9.757  1.7743 -1.1406 -2.4972
  114OSM   C12S11901   2.180   4.130   9.618 -0.4579 -0.1836 -0.0306
  114OSM   H12S11902   2.144   4.229   9.583  0.0099 -0.0938 -0.2688
  114OSM   H12T11903   2.088   4.071   9.635 -1.4163  1.4065  0.4676
  114OSM   C13S11904   2.281   4.058   9.519  0.2133 -0.0843  0.2597
  114OSM   H13S11905   2.301   3.963   9.574  1.7364  0.5479  0.8731
  114OSM   H13T11906   2.376   4.115   9.521  0.5048 -0.4887 -1.0733
  114OSM   C14S11907   2.227   4.051   9.384  0.0080 -0.4308  0.0848
  114OSM   H14S11908   2.128   4.001   9.382 -0.0152 -0.3936 -2.2055
  114OSM   H14T11909   2.296   3.990   9.321  0.9182  0.0663  0.5757
  114OSM   C15S11910   2.208   4.183   9.309  0.3571  0.4208 -0.6799
  114OSM   H15S11911   2.311   4.225   9.300  1.1866 -1.7540 -2.1886
  114OSM   H15T11912   2.142   4.254   9.362  1.3591  1.6802 -1.0751
  114OSM   C16S11913   2.125   4.168   9.179  0.3481  0.1761  0.1729
  114OSM   H16S11914   2.022   4.130   9.198  1.0792 -2.3875 -0.5017
  114OSM   H16T11915   2.179   4.097   9.112  1.4622  0.7677  0.4162
  114OSM   C17S11916   2.114   4.298   9.101 -0.9144  0.1971  0.2027
  114OSM   H17S11917   2.092   4.372   9.181 -0.1755 -0.6082  1.1874
  114OSM   H17T11918   2.033   4.280   9.027 -1.6603 -0.8014  1.2165
  114OSM   C18S11919   2.242   4.338   9.023 -0.1594  0.4728 -0.3996
  114OSM   H18S11920   2.238   4.428   8.957  4.4368  0.5229 -0.9020
  114OSM   H18T11921   2.281   4.250   8.969  0.6298 -0.7967  2.1027
  114OSM   H18U11922   2.321   4.362   9.097 -0.0479 -0.4709 -0.2099
  114OSM    C1F11923   1.745   4.259  10.663  0.0386  0.5606 -0.6288
  114OSM     OF11924   1.682   4.348  10.713 -0.2414  0.1046 -0.5132
  114OSM    C2F11925   1.693   4.186  10.547  0.3251 -0.3872 -0.5464
  114OSM    H2F11926   1.611   4.125  10.591  0.4165  1.3960  2.3612
  114OSM    H2G11927   1.770   4.118  10.503  0.1862 -0.0311 -1.3518
  114OSM    C3F11928   1.649   4.267  10.433 -0.1671  0.4024 -0.1806
  114OSM    H3F11929   1.746   4.294  10.385  0.1154 -1.5742 -0.8007
  114OSM    H3G11930   1.604   4.364  10.465  1.5961  1.8926 -1.9182
  114OSM    C4F11931   1.544   4.216  10.327  0.0898 -1.2160  0.4389
  114OSM    H4F11932   1.443   4.203  10.372  0.0387 -3.0961 -0.0961
  114OSM    H4G11933   1.571   4.111  10.299 -3.4461 -1.6768 -1.9631
  114OSM    C5F11934   1.532   4.303  10.198 -0.6638  0.7180  0.6642
  114OSM    H5F11935   1.538   4.412  10.219 -0.6382  0.5319  1.6585
  114OSM    H5G11936   1.427   4.291  10.165 -0.6109  2.6647 -0.3697
  114OSM    C6F11937   1.632   4.266  10.090  0.0857 -0.3172 -0.2849
  114OSM    H6F11938   1.626   4.156  10.102 -1.0872 -0.1109  1.5305
  114OSM    H6G11939   1.733   4.312  10.094  0.2905 -0.7863 -0.0609
  114OSM    C7F11940   1.578   4.304   9.955 -0.2530 -0.3329  0.5732
  114OSM    H7F11941   1.597   4.412   9.941 -0.4117 -0.4765 -0.9089
  114OSM    H7G11942   1.467   4.296   9.951 -0.6484  3.5999 -1.0430
  114OSM    C8F11943   1.650   4.233   9.831  0.4731 -0.1420 -0.6274
  114OSM    H8F11944   1.584   4.239   9.742 -2.7440 -0.6586  1.5628
  114OSM    H8G11945   1.669   4.126   9.852 -1.0683 -1.1570 -3.6964
  114OSM    C9F11946   1.781   4.290   9.796 -0.4042 -0.1715 -0.2656
  114OSM    H9F11947   1.845   4.331   9.875  1.2758 -2.1841 -0.4834
  114OSM   C10F11948   1.841   4.287   9.667  0.1550 -0.5180 -0.0179
  114OSM   H10F11949   1.932   4.348   9.653  0.6616 -1.2498 -0.0022
  114OSM   C11F11950   1.796   4.217   9.535  0.5852 -0.6670  0.0830
  114OSM   H11F11951   1.724   4.136   9.561 -0.7465  0.3635 -0.2507
  114OSM   H11G11952   1.880   4.164   9.487  1.4418  0.1009  0.7010
  114OSM   C12F11953   1.722   4.312   9.440 -0.2195 -0.4536  0.5336
  114OSM   H12F11954   1.652   4.381   9.491 -0.6646  0.9300 -1.7857
  114OSM   H12G11955   1.661   4.249   9.372  0.0975 -0.5707  0.3551
  114OSM   C13F11956   1.810   4.401   9.346 -0.0904  0.1353 -0.5667
  114OSM   H13F11957   1.904   4.354   9.311 -1.1983 -1.6496 -1.3019
  114OSM   H13G11958   1.843   4.488   9.407 -1.3620  0.0588  0.2612
  114OSM   C14F11959   1.743   4.456   9.214  0.2968 -0.0984  0.1920
  114OSM   H14F11960   1.649   4.506   9.245  0.1524  0.0479 -0.4640
  114OSM   H14G11961   1.716   4.365   9.155  0.0997  0.1314 -0.0735
  114OSM   C15F11962   1.832   4.543   9.139 -0.8101 -0.1890  0.2726
  114OSM   H15F11963   1.934   4.502   9.126 -0.6628  0.5565 -1.1828
  114OSM   H15G11964   1.843   4.639   9.195 -2.2611 -0.6484  1.3989
  114OSM   C16F11965   1.785   4.577   8.999  0.5712  0.0329 -0.5421
  114OSM   H16F11966   1.682   4.605   9.029  0.8176 -0.3152  0.6901
  114OSM   H16G11967   1.772   4.491   8.930  0.3311  1.3553 -2.1919
  114OSM   C17F11968   1.863   4.689   8.932  0.5724  0.1305  0.2323
  114OSM   H17F11969   1.888   4.766   9.007  0.0478 -0.9038  1.4999
  114OSM   H17G11970   1.791   4.720   8.853  1.6896 -0.0852 -0.8996
  114OSM   C18F11971   1.985   4.635   8.852  0.1691  0.0396  0.3454
  114OSM   H18F11972   1.954   4.556   8.780  0.5652  0.5271 -0.3721
  114OSM   H18G11973   2.065   4.599   8.920 -1.7200 -2.5910  1.3231
  114OSM   H18H11974   2.028   4.717   8.790  0.9737  0.1109  0.9787
  115OSM      N11975   4.169   4.286  11.341 -0.0999  0.2497 -0.1288
  115OSM    C1511976   4.303   4.322  11.408  0.2617 -0.1407 -0.0190
  115OSM   H15A11977   4.338   4.239  11.467 -0.8075  0.1211  1.0379
  115OSM   H15B11978   4.304   4.418  11.459  0.2496 -0.5199  0.7195
  115OSM   H15C11979   4.379   4.332  11.333  0.8465  0.8154  0.6709
  115OSM    C1411980   4.069   4.242  11.446 -0.1027 -0.3048  0.2939
  115OSM   H14A11981   4.109   4.154  11.494  0.0950 -0.0205  0.6565
  115OSM   H14B11982   3.972   4.228  11.401  1.1263 -0.5819 -2.4851
  115OSM   H14C11983   4.068   4.302  11.535  0.5056 -3.2224  2.4250
  115OSM    C1311984   4.125   4.413  11.280 -0.3389  0.3426 -0.2506
  115OSM   H13A11985   4.120   4.486  11.359 -0.4994 -1.1486  1.1661
  115OSM   H13B11986   4.025   4.407  11.239 -0.0180  0.6304 -1.0925
  115OSM   H13C11987   4.198   4.447  11.208 -1.5036 -1.7446 -2.6152
  115OSM    C1211988   4.187   4.174  11.238  0.4130 -0.4504 -0.2596
  115OSM   H12A11989   4.089   4.157  11.195 -0.6310  1.0514  1.3537
  115OSM   H12B11990   4.222   4.081  11.278  0.5209  0.3013  1.4690
  115OSM    C1111991   4.273   4.196  11.104  0.5069  0.0051  0.2367
  115OSM   H11A11992   4.246   4.297  11.067 -0.6510  0.3710  1.9351
  115OSM   H11B11993   4.230   4.129  11.027 -0.5606  1.5562 -0.5773
  115OSM      P11994   4.486   4.072  11.081  0.4908  0.4536  0.5257
  115OSM    O1311995   4.627   4.070  11.130  0.1161 -0.1082  0.8271
  115OSM    O1411996   4.413   3.946  11.094  0.0598  0.1234 -1.0843
  115OSM    O1111997   4.476   4.112  10.923 -0.4689  0.3524  0.6625
  115OSM    O1211998   4.411   4.189  11.139  0.4772  0.2642 -0.8145
  115OSM    C1S11999   4.501   4.017  10.820 -0.7399  0.2208 -0.5187
  115OSM    H1S12000   4.499   3.909  10.846  0.1226  0.1379 -0.7392
  115OSM    H1T12001   4.598   4.032  10.768 -0.8139  0.3809 -0.6107
  115OSM     NF12002   4.413   3.896  10.624 -0.2575  0.1956  0.2120
  115OSM    HNF12003   4.461   3.898  10.537 -1.4540 -1.4288 -0.5291
  115OSM    C2S12004   4.395   4.016  10.707  0.5621 -0.3954  0.8028
  115OSM    H2S12005   4.297   4.015  10.759 -1.0731  3.0516 -1.8034
  115OSM    C3S12006   4.395   4.152  10.629 -0.4934 -0.6012 -0.2271
  115OSM    H3S12007   4.495   4.156  10.581 -0.2388  2.2188  0.4066
  115OSM     O312008   4.393   4.270  10.714 -0.1702 -0.2912  0.2846
  115OSM    HO312009   4.380   4.235  10.802 -0.8946 -1.2349 -0.1868
  115OSM    C4S12010   4.289   4.135  10.524  0.1070  0.2030  0.4619
  115OSM    H4S12011   4.328   4.080  10.437 -0.5572  1.3787 -0.6174
  115OSM    C5S12012   4.165   4.185  10.520 -0.8277  0.4618  0.2103
  115OSM    H5S12013   4.127   4.232  10.611 -1.8856 -0.6975  0.3912
  115OSM    C6S12014   4.083   4.150  10.405 -0.0744  0.3413 -0.4025
  115OSM    H6S12015   3.977   4.156  10.437  0.3905 -0.4119  1.3937
  115OSM    H6T12016   4.094   4.044  10.370 -1.2277 -0.1154  0.5696
  115OSM    C7S12017   4.113   4.247  10.287 -0.0859  0.1427 -0.1793
  115OSM    H7S12018   4.217   4.235  10.250 -0.2181 -1.3486 -0.1155
  115OSM    H7T12019   4.105   4.350  10.328  0.4026  0.4921 -0.9271
  115OSM    C8S12020   4.031   4.226  10.156 -0.0525  0.8121  0.2334
  115OSM    H8S12021   3.927   4.262  10.170  0.3627  1.6931  1.2107
  115OSM    H8T12022   4.033   4.117  10.132  1.2981  0.7153  0.6554
  115OSM    C9S12023   4.083   4.306  10.034 -0.4414 -0.0799 -0.7828
  115OSM    H9S12024   4.183   4.265  10.006 -0.1706  0.5757 -0.7842
  115OSM    H9T12025   4.104   4.414  10.052  1.9335 -0.6156  0.1538
  115OSM   C10S12026   3.981   4.298   9.916 -0.4264  0.4592 -0.1172
  115OSM   H10S12027   3.878   4.326   9.948  0.7721  5.5160  0.2357
  115OSM   H10T12028   3.974   4.194   9.877  1.8379  0.6329 -1.1181
  115OSM   C11S12029   4.014   4.401   9.804  0.2956 -0.1377 -0.3196
  115OSM   H11S12030   4.121   4.388   9.775  0.5692 -1.0300  1.0054
  115OSM   H11T12031   4.004   4.497   9.860 -1.6164 -0.2893 -0.3316
  115OSM   C12S12032   3.921   4.412   9.688 -0.0363 -0.1920  0.0760
  115OSM   H12S12033   3.945   4.502   9.626  0.2718 -0.5264 -0.2966
  115OSM   H12T12034   3.816   4.408   9.722 -0.3421  1.0133 -0.6507
  115OSM   C13S12035   3.952   4.294   9.596  0.1517  0.2865 -0.1347
  115OSM   H13S12036   3.882   4.214   9.630  0.6136 -0.1693 -0.2430
  115OSM   H13T12037   4.059   4.268   9.612  0.3667  0.0999 -1.7650
  115OSM   C14S12038   3.933   4.320   9.449 -0.2494  0.6099  0.6030
  115OSM   H14S12039   3.979   4.419   9.427  0.5519  0.0513 -0.3234
  115OSM   H14T12040   3.823   4.328   9.443 -0.2690  0.3883  0.6699
  115OSM   C15S12041   4.006   4.213   9.361  0.2081  0.1205 -0.6279
  115OSM   H15S12042   3.966   4.112   9.386 -0.2065 -0.2870 -2.7616
  115OSM   H15T12043   4.115   4.217   9.382 -0.0093 -2.0821  1.4187
  115OSM   C16S12044   3.993   4.225   9.210  0.1650 -0.2354  0.4505
  115OSM   H16S12045   3.884   4.230   9.189  0.2452  3.1808  0.3696
  115OSM   H16T12046   4.039   4.134   9.165 -0.4801 -0.0105 -0.7129
  115OSM   C17S12047   4.056   4.354   9.155  0.1011  0.3300 -0.0563
  115OSM   H17S12048   4.166   4.350   9.174  0.0618  0.9948  0.2923
  115OSM   H17T12049   3.998   4.438   9.196 -1.9231 -1.9570  2.0925
  115OSM   C18S12050   4.045   4.368   9.004  0.2338 -0.2884 -0.2833
  115OSM   H18S12051   3.943   4.346   8.966  1.7388 -2.0030 -3.7538
  115OSM   H18T12052   4.097   4.284   8.953  2.3706  0.8054  0.0060
  115OSM   H18U12053   4.071   4.469   8.966 -2.6695  0.6901  0.0185
  115OSM    C1F12054   4.391   3.772  10.659  0.3361  0.1722 -0.3105
  115OSM     OF12055   4.330   3.737  10.761  0.0241  0.7538  0.0915
  115OSM    C2F12056   4.458   3.675  10.567  0.1951  0.5326 -0.0554
  115OSM    H2F12057   4.566   3.701  10.564  0.7092 -1.3080  1.3109
  115OSM    H2G12058   4.430   3.683  10.460  1.0409 -0.7885 -0.4010
  115OSM    C3F12059   4.431   3.530  10.611 -0.8108 -0.3409  0.6203
  115OSM    H3F12060   4.323   3.509  10.626 -0.4083 -2.9064  0.3680
  115OSM    H3G12061   4.482   3.511  10.708 -0.3771  2.5769  1.0596
  115OSM    C4F12062   4.469   3.422  10.501  0.1954 -0.7895 -0.6482
  115OSM    H4F12063   4.461   3.319  10.541 -0.1515 -0.6523 -0.3551
  115OSM    H4G12064   4.572   3.442  10.464  0.8637  0.3762  1.6351
  115OSM    C5F12065   4.369   3.424  10.379  0.4790  0.6935  0.9741
  115OSM    H5F12066   4.366   3.529  10.343  1.6702  1.6234  3.3548
  115OSM    H5G12067   4.266   3.407  10.419  0.1523  1.0756  0.3180
  115OSM    C6F12068   4.400   3.345  10.256  0.1828 -0.6531 -0.7908
  115OSM    H6F12069   4.408   3.238  10.283 -0.2120  0.0154  2.3007
  115OSM    H6G12070   4.498   3.372  10.212  0.3838 -0.1219 -0.0294
  115OSM    C7F12071   4.301   3.373  10.147 -0.2089 -0.6382  0.0900
  115OSM    H7F12072   4.294   3.482  10.127  0.1614 -0.4591  0.8963
  115OSM    H7G12073   4.199   3.345  10.181  0.3355 -0.4967  1.9691
  115OSM    C8F12074   4.334   3.303  10.015 -0.1665 -0.0865  0.3539
  115OSM    H8F12075   4.345   3.194  10.038  2.2941 -0.2699 -1.2882
  115OSM    H8G12076   4.433   3.341   9.982 -0.8319  1.5045  0.1229
  115OSM    C9F12077   4.226   3.323   9.913  0.4225  0.2219  0.1895
  115OSM    H9F12078   4.125   3.298   9.949  0.3703 -0.5038 -0.4377
  115OSM   C10F12079   4.240   3.348   9.781  0.0850 -0.1851 -0.7781
  115OSM   H10F12080   4.149   3.364   9.721 -1.2620 -0.3276  1.1424
  115OSM   C11F12081   4.377   3.363   9.716 -0.1544 -0.4298 -0.6553
  115OSM   H11F12082   4.459   3.359   9.791  0.1763  1.4425 -0.8521
  115OSM   H11G12083   4.389   3.466   9.674 -1.3539  0.6588  1.4928
  115OSM   C12F12084   4.396   3.265   9.603  0.3735 -0.2920  1.2290
  115OSM   H12F12085   4.376   3.157   9.619 -0.8388  0.0422  2.0423
  115OSM   H12G12086   4.507   3.262   9.594  0.4780  0.5694  2.0364
  115OSM   C13F12087   4.350   3.312   9.469 -0.0772 -0.0286  0.7568
  115OSM   H13F12088   4.389   3.416   9.463  0.8299 -0.4250 -1.0056
  115OSM   H13G12089   4.239   3.314   9.468 -0.1344  3.2651  1.6805
  115OSM   C14F12090   4.420   3.236   9.351  0.3324  0.6190 -0.0718
  115OSM   H14F12091   4.366   3.143   9.319  2.4188 -0.1918 -1.4761
  115OSM   H14G12092   4.525   3.207   9.372 -0.5688 -2.8013  0.4622
  115OSM   C15F12093   4.408   3.320   9.224  0.4036 -0.1428  0.6946
  115OSM   H15F12094   4.506   3.367   9.201  1.4512 -2.3319  0.4594
  115OSM   H15G12095   4.336   3.402   9.244 -0.6395 -0.7880 -0.2905
  115OSM   C16F12096   4.360   3.232   9.102 -0.0570 -0.0199 -0.4073
  115OSM   H16F12097   4.273   3.172   9.136 -1.0705  0.1254 -2.5865
  115OSM   H16G12098   4.432   3.160   9.056  0.3096  0.4274 -0.5427
  115OSM   C17F12099   4.311   3.326   8.990  0.1609 -0.1019  0.0111
  115OSM   H17F12100   4.397   3.386   8.953  0.2226 -0.1368  0.0983
  115OSM   H17G12101   4.228   3.385   9.036 -2.4322 -2.6994 -1.0513
  115OSM   C18F12102   4.256   3.248   8.872 -0.0256 -1.1945  0.0778
  115OSM   H18F12103   4.210   3.320   8.802  1.6836 -0.9280 -0.8179
  115OSM   H18G12104   4.189   3.173   8.920  1.9754 -2.1901  1.4607
  115OSM   H18H12105   4.338   3.193   8.820 -0.2959 -0.9474 -0.6296
  116OSM      N12106   1.668   1.089  11.137  0.5918  0.3073  0.0206
  116OSM    C1512107   1.745   1.205  11.084 -1.1338 -0.9603 -0.2138
  116OSM   H15A12108   1.756   1.277  11.163  0.0619 -1.9181  0.5204
  116OSM   H15B12109   1.709   1.252  10.993 -1.4935  2.7474  1.6549
  116OSM   H15C12110   1.841   1.166  11.055 -0.8448  0.4649 -1.3085
  116OSM    C1412111   1.745   1.036  11.255  0.2896  0.1207  0.8360
  116OSM   H14A12112   1.690   0.958  11.306 -0.3465  0.1209  0.1640
  116OSM   H14B12113   1.750   1.115  11.328 -0.5583  0.4018  0.5976
  116OSM   H14C12114   1.838   0.994  11.219 -0.0112 -0.8605  1.1574
  116OSM    C1312115   1.538   1.136  11.186 -0.0550 -0.5502 -0.0605
  116OSM   H13A12116   1.464   1.157  11.110  0.6480 -1.2708 -0.9679
  116OSM   H13B12117   1.549   1.228  11.241 -2.2359  0.8549 -1.7922
  116OSM   H13C12118   1.495   1.065  11.253 -0.6544 -1.9669 -1.8644
  116OSM    C1212119   1.660   0.986  11.027  0.5712  0.7662  0.0686
  116OSM   H12A12120   1.762   0.969  10.995  0.0511  1.3038 -2.0964
  116OSM   H12B12121   1.603   1.016  10.940  0.4036 -0.1449 -0.1449
  116OSM    C1112122   1.605   0.851  11.082  0.1948 -0.1421  0.0340
  116OSM   H11A12123   1.648   0.811  11.176  1.4638 -0.2981 -0.5902
  116OSM   H11B12124   1.632   0.781  11.000 -1.2303 -0.5126 -0.1403
  116OSM      P12125   1.366   0.859  10.968  0.2616  0.1827  0.0775
  116OSM    O1312126   1.298   0.727  10.962 -0.4631 -0.7829 -0.3637
  116OSM    O1412127   1.284   0.976  10.983  0.5834 -0.0361  0.7224
  116OSM    O1112128   1.465   0.879  10.845 -0.0742 -0.2458 -0.1747
  116OSM    O1212129   1.467   0.853  11.087  0.2977  0.4790 -0.1758
  116OSM    C1S12130   1.527   0.774  10.773  0.7792 -0.4897  0.3851
  116OSM    H1S12131   1.532   0.676  10.825  0.9774 -1.5021 -1.4419
  116OSM    H1T12132   1.635   0.799  10.765  0.4926  0.2209 -2.8623
  116OSM     NF12133   1.522   0.655  10.559 -0.7507  0.5440 -0.2989
  116OSM    HNF12134   1.596   0.680  10.496 -0.4371 -2.9930 -1.5835
  116OSM    C2S12135   1.458   0.762  10.633 -0.2120 -0.6089 -0.0880
  116OSM    H2S12136   1.350   0.740  10.641 -0.5769  0.3172 -1.8316
  116OSM    C3S12137   1.489   0.893  10.557 -0.0181 -0.4000 -0.4419
  116OSM    H3S12138   1.598   0.917  10.564 -0.7234  3.1141  0.8366
  116OSM     O312139   1.429   1.016  10.609 -0.7637 -0.3097 -0.3480
  116OSM    HO312140   1.426   0.988  10.701  0.7259 -4.0559 -1.2407
  116OSM    C4S12141   1.463   0.889  10.408  0.3826  0.2930  0.1046
  116OSM    H4S12142   1.365   0.849  10.375  1.0616 -1.8589  0.5472
  116OSM    C5S12143   1.555   0.906  10.315 -0.3293  0.1115  0.1291
  116OSM    H5S12144   1.660   0.920  10.341 -0.0513  0.2373 -1.0058
  116OSM    C6S12145   1.533   0.893  10.166 -0.3595  0.0483  1.0036
  116OSM    H6S12146   1.579   0.983  10.119 -0.7807 -0.2516 -0.0137
  116OSM    H6T12147   1.426   0.900  10.138 -0.0630 -1.1459 -0.6329
  116OSM    C7S12148   1.602   0.759  10.114 -0.5628  0.4573 -0.2860
  116OSM    H7S12149   1.596   0.680  10.192 -0.3386  1.3580  0.6512
  116OSM    H7T12150   1.710   0.784  10.105 -0.2446 -0.7015  0.1235
  116OSM    C8S12151   1.552   0.705   9.982  0.2560  0.1555  0.1981
  116OSM    H8S12152   1.441   0.716   9.983  0.2069 -0.2567 -0.1034
  116OSM    H8T12153   1.587   0.602   9.961 -0.3968  0.2876 -1.7520
  116OSM    C9S12154   1.589   0.783   9.857 -0.4318  0.1975  0.2683
  116OSM    H9S12155   1.698   0.789   9.841 -0.7059  1.9099 -1.3015
  116OSM    H9T12156   1.556   0.889   9.857  0.5711  0.5398  1.8148
  116OSM   C10S12157   1.541   0.713   9.731 -0.0181 -0.4392  0.2581
  116OSM   H10S12158   1.435   0.730   9.704  0.7656  2.1075 -1.5918
  116OSM   H10T12159   1.569   0.606   9.745 -0.1742 -0.2177  2.7830
  116OSM   C11S12160   1.613   0.764   9.600 -0.5403 -0.1227  0.9596
  116OSM   H11S12161   1.722   0.772   9.619 -0.6342 -0.3474  1.6162
  116OSM   H11T12162   1.577   0.867   9.578 -0.7092 -0.0429  1.5925
  116OSM   C12S12163   1.590   0.673   9.475 -0.5328  0.2808 -0.2039
  116OSM   H12S12164   1.482   0.651   9.457 -0.1269 -0.2343 -2.2867
  116OSM   H12T12165   1.652   0.584   9.501 -1.3762  0.2306  1.8461
  116OSM   C13S12166   1.650   0.743   9.357  0.1712 -0.0563  0.3079
  116OSM   H13S12167   1.737   0.798   9.400  0.6742 -1.2788  0.9104
  116OSM   H13T12168   1.574   0.812   9.314  1.2296 -0.0218 -1.6271
  116OSM   C14S12169   1.701   0.652   9.241  0.5904 -0.0768 -0.0708
  116OSM   H14S12170   1.632   0.566   9.232  1.3706 -0.6791 -0.3955
  116OSM   H14T12171   1.791   0.601   9.281  1.0332  0.6438 -0.1326
  116OSM   C15S12172   1.732   0.725   9.111  0.5692 -0.2947 -0.1692
  116OSM   H15S12173   1.827   0.779   9.126  0.6354 -0.5292  0.2843
  116OSM   H15T12174   1.644   0.791   9.097 -0.0839 -1.3276 -1.1499
  116OSM   C16S12175   1.725   0.629   8.989  0.6634  0.3220 -0.2055
  116OSM   H16S12176   1.627   0.591   8.954  1.8812 -2.6820 -0.6754
  116OSM   H16T12177   1.776   0.537   9.024 -0.4086 -0.3642 -0.4261
  116OSM   C17S12178   1.804   0.679   8.873 -0.0961 -0.7533 -0.6963
  116OSM   H17S12179   1.909   0.706   8.898  0.5100 -1.3413 -2.4482
  116OSM   H17T12180   1.756   0.775   8.846 -0.8453 -0.8955  0.0857
  116OSM   C18S12181   1.802   0.597   8.750  0.1079  0.0285  0.3480
  116OSM   H18S12182   1.856   0.501   8.764 -1.9981 -1.3756 -0.5644
  116OSM   H18T12183   1.846   0.648   8.662 -1.0502  1.1600  0.3808
  116OSM   H18U12184   1.696   0.583   8.719  0.5410 -0.7603 -0.8056
  116OSM    C1F12185   1.494   0.526  10.574  0.5904  0.1441 -0.4247
  116OSM     OF12186   1.380   0.495  10.610 -0.3265 -0.0325 -0.7077
  116OSM    C2F12187   1.592   0.427  10.541 -0.4552  0.5863  0.8838
  116OSM    H2F12188   1.632   0.363  10.623 -1.3655  1.4921  2.0689
  116OSM    H2G12189   1.679   0.474  10.491 -0.5114 -0.5194 -0.3195
  116OSM    C3F12190   1.541   0.331  10.428  0.0327  1.5312  0.0100
  116OSM    H3F12191   1.445   0.291  10.465  0.6891  0.1572  0.2867
  116OSM    H3G12192   1.610   0.244  10.422 -3.0548 -1.2043  1.5510
  116OSM    C4F12193   1.503   0.398  10.288  0.1818 -0.5107 -0.2941
  116OSM    H4F12194   1.596   0.452  10.259  0.3438 -1.2591 -1.2162
  116OSM    H4G12195   1.415   0.465  10.292 -0.4588 -1.3936  1.4210
  116OSM    C5F12196   1.473   0.289  10.182 -0.2676 -0.3158  0.9155
  116OSM    H5F12197   1.406   0.213  10.228 -1.7999  0.7277  0.4946
  116OSM    H5G12198   1.567   0.236  10.156  0.0858  1.3124 -1.4146
  116OSM    C6F12199   1.431   0.326  10.047  0.0853  0.1387  0.4212
  116OSM    H6F12200   1.487   0.413  10.006  0.3779 -1.0280 -1.8241
  116OSM    H6G12201   1.324   0.357  10.054  0.1661  0.7790 -0.9187
  116OSM    C7F12202   1.443   0.213   9.945 -0.0312  0.3550 -1.0664
  116OSM    H7F12203   1.372   0.134   9.980  0.2423 -0.0897 -1.5029
  116OSM    H7G12204   1.546   0.173   9.938 -1.0151 -2.6171 -0.3428
  116OSM    C8F12205   1.393   0.259   9.805 -0.9505  0.1741 -0.5454
  116OSM    H8F12206   1.445   0.188   9.738  1.0810  0.5343  0.5570
  116OSM    H8G12207   1.420   0.366   9.792 -2.2004  0.8149  1.5404
  116OSM    C9F12208   1.248   0.243   9.786 -0.3000 -0.7310 -0.1339
  116OSM    H9F12209   1.184   0.272   9.870 -1.3027 -2.0091 -0.4159
  116OSM   C10F12210   1.185   0.221   9.671  0.4739  0.0713  0.0063
  116OSM   H10F12211   1.075   0.220   9.669  0.1574  5.3740 -2.5521
  116OSM   C11F12212   1.251   0.204   9.535 -0.2062 -0.5224 -0.4891
  116OSM   H11F12213   1.181   0.131   9.490  1.5878 -4.1539  2.0808
  116OSM   H11G12214   1.355   0.165   9.534 -0.1800 -0.5191  0.6195
  116OSM   C12F12215   1.249   0.328   9.452  0.2051 -1.3506 -0.3500
  116OSM   H12F12216   1.336   0.391   9.479 -0.1480 -1.1909  0.4185
  116OSM   H12G12217   1.162   0.394   9.469  1.9344  1.1988 -0.8393
  116OSM   C13F12218   1.250   0.297   9.302 -0.8227 -0.4508 -0.1695
  116OSM   H13F12219   1.147   0.260   9.282 -0.5665 -1.0042 -0.4885
  116OSM   H13G12220   1.318   0.212   9.283 -0.6479 -0.6224  1.1457
  116OSM   C14F12221   1.282   0.405   9.196 -0.4621 -0.4998  0.0127
  116OSM   H14F12222   1.235   0.378   9.100 -0.4491  1.4522 -0.5794
  116OSM   H14G12223   1.390   0.410   9.170 -1.2113 -0.4446 -3.4555
  116OSM   C15F12224   1.236   0.547   9.242 -0.1052  1.0132  0.2048
  116OSM   H15F12225   1.284   0.573   9.338 -1.5552  3.6386  0.3332
  116OSM   H15G12226   1.127   0.542   9.267  0.0243 -0.3828  0.5535
  116OSM   C16F12227   1.263   0.667   9.148  0.4640 -0.2927  0.4291
  116OSM   H16F12228   1.204   0.652   9.055 -0.0309  2.2840  0.2681
  116OSM   H16G12229   1.372   0.666   9.127  0.3014  0.6901 -0.5424
  116OSM   C17F12230   1.208   0.794   9.214 -0.4911  0.0152  0.0526
  116OSM   H17F12231   1.241   0.826   9.315 -0.8192  1.4044 -0.2535
  116OSM   H17G12232   1.098   0.780   9.221 -0.9817  2.0797 -2.3221
  116OSM   C18F12233   1.229   0.903   9.103  0.4916 -0.4332  0.4928
  116OSM   H18F12234   1.173   0.995   9.129  0.5634 -0.4223  0.6077
  116OSM   H18G12235   1.204   0.859   9.004  0.7428  2.2811 -0.8649
  116OSM   H18H12236   1.337   0.928   9.104  0.5169 -0.4701 -0.4414
  117OSM      N12237   6.095   2.102  11.400  0.3250 -0.9282 -0.5873
  117OSM    C1512238   6.027   1.970  11.439  0.2560  0.1568 -0.1391
  117OSM   H15A12239   6.034   1.892  11.364  2.9864 -0.6271  0.7984
  117OSM   H15B12240   5.920   1.982  11.451  0.1201  1.1280 -2.0168
  117OSM   H15C12241   6.066   1.928  11.530 -0.0284  0.7202  0.2464
  117OSM    C1412242   6.102   2.189  11.519  0.2825 -0.0208  0.5996
  117OSM   H14A12243   6.145   2.284  11.491 -1.0437  0.9640  1.7759
  117OSM   H14B12244   6.163   2.145  11.597 -0.7148 -0.8459  0.9280
  117OSM   H14C12245   6.006   2.201  11.567 -0.3836 -1.4873 -0.2875
  117OSM    C1312246   6.243   2.072  11.372  0.5410  0.7507  0.5367
  117OSM   H13A12247   6.253   2.003  11.290  1.7065 -1.7350  2.6465
  117OSM   H13B12248   6.293   2.025  11.455  0.7619 -1.1315 -0.5973
  117OSM   H13C12249   6.306   2.156  11.347  1.5007 -0.6459 -2.0296
  117OSM    C1212250   6.031   2.165  11.278  1.0656  0.3253 -0.5679
  117OSM   H12A12251   6.067   2.100  11.200  2.9626 -2.0261  2.0521
  117OSM   H12B12252   6.081   2.257  11.249  0.4342  1.2021  0.9707
  117OSM    C1112253   5.873   2.182  11.282  0.0011 -0.0959  0.4764
  117OSM   H11A12254   5.846   2.259  11.207 -0.2283 -1.5254 -0.9816
  117OSM   H11B12255   5.837   2.218  11.381 -0.6359 -2.1689  1.0586
  117OSM      P12256   5.793   1.986  11.116  0.2942 -0.0631 -0.1878
  117OSM    O1312257   5.769   1.843  11.154 -0.2869 -0.1926 -0.2546
  117OSM    O1412258   5.706   2.046  11.021 -0.3202 -0.0417  0.9090
  117OSM    O1112259   5.946   2.010  11.069  0.7766  0.2377 -0.2498
  117OSM    O1212260   5.800   2.066  11.252  0.0127  0.3506  0.0824
  117OSM    C1S12261   6.009   1.908  10.984 -0.5834  0.0952  0.4886
  117OSM    H1S12262   5.959   1.809  10.991 -0.7467  0.2554  1.7941
  117OSM    H1T12263   6.119   1.902  10.991 -0.2520  0.6791 -2.5868
  117OSM     NF12264   6.061   1.834  10.749  0.3812 -0.2170 -0.3076
  117OSM    HNF12265   6.149   1.839  10.701  1.2282 -1.3306  1.0606
  117OSM    C2S12266   6.018   1.948  10.831  0.4744  0.2807 -0.9074
  117OSM    H2S12267   5.911   1.966  10.808 -0.2616 -1.6808  0.7014
  117OSM    C3S12268   6.102   2.077  10.812  0.6980 -0.8491  0.7125
  117OSM    H3S12269   6.212   2.070  10.822  0.9562  2.0855  0.8785
  117OSM     O312270   6.051   2.181  10.895  0.0613  0.7975  0.2080
  117OSM    HO312271   6.003   2.134  10.964 -0.8576  0.3332 -0.7356
  117OSM    C4S12272   6.079   2.119  10.671 -0.1249  0.3114 -0.1259
  117OSM    H4S12273   5.982   2.165  10.649  0.0465  2.2978  2.6761
  117OSM    C5S12274   6.176   2.113  10.581 -0.4707 -0.6646  0.9260
  117OSM    H5S12275   6.281   2.088  10.604  0.0607 -0.3769 -0.9844
  117OSM    C6S12276   6.148   2.153  10.436 -0.2348 -0.2294  0.7085
  117OSM    H6S12277   6.199   2.251  10.421 -0.1415 -0.7630 -4.0081
  117OSM    H6T12278   6.040   2.177  10.420 -0.3915 -2.1188 -1.6045
  117OSM    C7S12279   6.209   2.067  10.325 -0.3749  0.4767 -0.0350
  117OSM    H7S12280   6.162   1.967  10.335 -1.5215  0.9464 -0.6235
  117OSM    H7T12281   6.315   2.053  10.355  0.3624  2.5208 -1.4209
  117OSM    C8S12282   6.205   2.121  10.182 -0.1032  0.0262 -0.3924
  117OSM    H8S12283   6.246   2.224  10.188 -0.6399  0.1475  1.9524
  117OSM    H8T12284   6.098   2.133  10.153  0.0091  1.0407 -0.4278
  117OSM    C9S12285   6.268   2.019  10.084  0.1287  0.4930  0.4277
  117OSM    H9S12286   6.244   1.911  10.088 -2.3211  0.9108 -1.2168
  117OSM    H9T12287   6.378   2.023  10.102  0.4336 -0.5088 -1.0930
  117OSM   C10S12288   6.234   2.068   9.940  0.3051  0.1676 -0.8979
  117OSM   H10S12289   6.257   2.177   9.937 -4.9447  1.5378 -1.5470
  117OSM   H10T12290   6.128   2.048   9.915  0.7057 -0.5687 -2.0984
  117OSM   C11S12291   6.316   1.992   9.832  0.0065 -0.3863 -0.0953
  117OSM   H11S12292   6.279   1.887   9.837 -0.4371 -0.2054  0.5797
  117OSM   H11T12293   6.427   1.997   9.843  0.4884 -2.2867 -3.0175
  117OSM   C12S12294   6.300   2.048   9.695 -0.6383  0.6439  1.3378
  117OSM   H12S12295   6.299   2.159   9.689  3.7641  0.8452  1.5126
  117OSM   H12T12296   6.202   2.027   9.647  0.6128  0.5332 -1.3452
  117OSM   C13S12297   6.404   1.988   9.594  0.0415  0.5188  0.8636
  117OSM   H13S12298   6.378   1.883   9.574  0.5540  0.6716 -0.7049
  117OSM   H13T12299   6.512   1.989   9.621 -0.0227 -0.6516  1.2278
  117OSM   C14S12300   6.397   2.058   9.458  0.5937  0.5679  0.9329
  117OSM   H14S12301   6.450   2.156   9.459  1.9185 -0.0422 -1.4205
  117OSM   H14T12302   6.289   2.065   9.435  0.4634 -3.0946 -0.2757
  117OSM   C15S12303   6.483   1.977   9.359  0.7898  0.5143  0.5789
  117OSM   H15S12304   6.432   1.878   9.353 -0.3856  1.0911  0.6966
  117OSM   H15T12305   6.586   1.978   9.401  1.0197 -1.0082  0.1055
  117OSM   C16S12306   6.482   2.043   9.221 -0.0420  0.0636  0.1782
  117OSM   H16S12307   6.525   2.144   9.239 -0.3146 -0.1432  2.2291
  117OSM   H16T12308   6.379   2.067   9.186 -0.3539  3.7744  2.9905
  117OSM   C17S12309   6.568   1.975   9.115  0.9765  0.2657 -0.3903
  117OSM   H17S12310   6.519   1.879   9.089 -0.9279  1.1732 -0.2826
  117OSM   H17T12311   6.671   1.956   9.153  0.9802  0.7805 -0.1489
  117OSM   C18S12312   6.566   2.055   8.990 -0.1035  0.0320  0.1146
  117OSM   H18S12313   6.461   2.079   8.964  0.4349 -1.4731 -4.1779
  117OSM   H18T12314   6.596   1.998   8.900  1.9368  0.8085  0.2372
  117OSM   H18U12315   6.618   2.154   8.990 -2.5528  1.3907 -0.0076
  117OSM    C1F12316   5.993   1.727  10.727 -0.5765  0.9429  0.2889
  117OSM     OF12317   5.879   1.719  10.767  0.0334 -0.1074 -0.4526
  117OSM    C2F12318   6.050   1.616  10.651  0.3698  0.2072  0.8099
  117OSM    H2F12319   6.084   1.542  10.726  0.3808 -0.1469  0.4596
  117OSM    H2G12320   6.131   1.656  10.586  0.2274  0.3107  0.6969
  117OSM    C3F12321   5.933   1.534  10.590 -0.6727  0.3835 -0.7693
  117OSM    H3F12322   5.884   1.601  10.516  3.0028  0.9551 -2.8926
  117OSM    H3G12323   5.869   1.496  10.673  2.2397  2.5660  2.7971
  117OSM    C4F12324   5.982   1.417  10.507  0.1396  0.1486  0.9956
  117OSM    H4F12325   5.888   1.362  10.483  0.5940 -0.8007  1.3319
  117OSM    H4G12326   6.054   1.346  10.554  0.8644  0.9639  1.1339
  117OSM    C5F12327   6.039   1.475  10.367  0.0284  0.4242 -0.5907
  117OSM    H5F12328   6.139   1.520  10.384  0.9647 -1.3316 -1.1957
  117OSM    H5G12329   5.975   1.559  10.333 -0.7661  0.3331  0.6142
  117OSM    C6F12330   6.041   1.369  10.259 -0.1635  0.0949 -0.2406
  117OSM    H6F12331   5.936   1.358  10.224 -0.7756  1.1651  1.1676
  117OSM    H6G12332   6.075   1.277  10.311  0.8308  0.5728 -0.0189
  117OSM    C7F12333   6.124   1.408  10.135 -0.3725  0.0445  0.2682
  117OSM    H7F12334   6.231   1.392  10.160  0.1570 -0.2197 -1.9835
  117OSM    H7G12335   6.116   1.518  10.122  0.2294  0.5169  3.1302
  117OSM    C8F12336   6.104   1.321  10.005  0.2129 -0.1302 -0.3033
  117OSM    H8F12337   6.099   1.214  10.034 -1.0398 -0.1492 -0.5402
  117OSM    H8G12338   6.182   1.358   9.935  1.2006 -0.1888  0.7510
  117OSM    C9F12339   5.968   1.359   9.943  0.3211  0.2232 -0.3767
  117OSM    H9F12340   5.883   1.351  10.012  0.0353  2.6415 -0.3736
  117OSM   C10F12341   5.944   1.377   9.815  0.0116  0.3844  0.5213
  117OSM   H10F12342   5.843   1.405   9.781  0.6786  0.9939 -1.0496
  117OSM   C11F12343   6.049   1.351   9.707  0.1324  0.5303  0.6915
  117OSM   H11F12344   6.143   1.304   9.742  1.4828  0.6992 -2.4085
  117OSM   H11G12345   6.073   1.447   9.657  0.2142 -0.7318 -1.8519
  117OSM   C12F12346   5.989   1.254   9.599  0.8019 -0.6464 -0.1640
  117OSM   H12F12347   5.920   1.318   9.539  0.8903 -0.1286  0.2823
  117OSM   H12G12348   5.934   1.173   9.651  0.6551 -0.3513  0.1401
  117OSM   C13F12349   6.094   1.200   9.506 -0.1434  0.3225 -0.0325
  117OSM   H13F12350   6.046   1.132   9.432  0.8763  0.3604 -0.7588
  117OSM   H13G12351   6.169   1.148   9.569 -0.5994 -1.1204 -0.6427
  117OSM   C14F12352   6.148   1.316   9.416 -0.2249 -0.4774  0.4527
  117OSM   H14F12353   6.189   1.395   9.482 -0.8981 -0.7745  1.2392
  117OSM   H14G12354   6.070   1.360   9.350 -0.4548  0.8614  1.5844
  117OSM   C15F12355   6.272   1.266   9.337  0.0252 -0.6878 -0.4561
  117OSM   H15F12356   6.249   1.172   9.282  0.6221 -1.0696 -0.0628
  117OSM   H15G12357   6.347   1.221   9.405  1.4810  1.4422 -0.5414
  117OSM   C16F12358   6.338   1.374   9.256 -0.4820  0.1165 -0.1839
  117OSM   H16F12359   6.257   1.441   9.220 -1.4944 -1.5986 -1.1956
  117OSM   H16G12360   6.372   1.338   9.157  1.4144 -0.2827  0.5690
  117OSM   C17F12361   6.443   1.444   9.335  0.4207 -0.1803 -1.2361
  117OSM   H17F12362   6.513   1.371   9.380 -1.3663 -0.7131  0.8492
  117OSM   H17G12363   6.401   1.503   9.420  2.0931  1.6002 -1.5635
  117OSM   C18F12364   6.522   1.546   9.249  0.5082  0.1964  0.0820
  117OSM   H18F12365   6.452   1.619   9.203  1.7165  1.9160  0.8607
  117OSM   H18G12366   6.568   1.501   9.159 -0.1200 -0.4455  0.0682
  117OSM   H18H12367   6.603   1.586   9.313 -0.0781  0.6986  0.5283
  118OSM      N12368   6.175   3.380  11.056 -0.7131  0.5374 -0.2282
  118OSM    C1512369   6.307   3.464  11.044 -0.4522 -0.3717 -0.5747
  118OSM   H15A12370   6.345   3.451  11.144 -2.9773 -1.1864  0.3693
  118OSM   H15B12371   6.277   3.564  11.015  1.1591  0.1270 -0.5834
  118OSM   H15C12372   6.373   3.419  10.971 -1.5286 -0.0531 -1.7766
  118OSM    C1412373   6.080   3.448  11.145  0.8307  0.2452  0.1898
  118OSM   H14A12374   6.128   3.458  11.241  0.3956  3.4965  0.1679
  118OSM   H14B12375   5.986   3.395  11.155  0.5999  0.9040  1.6541
  118OSM   H14C12376   6.061   3.548  11.109 -0.6779  1.0098  2.8437
  118OSM    C1312377   6.111   3.360  10.921 -0.0594  0.4263 -0.0342
  118OSM   H13A12378   6.041   3.437  10.891 -3.7731 -2.0974  1.4276
  118OSM   H13B12379   6.050   3.271  10.925  0.5329  0.0658  2.3439
  118OSM   H13C12380   6.186   3.349  10.843  2.6393  1.8795  2.1788
  118OSM    C1212381   6.213   3.241  11.113 -0.0920 -0.1718 -0.6300
  118OSM   H12A12382   6.252   3.182  11.031 -2.0010 -0.8022 -1.1364
  118OSM   H12B12383   6.125   3.183  11.136  0.1851  0.7630  3.6128
  118OSM    C1112384   6.305   3.239  11.237  0.1455 -0.2435  0.2462
  118OSM   H11A12385   6.305   3.133  11.269 -1.7834 -0.5996 -0.7880
  118OSM   H11B12386   6.264   3.301  11.319 -1.2802 -1.1998  0.2912
  118OSM      P12387   6.541   3.180  11.147  0.3735  0.0181  0.3628
  118OSM    O1312388   6.655   3.260  11.109  1.2138  0.5979 -0.3039
  118OSM    O1412389   6.567   3.073  11.245 -0.4201  0.6342  0.9210
  118OSM    O1112390   6.460   3.128  11.022 -0.2633 -0.1779  0.7179
  118OSM    O1212391   6.436   3.285  11.203 -0.7771 -0.7205 -0.1276
  118OSM    C1S12392   6.531   3.122  10.892  0.4032 -0.0878  0.2769
  118OSM    H1S12393   6.630   3.072  10.898  0.4163 -0.1190 -0.1410
  118OSM    H1T12394   6.539   3.223  10.846 -1.6368 -0.9353 -2.1620
  118OSM     NF12395   6.504   3.057  10.654  0.3047 -0.3271 -0.0920
  118OSM    HNF12396   6.465   3.127  10.594 -0.5355 -0.4897  0.2415
  118OSM    C2S12397   6.445   3.037  10.786  0.0342 -0.2505 -0.5367
  118OSM    H2S12398   6.471   2.934  10.819  0.0294  0.0626  0.4777
  118OSM    C3S12399   6.291   3.071  10.795  0.3961  0.2503  0.3376
  118OSM    H3S12400   6.280   3.181  10.801  1.6572  0.4896 -1.0513
  118OSM     O312401   6.216   3.012  10.908 -0.7397  0.0501  0.6591
  118OSM    HO312402   6.277   2.955  10.956  0.0279 -0.2218 -0.5823
  118OSM    C4S12403   6.226   3.035  10.663 -0.0408  0.3175  0.1393
  118OSM    H4S12404   6.242   3.114  10.589  2.7215 -1.0281 -0.8469
  118OSM    C5S12405   6.153   2.930  10.636 -0.4074  0.0224 -0.8838
  118OSM    H5S12406   6.138   2.847  10.707  1.5655  0.0235 -0.3989
  118OSM    C6S12407   6.091   2.925  10.500 -0.9734 -0.3802 -0.3985
  118OSM    H6S12408   6.012   3.003  10.496 -1.0124 -0.3897  0.1197
  118OSM    H6T12409   6.041   2.826  10.490 -1.7065  0.0472 -1.1201
  118OSM    C7S12410   6.181   2.948  10.371 -0.5190  0.4726 -0.1255
  118OSM    H7S12411   6.276   2.891  10.381 -0.3804  0.4707 -1.3385
  118OSM    H7T12412   6.208   3.056  10.379 -3.0150  1.1181  0.2488
  118OSM    C8S12413   6.111   2.912  10.246 -0.2029 -0.2106 -0.1980
  118OSM    H8S12414   6.015   2.968  10.241  0.2698  0.6676  0.3187
  118OSM    H8T12415   6.082   2.805  10.243  0.5421 -0.4306 -3.8620
  118OSM    C9S12416   6.190   2.927  10.113  0.0529 -0.6166  0.5118
  118OSM    H9S12417   6.264   2.843  10.112 -1.7075 -2.2538 -1.0252
  118OSM    H9T12418   6.242   3.025  10.119  0.4008 -0.6320 -1.5567
  118OSM   C10S12419   6.115   2.912   9.980 -0.0393 -0.1473  0.5083
  118OSM   H10S12420   6.036   2.991   9.975  0.0037 -0.1495 -0.4204
  118OSM   H10T12421   6.054   2.819   9.978  1.7086 -1.3657 -1.6737
  118OSM   C11S12422   6.206   2.913   9.855  0.4110  0.6918 -0.6418
  118OSM   H11S12423   6.290   2.841   9.857 -1.7676 -2.0712 -1.3984
  118OSM   H11T12424   6.242   3.018   9.856 -0.3768  1.1457  4.0465
  118OSM   C12S12425   6.141   2.890   9.722 -0.2946  0.1762 -0.1116
  118OSM   H12S12426   6.074   2.979   9.710  1.2775  1.5911  1.2156
  118OSM   H12T12427   6.075   2.800   9.718 -0.4111  0.2892 -1.5485
  118OSM   C13S12428   6.246   2.882   9.608 -0.3805  1.1731  0.3042
  118OSM   H13S12429   6.323   2.803   9.629 -1.6625  0.1563  1.3984
  118OSM   H13T12430   6.300   2.979   9.617 -1.3974  1.7084  0.7973
  118OSM   C14S12431   6.175   2.851   9.468  0.1055 -0.2053 -0.5272
  118OSM   H14S12432   6.081   2.910   9.459 -0.3625 -1.0128 -1.0753
  118OSM   H14T12433   6.154   2.742   9.470  1.8999 -0.5936 -1.0328
  118OSM   C15S12434   6.266   2.891   9.351  0.1520 -0.1854 -0.0524
  118OSM   H15S12435   6.364   2.841   9.362  1.4590  1.7610 -1.9306
  118OSM   H15T12436   6.280   3.001   9.356 -1.6351  0.0627  0.2258
  118OSM   C16S12437   6.204   2.842   9.221  0.0701 -0.4130 -0.4071
  118OSM   H16S12438   6.102   2.884   9.204 -0.2893 -0.8408  0.6492
  118OSM   H16T12439   6.197   2.731   9.226  0.6761 -0.3998  1.6120
  118OSM   C17S12440   6.296   2.880   9.106  0.5738 -0.2093 -0.2077
  118OSM   H17S12441   6.392   2.827   9.123 -0.2088 -0.8573  2.6644
  118OSM   H17T12442   6.301   2.991   9.101  1.4041 -0.3051 -2.1538
  118OSM   C18S12443   6.234   2.840   8.971  0.9384 -0.9155  0.0101
  118OSM   H18S12444   6.272   2.903   8.888  4.3754  0.8314  2.6182
  118OSM   H18T12445   6.127   2.868   8.984  0.9767 -1.4370  1.6378
  118OSM   H18U12446   6.253   2.733   8.951 -0.7540 -1.6693  2.0154
  118OSM    C1F12447   6.626   3.012  10.614  0.3231  0.1590 -0.3307
  118OSM     OF12448   6.685   2.931  10.684  0.4951  0.1678  0.1536
  118OSM    C2F12449   6.674   3.063  10.474 -0.1963  0.2302  0.0465
  118OSM    H2F12450   6.779   3.031  10.458  0.5265  2.7078 -0.4795
  118OSM    H2G12451   6.665   3.173  10.461 -2.9552  0.3457  1.9562
  118OSM    C3F12452   6.585   2.999  10.363 -0.5743 -0.2905  0.0298
  118OSM    H3F12453   6.488   3.052  10.365  0.9195  2.7021 -0.6873
  118OSM    H3G12454   6.568   2.890  10.369 -0.4052 -0.5849 -3.0037
  118OSM    C4F12455   6.641   3.031  10.228 -0.1185 -0.7618  0.3266
  118OSM    H4F12456   6.731   2.967  10.215  0.3628 -0.1418  0.5426
  118OSM    H4G12457   6.681   3.133  10.243 -0.4778 -0.7293  1.0935
  118OSM    C5F12458   6.552   3.017  10.106  0.2804  0.3331 -0.4002
  118OSM    H5F12459   6.474   3.096  10.112  0.0839  0.0779  0.5277
  118OSM    H5G12460   6.497   2.920  10.106 -0.2636  0.6386 -0.0294
  118OSM    C6F12461   6.643   3.055   9.985  0.0404  0.4343 -0.6097
  118OSM    H6F12462   6.728   2.987   9.963 -1.3194 -1.5923  0.1408
  118OSM    H6G12463   6.677   3.156  10.013 -2.3879  0.8632  1.1533
  118OSM    C7F12464   6.566   3.080   9.854 -0.4999  0.3506 -0.4740
  118OSM    H7F12465   6.482   3.147   9.880 -0.8089 -0.6278  1.1710
  118OSM    H7G12466   6.522   2.983   9.823 -0.2906 -0.6948  2.1914
  118OSM    C8F12467   6.641   3.159   9.750  0.0501 -0.5721 -0.6424
  118OSM    H8F12468   6.699   3.235   9.806 -0.0681 -0.4521 -0.6810
  118OSM    H8G12469   6.563   3.219   9.698  1.4606  0.3900 -1.7079
  118OSM    C9F12470   6.730   3.083   9.666 -0.5246 -0.7296  0.4442
  118OSM    H9F12471   6.833   3.080   9.704  1.1598  0.3547 -3.4906
  118OSM   C10F12472   6.715   3.039   9.534 -0.2184 -0.1346 -0.0554
  118OSM   H10F12473   6.793   2.993   9.471 -1.4759 -0.8099 -1.1623
  118OSM   C11F12474   6.590   3.045   9.447 -0.1075 -0.0013  0.2430
  118OSM   H11F12475   6.505   3.102   9.489 -1.0790 -2.6234  2.1298
  118OSM   H11G12476   6.562   2.940   9.424  0.4944  0.2061 -1.6208
  118OSM   C12F12477   6.616   3.104   9.308  0.0129  0.0436 -0.5727
  118OSM   H12F12478   6.693   3.184   9.310  1.0600 -0.9169 -1.2142
  118OSM   H12G12479   6.515   3.129   9.268  0.2595 -0.0116 -1.2421
  118OSM   C13F12480   6.657   2.999   9.205 -0.3317  0.0963  0.4308
  118OSM   H13F12481   6.609   2.901   9.227  0.5489 -0.8023 -1.4449
  118OSM   H13G12482   6.763   2.969   9.217 -0.7405 -1.6360  0.0123
  118OSM   C14F12483   6.643   3.030   9.054 -0.0968 -0.7361 -0.5963
  118OSM   H14F12484   6.658   3.139   9.041  0.0552 -0.4092  1.9064
  118OSM   H14G12485   6.540   3.005   9.022 -0.7139 -0.7342  1.2850
  118OSM   C15F12486   6.737   2.954   8.959  0.5506  0.6916 -0.0870
  118OSM   H15F12487   6.712   2.846   8.971  0.8356  0.3558 -2.2121
  118OSM   H15G12488   6.841   2.972   8.993  0.4661 -0.6555  1.0029
  118OSM   C16F12489   6.722   2.981   8.808  0.2882  0.0252  0.0937
  118OSM   H16F12490   6.622   2.951   8.771 -0.2832  2.3946 -0.4799
  118OSM   H16G12491   6.800   2.920   8.759  0.6695  1.4905 -1.2056
  118OSM   C17F12492   6.722   3.117   8.744 -0.5780  1.0908  0.2143
  118OSM   H17F12493   6.637   3.170   8.791 -3.2151 -3.3174  0.9653
  118OSM   H17G12494   6.704   3.102   8.635 -1.1590  0.8113  0.3476
  118OSM   C18F12495   6.853   3.195   8.756 -0.0672  0.2989  0.3726
  118OSM   H18F12496   6.888   3.202   8.862  1.5242 -2.8714  0.1916
  118OSM   H18G12497   6.862   3.290   8.700 -1.8150  0.6639  0.6541
  118OSM   H18H12498   6.924   3.117   8.721 -2.0063 -1.5632  0.4000
  119OSM      N12499   0.719   2.638  11.130  0.1556  0.3088  0.2856
  119OSM    C1512500   0.810   2.550  11.211  0.5405 -0.6268  0.2549
  119OSM   H15A12501   0.748   2.491  11.278  1.3117 -1.3638  0.3401
  119OSM   H15B12502   0.883   2.611  11.262 -0.9030  0.4570  1.1243
  119OSM   H15C12503   0.849   2.478  11.141  0.4662 -0.9177  0.5084
  119OSM    C1412504   0.645   2.726  11.222  0.2425 -0.1137  0.1063
  119OSM   H14A12505   0.548   2.688  11.249  1.1639 -1.0463  2.3893
  119OSM   H14B12506   0.638   2.830  11.193  0.9591  0.0995  0.6425
  119OSM   H14C12507   0.711   2.739  11.307 -1.4169 -1.5266  1.7077
  119OSM    C1312508   0.804   2.723  11.040  0.2543 -0.4762 -0.0776
  119OSM   H13A12509   0.892   2.753  11.095 -0.5097  0.0826  0.8721
  119OSM   H13B12510   0.752   2.802  10.988  1.5975  3.1014  3.4307
  119OSM   H13C12511   0.840   2.655  10.964 -0.8061 -0.4647 -0.6086
  119OSM    C1212512   0.620   2.551  11.065 -0.1021  0.2914 -0.3473
  119OSM   H12A12513   0.548   2.616  11.018  0.1398  0.3128 -0.6941
  119OSM   H12B12514   0.559   2.505  11.142  1.5722  2.2381  2.3332
  119OSM    C1112515   0.679   2.465  10.948 -0.3645 -0.0743 -0.2880
  119OSM   H11A12516   0.739   2.528  10.879  0.8973 -1.8901 -0.9543
  119OSM   H11B12517   0.599   2.419  10.886  1.4645 -1.8005 -1.4894
  119OSM      P12518   0.732   2.233  11.044 -0.2402  0.1614  0.0419
  119OSM    O1312519   0.844   2.159  11.101  0.9187 -0.3727  0.6288
  119OSM    O1412520   0.617   2.253  11.129  0.7235  0.3950 -0.0240
  119OSM    O1112521   0.689   2.157  10.913 -0.6384 -0.1186 -0.2820
  119OSM    O1212522   0.777   2.373  10.992 -0.4123 -0.4569 -0.2266
  119OSM    C1S12523   0.786   2.159  10.804  0.1279  0.2797  0.2335
  119OSM    H1S12524   0.872   2.091  10.818  0.6829  0.4659 -1.9690
  119OSM    H1T12525   0.822   2.260  10.773 -0.3652 -0.4251 -2.9915
  119OSM     NF12526   0.796   2.129  10.567 -0.2201 -0.0595  0.5680
  119OSM    HNF12527   0.760   2.176  10.487  1.4388 -2.9554 -2.1245
  119OSM    C2S12528   0.714   2.106  10.682  0.0394 -0.1768 -0.0345
  119OSM    H2S12529   0.704   1.996  10.695 -2.6842  0.0895  0.6903
  119OSM    C3S12530   0.574   2.178  10.673 -0.3140 -0.6111  0.3558
  119OSM    H3S12531   0.582   2.282  10.712 -1.6496 -1.0190  1.7902
  119OSM     O312532   0.476   2.123  10.765  0.1753  0.4985  0.4354
  119OSM    HO312533   0.520   2.077  10.837 -1.4864 -0.4648  0.8810
  119OSM    C4S12534   0.512   2.173  10.538 -0.1491  0.0476  0.2187
  119OSM    H4S12535   0.519   2.071  10.497  2.8766 -0.0904  0.8606
  119OSM    C5S12536   0.463   2.274  10.458  0.4152 -1.1685 -0.5128
  119OSM    H5S12537   0.465   2.381  10.486  0.1280 -0.9038 -1.4664
  119OSM    C6S12538   0.411   2.274  10.322  0.2606 -0.5808  0.7438
  119OSM    H6S12539   0.485   2.326  10.258  3.2398 -3.2421  1.7772
  119OSM    H6T12540   0.312   2.324  10.315 -0.4942 -2.1435 -0.8211
  119OSM    C7S12541   0.396   2.128  10.268 -0.7584 -0.1068 -0.0145
  119OSM    H7S12542   0.323   2.072  10.330 -2.4032  1.6812 -0.2495
  119OSM    H7T12543   0.493   2.075  10.278 -1.1632 -0.8512  0.0928
  119OSM    C8S12544   0.355   2.115  10.118 -0.3986 -0.1444  0.5093
  119OSM    H8S12545   0.250   2.148  10.106 -0.1685  0.5118  0.2856
  119OSM    H8T12546   0.356   2.004  10.106  3.0573 -0.1048 -0.5663
  119OSM    C9S12547   0.454   2.179  10.019  1.4574 -0.3071 -0.1319
  119OSM    H9S12548   0.561   2.178  10.050  1.2829  2.4839  0.8565
  119OSM    H9T12549   0.444   2.287   9.995  2.6960 -0.3147 -0.7584
  119OSM   C10S12550   0.439   2.107   9.880  0.2620 -0.0567  0.9958
  119OSM   H10S12551   0.333   2.125   9.852  0.7259  3.2538  0.9736
  119OSM   H10T12552   0.448   1.997   9.892 -0.5040 -0.2991 -0.4456
  119OSM   C11S12553   0.521   2.151   9.764 -1.0502  0.4073  0.2280
  119OSM   H11S12554   0.472   2.102   9.678 -1.3348  1.0613  0.0124
  119OSM   H11T12555   0.629   2.128   9.774 -1.1656  0.6875  2.8575
  119OSM   C12S12556   0.518   2.306   9.744  0.2433  0.1496  1.2211
  119OSM   H12S12557   0.557   2.351   9.838  1.3903 -2.1985  1.9556
  119OSM   H12T12558   0.412   2.338   9.731 -0.0465 -0.8381  1.0141
  119OSM   C13S12559   0.602   2.350   9.621  0.0192 -0.7099 -0.0007
  119OSM   H13S12560   0.704   2.307   9.627  0.9335  1.4552  0.8673
  119OSM   H13T12561   0.625   2.455   9.648 -1.3219 -0.0139 -1.4012
  119OSM   C14S12562   0.530   2.346   9.485  0.6075  0.1817  0.4197
  119OSM   H14S12563   0.426   2.385   9.484 -0.0737 -1.5469  0.5870
  119OSM   H14T12564   0.524   2.241   9.449  0.7594  1.0640 -2.4137
  119OSM   C15S12565   0.606   2.426   9.384  0.1875 -0.5739  0.7340
  119OSM   H15S12566   0.708   2.387   9.367 -0.4470 -2.9570  1.8929
  119OSM   H15T12567   0.607   2.530   9.423  0.2561  0.0570 -0.8716
  119OSM   C16S12568   0.525   2.424   9.255  0.0799  0.0692 -0.6458
  119OSM   H16S12569   0.417   2.435   9.274 -0.0498 -0.0862 -1.2728
  119OSM   H16T12570   0.540   2.332   9.194  2.1852  0.3748 -0.6871
  119OSM   C17S12571   0.573   2.533   9.152  0.5711  0.3940  0.7550
  119OSM   H17S12572   0.658   2.591   9.194  0.1970  0.9834  0.7129
  119OSM   H17T12573   0.483   2.596   9.139  0.0502 -0.1412  1.7374
  119OSM   C18S12574   0.629   2.473   9.021  0.2958 -0.3556  0.1131
  119OSM   H18S12575   0.541   2.428   8.969 -0.5110 -0.4086  1.4634
  119OSM   H18T12576   0.702   2.392   9.043  0.5474 -0.2398 -0.2793
  119OSM   H18U12577   0.674   2.548   8.952 -2.2434  2.0486  0.8740
  119OSM    C1F12578   0.909   2.067  10.544  0.2386  0.4396 -0.2120
  119OSM     OF12579   0.945   1.979  10.623  0.6569  0.1713  0.1330
  119OSM    C2F12580   0.979   2.090  10.408 -0.4329 -0.0236  0.0820
  119OSM    H2F12581   0.975   1.986  10.369 -0.9199 -0.0087  0.0836
  119OSM    H2G12582   1.085   2.122  10.413  0.2302 -2.0615 -0.1133
  119OSM    C3F12583   0.901   2.179  10.304 -0.1102  0.5002 -0.8669
  119OSM    H3F12584   0.904   2.288  10.321 -3.1085  0.4651  0.5706
  119OSM    H3G12585   0.795   2.147  10.303 -0.1100 -0.3176  3.2634
  119OSM    C4F12586   0.972   2.170  10.173 -0.2798  0.2651  0.6282
  119OSM    H4F12587   0.959   2.069  10.129 -1.0080 -0.8078  3.1310
  119OSM    H4G12588   1.081   2.190  10.176 -0.1628 -0.3709  0.9194
  119OSM    C5F12589   0.913   2.281  10.071  0.3018  0.3610 -0.3050
  119OSM    H5F12590   0.938   2.380  10.115  3.4899  0.0320 -1.1299
  119OSM    H5G12591   0.804   2.267  10.055  0.4134 -1.2766  0.1637
  119OSM    C6F12592   0.983   2.264   9.930  0.3175 -0.0231 -0.7767
  119OSM    H6F12593   0.963   2.166   9.884  1.8681 -1.4685  1.4275
  119OSM    H6G12594   1.089   2.255   9.960 -0.5396 -1.6548  2.2607
  119OSM    C7F12595   0.975   2.384   9.830  0.4867 -0.2985 -0.3796
  119OSM    H7F12596   0.878   2.436   9.846  0.5905 -0.4340  0.7937
  119OSM    H7G12597   0.979   2.341   9.728  2.1433  0.1778 -0.5399
  119OSM    C8F12598   1.080   2.495   9.852  0.0162  0.6892 -0.1208
  119OSM    H8F12599   1.091   2.510   9.961  2.7309 -0.1313 -0.1944
  119OSM    H8G12600   1.042   2.594   9.820 -1.2404  0.2566 -0.0058
  119OSM    C9F12601   1.212   2.464   9.786 -0.6697 -0.8786  0.5327
  119OSM    H9F12602   1.288   2.406   9.841  0.0789  0.3056  0.7864
  119OSM   C10F12603   1.256   2.488   9.665  0.2990  0.2840  0.2622
  119OSM   H10F12604   1.359   2.458   9.639  0.1444 -0.0961  0.0773
  119OSM   C11F12605   1.189   2.559   9.550 -0.4167  0.6476 -0.0758
  119OSM   H11F12606   1.265   2.628   9.509 -0.7679  1.0067 -0.1363
  119OSM   H11G12607   1.103   2.622   9.582  0.3251  1.8576 -0.4225
  119OSM   C12F12608   1.140   2.476   9.437 -0.4352  1.0159  0.3594
  119OSM   H12F12609   1.040   2.430   9.450  0.0236  0.1506  0.9752
  119OSM   H12G12610   1.215   2.396   9.420 -0.8180  1.0251 -1.6559
  119OSM   C13F12611   1.129   2.560   9.307 -0.7712  0.0230  0.9719
  119OSM   H13F12612   1.234   2.578   9.275  0.6169 -3.2954  3.0999
  119OSM   H13G12613   1.083   2.659   9.323  1.8027  1.2319  1.4124
  119OSM   C14F12614   1.060   2.487   9.194 -0.2805  0.3776 -0.6919
  119OSM   H14F12615   0.952   2.473   9.217  0.1508 -3.3916 -0.4123
  119OSM   H14G12616   1.112   2.390   9.177  3.5897  2.3348 -1.1569
  119OSM   C15F12617   1.087   2.555   9.054  1.0443 -0.4095  0.0328
  119OSM   H15F12618   1.181   2.613   9.065  1.1299 -0.7861  1.4019
  119OSM   H15G12619   0.997   2.616   9.032  1.4303 -0.1980 -1.0757
  119OSM   C16F12620   1.096   2.453   8.938 -0.2337 -0.1581 -0.4538
  119OSM   H16F12621   1.177   2.379   8.948 -0.5565 -0.5335 -0.6162
  119OSM   H16G12622   1.125   2.509   8.847 -0.2682  0.3704 -0.1497
  119OSM   C17F12623   0.970   2.384   8.908  0.2012  0.4629 -0.6346
  119OSM   H17F12624   0.877   2.442   8.924  0.5672  0.6161  1.2178
  119OSM   H17G12625   0.961   2.302   8.982 -0.1660  0.6581 -0.4624
  119OSM   C18F12626   0.965   2.334   8.760 -0.1234  0.2289  0.3639
  119OSM   H18F12627   0.890   2.253   8.760  0.5745 -0.4447 -0.7470
  119OSM   H18G12628   1.058   2.275   8.739 -0.0435 -1.0684  3.7103
  119OSM   H18H12629   0.933   2.408   8.685 -3.5943 -0.1608  1.3168
  120OSM      N12630   5.865   6.306  10.849 -0.1880 -0.3535  0.0966
  120OSM    C1512631   5.820   6.259  10.993 -0.1251 -0.1497  0.3692
  120OSM   H15A12632   5.798   6.154  10.979  0.2685 -0.1132 -0.6599
  120OSM   H15B12633   5.744   6.316  11.043 -0.7882  0.3698 -1.1830
  120OSM   H15C12634   5.907   6.258  11.058 -0.0993 -2.1190  0.3755
  120OSM    C1412635   5.991   6.244  10.808  0.5050 -0.0691 -0.1765
  120OSM   H14A12636   5.978   6.137  10.805  1.6779 -0.2024 -1.6060
  120OSM   H14B12637   6.072   6.275  10.873 -0.0637  3.5314 -0.9280
  120OSM   H14C12638   6.012   6.258  10.703 -1.2004 -0.2273 -0.5631
  120OSM    C1312639   5.741   6.267  10.769  0.0639  0.5770  0.9940
  120OSM   H13A12640   5.660   6.332  10.798  0.3953  2.1382 -1.3231
  120OSM   H13B12641   5.721   6.166  10.801  2.3926  0.5927  2.7717
  120OSM   H13C12642   5.756   6.284  10.663 -0.9598  1.0579  0.9194
  120OSM    C1212643   5.887   6.453  10.847  0.6036 -0.6736  0.6181
  120OSM   H12A12644   5.961   6.476  10.921 -1.6165 -1.2354  3.1521
  120OSM   H12B12645   5.801   6.509  10.880  1.9133  2.7275 -1.2773
  120OSM    C1112646   5.924   6.523  10.711  0.9879  0.6462 -0.4878
  120OSM   H11A12647   5.905   6.631  10.729  1.8720  0.2796  3.5785
  120OSM   H11B12648   5.856   6.479  10.635 -0.9907  1.6517  0.5947
  120OSM      P12649   6.169   6.584  10.728 -0.2104  0.2112  0.2580
  120OSM    O1312650   6.145   6.596  10.875 -0.3800 -0.2876 -0.3117
  120OSM    O1412651   6.306   6.537  10.693  0.3392 -0.1939 -0.4054
  120OSM    O1112652   6.131   6.723  10.663  0.2000  1.1054 -0.0016
  120OSM    O1212653   6.060   6.494  10.664 -0.0082  1.1532 -0.1863
  120OSM    C1S12654   6.188   6.738  10.530  0.5825  0.0355  0.0172
  120OSM    H1S12655   6.227   6.645  10.484 -3.0812 -0.3411 -2.7406
  120OSM    H1T12656   6.279   6.802  10.530  0.4571  0.2155  0.0045
  120OSM     NF12657   6.153   6.798  10.293  0.4068 -0.0992 -0.5906
  120OSM    HNF12658   6.182   6.885  10.254  0.3194 -0.1545 -0.7786
  120OSM    C2S12659   6.088   6.794  10.424  0.1557 -0.1868  0.4615
  120OSM    H2S12660   6.006   6.719  10.414 -1.1556  1.3778 -1.1263
  120OSM    C3S12661   6.021   6.930  10.466  0.4964  0.6169 -0.5985
  120OSM    H3S12662   6.093   7.013  10.484 -0.7693  1.5120  0.5593
  120OSM     O312663   5.963   6.928  10.594  0.0044  0.3725 -0.3425
  120OSM    HO312664   6.007   6.857  10.643 -1.3424 -0.3153 -0.0740
  120OSM    C4S12665   5.915   6.981  10.373  0.1589 -0.0996  0.1373
  120OSM    H4S12666   5.815   6.937  10.383  0.8948 -1.4181  2.4686
  120OSM    C5S12667   5.936   7.085  10.293  0.0639  0.1968 -0.5992
  120OSM    H5S12668   6.028   7.146  10.300 -0.0038  0.4307 -1.6635
  120OSM    C6S12669   5.821   7.129  10.214  0.1280  0.3856 -0.1315
  120OSM    H6S12670   5.846   7.234  10.187  0.7814  0.5019  0.8367
  120OSM    H6T12671   5.724   7.135  10.268  1.0731  0.5029  1.6233
  120OSM    C7S12672   5.782   7.059  10.082 -0.0216  0.2934 -0.8291
  120OSM    H7S12673   5.720   6.971  10.107 -1.1426  1.5064  0.9211
  120OSM    H7T12674   5.873   7.034  10.024  1.5456  2.3107  0.6026
  120OSM    C8S12675   5.691   7.149   9.992 -0.8799  0.0874 -1.2192
  120OSM    H8S12676   5.749   7.237   9.957 -0.6308 -0.0528 -1.1600
  120OSM    H8T12677   5.609   7.192  10.052  1.7104  0.8386  2.0200
  120OSM    C9S12678   5.648   7.083   9.868  0.2490  0.4589  0.1418
  120OSM    H9S12679   5.586   7.159   9.816 -0.9907 -1.0831 -0.7170
  120OSM    H9T12680   5.589   6.992   9.894  0.0160  0.5140 -0.1917
  120OSM   C10S12681   5.757   7.038   9.777 -0.2619 -0.5816  0.5268
  120OSM   H10S12682   5.803   6.949   9.825  3.2079 -0.3273 -1.8839
  120OSM   H10T12683   5.834   7.118   9.777  0.5973 -1.3910  0.4847
  120OSM   C11S12684   5.706   7.009   9.637 -0.9450  0.1691  0.8251
  120OSM   H11S12685   5.650   7.099   9.606 -0.6063  0.6758  1.6705
  120OSM   H11T12686   5.635   6.923   9.635  0.4146 -1.0585 -2.0875
  120OSM   C12S12687   5.805   6.974   9.530  0.6804 -0.4787  0.0964
  120OSM   H12S12688   5.859   6.879   9.553 -0.6729 -1.7143 -1.5601
  120OSM   H12T12689   5.883   7.053   9.533 -2.2798  2.7677 -1.7867
  120OSM   C13S12690   5.737   6.964   9.387 -0.1022 -0.3346 -0.5043
  120OSM   H13S12691   5.697   7.066   9.369 -0.0736  0.2344  2.2092
  120OSM   H13T12692   5.660   6.884   9.383 -2.0652  1.4420  0.0777
  120OSM   C14S12693   5.844   6.938   9.286 -0.6008  0.0355 -0.2259
  120OSM   H14S12694   5.887   6.838   9.307  0.4668 -0.2223 -3.2016
  120OSM   H14T12695   5.930   7.007   9.298  0.1713 -0.9416 -0.0531
  120OSM   C15S12696   5.802   6.962   9.146  0.1276 -0.0433  0.0363
  120OSM   H15S12697   5.883   6.971   9.071 -1.3216 -0.2530 -1.6192
  120OSM   H15T12698   5.739   7.053   9.139 -0.7364 -0.5647  0.7017
  120OSM   C16S12699   5.726   6.841   9.088  0.2282  0.7365  0.3118
  120OSM   H16S12700   5.651   6.825   9.167 -1.3761  0.1752 -1.2654
  120OSM   H16T12701   5.795   6.755   9.075  1.4321  1.6337  0.5169
  120OSM   C17S12702   5.650   6.849   8.957 -0.0413  0.2334 -0.4108
  120OSM   H17S12703   5.571   6.923   8.980  1.5765  1.6479  0.9093
  120OSM   H17T12704   5.607   6.751   8.930 -0.4889  0.1565  0.5353
  120OSM   C18S12705   5.741   6.917   8.847  0.2010 -0.6126 -0.1372
  120OSM   H18S12706   5.679   6.941   8.758 -1.3671 -0.5393  0.9272
  120OSM   H18T12707   5.833   6.860   8.821  0.4163  0.5763 -2.2596
  120OSM   H18U12708   5.780   7.018   8.871 -0.3129 -0.4794  0.1390
  120OSM    C1F12709   6.185   6.695  10.220  0.6442 -0.0307 -0.2440
  120OSM     OF12710   6.186   6.577  10.255  0.2750  0.6221 -0.5781
  120OSM    C2F12711   6.233   6.717  10.077  0.6760 -0.4076 -0.2623
  120OSM    H2F12712   6.301   6.804  10.081 -1.5229  1.3397  1.7872
  120OSM    H2G12713   6.149   6.746  10.009  0.2010 -0.5498  0.2555
  120OSM    C3F12714   6.323   6.611  10.006  0.9018  0.0563 -0.3162
  120OSM    H3F12715   6.283   6.508  10.023 -0.0786  0.8305  2.7434
  120OSM    H3G12716   6.425   6.614  10.049  0.7682 -0.2192  0.0217
  120OSM    C4F12717   6.334   6.637   9.850  0.6272 -0.0527 -0.6302
  120OSM    H4F12718   6.403   6.560   9.810 -0.4372 -1.1964 -0.3383
  120OSM    H4G12719   6.377   6.738   9.835  2.0079 -0.7837 -1.8152
  120OSM    C5F12720   6.202   6.615   9.782 -0.5206  0.5565 -0.0432
  120OSM    H5F12721   6.141   6.707   9.797 -0.3847  0.8481 -1.1852
  120OSM    H5G12722   6.153   6.523   9.820 -1.2173  0.2555 -1.5759
  120OSM    C6F12723   6.221   6.596   9.632  0.5436  0.4080 -0.4438
  120OSM    H6F12724   6.292   6.511   9.624 -1.2274 -1.1300 -0.5150
  120OSM    H6G12725   6.251   6.692   9.586  1.6297  0.2365 -0.1105
  120OSM    C7F12726   6.091   6.546   9.568 -0.0356 -0.3053 -1.2480
  120OSM    H7F12727   6.014   6.626   9.573  1.2857  1.0080 -1.1242
  120OSM    H7G12728   6.053   6.458   9.624  2.2337  0.2243  1.3540
  120OSM    C8F12729   6.118   6.514   9.415  0.2400 -0.1183  0.3622
  120OSM    H8F12730   6.014   6.488   9.388  0.8696 -1.3467 -1.0223
  120OSM    H8G12731   6.191   6.431   9.425  1.6069  1.1391  1.3581
  120OSM    C9F12732   6.169   6.632   9.334 -0.1698 -0.1717  0.2539
  120OSM    H9F12733   6.237   6.698   9.389 -1.6171  0.8653  0.8636
  120OSM   C10F12734   6.134   6.671   9.204 -0.8350  0.2156 -0.0989
  120OSM   H10F12735   6.180   6.761   9.161 -0.4312 -0.2339 -0.6180
  120OSM   C11F12736   6.046   6.595   9.108  0.1183 -0.3783  0.7634
  120OSM   H11F12737   5.941   6.593   9.143  0.1433 -1.2663  0.7984
  120OSM   H11G12738   6.079   6.489   9.106 -1.0559 -0.7473  0.7227
  120OSM   C12F12739   6.038   6.649   8.965  0.4104 -0.3528  0.5147
  120OSM   H12F12740   6.017   6.758   8.970  0.3036 -0.3976  1.1983
  120OSM   H12G12741   5.951   6.604   8.912  0.8615  0.2124 -0.7402
  120OSM   C13F12742   6.163   6.617   8.889  0.8259 -0.1491 -0.2251
  120OSM   H13F12743   6.167   6.513   8.850  1.2948  0.1997 -1.1502
  120OSM   H13G12744   6.239   6.624   8.970  0.0497  0.5746  0.4660
  120OSM   C14F12745   6.198   6.717   8.776 -0.6020 -0.8108  0.2616
  120OSM   H14F12746   6.305   6.702   8.750 -0.8560 -2.3225 -0.0471
  120OSM   H14G12747   6.201   6.817   8.822  0.2144 -0.4881 -0.4637
  120OSM   C15F12748   6.101   6.714   8.658 -0.4818  0.1024 -0.2647
  120OSM   H15F12749   5.999   6.737   8.695 -2.3557 -2.7513 -3.1564
  120OSM   H15G12750   6.072   6.615   8.618  0.0548 -0.2024  0.0899
  120OSM   C16F12751   6.126   6.791   8.531  0.8694 -0.3512 -0.2844
  120OSM   H16F12752   6.117   6.898   8.561 -1.1550 -0.6064  0.1875
  120OSM   H16G12753   6.044   6.773   8.457  0.5081  2.6642 -0.7581
  120OSM   C17F12754   6.265   6.771   8.466 -0.2976  0.0122 -0.0758
  120OSM   H17F12755   6.276   6.661   8.466  2.7839  0.2303  0.5465
  120OSM   H17G12756   6.351   6.806   8.526  1.3005 -0.6040 -1.9054
  120OSM   C18F12757   6.281   6.828   8.325  0.2570  0.0648 -0.0450
  120OSM   H18F12758   6.387   6.813   8.295  0.5701 -0.1319  1.1070
  120OSM   H18G12759   6.260   6.934   8.299 -1.2205 -0.5454 -1.5211
  120OSM   H18H12760   6.213   6.762   8.267  1.9678 -1.8010 -0.0300
  121OSM      N12761   5.360   2.831  11.581  0.2537  0.4847  0.7915
  121OSM    C1512762   5.243   2.731  11.567 -0.0767 -0.0516  0.4233
  121OSM   H15A12763   5.207   2.715  11.467  1.7964 -1.0198 -0.1483
  121OSM   H15B12764   5.167   2.765  11.636 -0.8758 -1.8189  0.4720
  121OSM   H15C12765   5.283   2.637  11.601  1.2776  0.4168  0.2178
  121OSM    C1412766   5.302   2.970  11.586  0.5158 -0.2216 -0.3597
  121OSM   H14A12767   5.378   3.039  11.617  0.4538 -1.2837  2.4854
  121OSM   H14B12768   5.224   2.976  11.660  1.3779  1.0194  0.4682
  121OSM   H14C12769   5.252   3.001  11.495 -2.4612  1.0855  1.5742
  121OSM    C1312770   5.438   2.800  11.703 -0.2122  0.2089  0.0587
  121OSM   H13A12771   5.385   2.753  11.784 -0.7905 -1.7329 -1.3747
  121OSM   H13B12772   5.489   2.887  11.742  0.8832 -0.0240 -0.8044
  121OSM   H13C12773   5.524   2.737  11.689  0.6631  1.1939  0.8790
  121OSM    C1212774   5.450   2.821  11.462  0.0291  0.3905  0.0517
  121OSM   H12A12775   5.482   2.718  11.458  2.9609  1.2554 -1.0063
  121OSM   H12B12776   5.539   2.877  11.486 -0.3439  1.5286 -1.1266
  121OSM    C1112777   5.397   2.864  11.326 -0.2910 -0.0730 -0.3381
  121OSM   H11A12778   5.487   2.861  11.262 -0.5714  0.4853 -0.7705
  121OSM   H11B12779   5.367   2.971  11.325  1.6215  0.4944 -1.8757
  121OSM      P12780   5.276   2.649  11.218 -0.4807  0.1375  0.2301
  121OSM    O1312781   5.337   2.551  11.311 -0.4204  0.0550  0.2479
  121OSM    O1412782   5.140   2.632  11.172 -0.1786  0.1317 -0.3912
  121OSM    O1112783   5.364   2.660  11.090  0.0955 -0.2929 -0.2149
  121OSM    O1212784   5.288   2.792  11.286  0.9683  0.1979  0.1553
  121OSM    C1S12785   5.393   2.537  11.014 -0.5198 -0.4482  0.9825
  121OSM    H1S12786   5.312   2.509  10.944 -0.0883 -2.3245  1.1745
  121OSM    H1T12787   5.412   2.449  11.080 -0.4269 -1.5142 -0.4167
  121OSM     NF12788   5.515   2.452  10.815  0.1318  0.0012  0.1636
  121OSM    HNF12789   5.573   2.371  10.818 -1.5755 -1.2386  1.0382
  121OSM    C2S12790   5.513   2.556  10.917 -0.6931  0.5940  0.1320
  121OSM    H2S12791   5.497   2.656  10.872 -0.8611  0.2001 -0.6945
  121OSM    C3S12792   5.644   2.561  10.991 -0.4982 -1.2453  0.1887
  121OSM    H3S12793   5.648   2.472  11.058  0.8105 -1.3912 -0.0509
  121OSM     O312794   5.642   2.665  11.091 -0.6237  0.1725 -0.2309
  121OSM    HO312795   5.546   2.675  11.091 -0.4330  2.6959 -1.1159
  121OSM    C4S12796   5.760   2.584  10.900 -0.1088 -0.5593 -0.0964
  121OSM    H4S12797   5.774   2.688  10.869  1.1415 -0.1180  1.7857
  121OSM    C5S12798   5.859   2.499  10.851  0.1327 -0.5181 -0.4184
  121OSM    H5S12799   5.866   2.392  10.876  5.2201 -0.7386 -1.8171
  121OSM    C6S12800   5.954   2.537  10.744 -0.2318 -0.9279  0.0223
  121OSM    H6S12801   6.054   2.499  10.771 -0.2203 -2.4163 -1.8666
  121OSM    H6T12802   5.973   2.645  10.723  2.2914 -1.1444  0.8440
  121OSM    C7S12803   5.904   2.480  10.610  0.4255  0.1888 -0.9385
  121OSM    H7S12804   5.801   2.514  10.588 -0.3900 -0.9513  0.9426
  121OSM    H7T12805   5.881   2.374  10.631  1.7181 -0.2095 -1.4503
  121OSM    C8S12806   6.004   2.475  10.494  0.2161  0.5935  0.1932
  121OSM    H8S12807   6.098   2.418  10.508 -0.6150 -0.8946 -0.0981
  121OSM    H8T12808   6.035   2.582  10.486 -0.6913  0.7116 -2.8034
  121OSM    C9S12809   5.937   2.440  10.364 -0.3192  0.0239 -0.3437
  121OSM    H9S12810   5.845   2.501  10.347  0.6038  1.9881  1.2557
  121OSM    H9T12811   5.896   2.337  10.375 -1.8313  0.6967  0.7446
  121OSM   C10S12812   6.028   2.460  10.244 -0.4159 -0.4737 -0.1311
  121OSM   H10S12813   6.125   2.413  10.269 -0.9398 -1.1006  0.7872
  121OSM   H10T12814   6.038   2.570  10.234  0.1578 -0.0125  3.9011
  121OSM   C11S12815   5.971   2.390  10.123  0.1939 -0.7258 -0.0358
  121OSM   H11S12816   5.865   2.418  10.105 -0.3825 -1.3358  2.0501
  121OSM   H11T12817   5.972   2.282  10.147  3.2666 -0.9341 -0.7995
  121OSM   C12S12818   6.066   2.417   9.999  0.7089  0.0830 -0.7292
  121OSM   H12S12819   6.173   2.394  10.022 -0.0491  0.6316  4.4124
  121OSM   H12T12820   6.056   2.527   9.987 -0.3154  0.2414  1.2137
  121OSM   C13S12821   6.025   2.333   9.879 -0.2031 -0.6407 -0.1332
  121OSM   H13S12822   5.918   2.355   9.863  0.2388 -0.1221 -2.6961
  121OSM   H13T12823   6.039   2.225   9.905  1.2826 -0.3499  0.3522
  121OSM   C14S12824   6.099   2.372   9.752  0.2846  0.5658 -0.6301
  121OSM   H14S12825   6.200   2.327   9.767 -0.6990 -1.5917 -0.1075
  121OSM   H14T12826   6.108   2.482   9.759  1.3567  0.5435 -1.3364
  121OSM   C15S12827   6.023   2.337   9.621 -0.2994 -0.8737  0.5577
  121OSM   H15S12828   5.924   2.387   9.625 -0.2367 -0.7707  3.1904
  121OSM   H15T12829   5.999   2.229   9.610  0.6483 -1.3038  2.3320
  121OSM   C16S12830   6.109   2.373   9.500 -0.2335  0.8115  0.0407
  121OSM   H16S12831   6.210   2.328   9.508  0.3852  1.7708 -1.6835
  121OSM   H16T12832   6.102   2.484   9.493  0.0168  0.9013  1.0667
  121OSM   C17S12833   6.035   2.337   9.375  0.3431  0.5520 -0.5142
  121OSM   H17S12834   5.947   2.403   9.363 -0.2993  0.0094  0.9665
  121OSM   H17T12835   5.996   2.233   9.372  2.2704 -0.2079 -0.6580
  121OSM   C18S12836   6.125   2.351   9.250 -0.3751  0.4182  0.5514
  121OSM   H18S12837   6.222   2.298   9.261  1.0316  2.8086  0.4050
  121OSM   H18T12838   6.150   2.459   9.245 -1.0071  0.5564  0.3669
  121OSM   H18U12839   6.079   2.326   9.153  0.6448  2.1477 -0.4317
  121OSM    C1F12840   5.438   2.456  10.712 -0.2936  0.1817 -0.3274
  121OSM     OF12841   5.347   2.535  10.702  0.0270  0.0669 -0.1026
  121OSM    C2F12842   5.453   2.346  10.614  0.9252 -0.0295  0.3242
  121OSM    H2F12843   5.467   2.250  10.669  2.5559  0.3489  0.6183
  121OSM    H2G12844   5.543   2.355  10.551  1.0081 -1.2214  0.2459
  121OSM    C3F12845   5.331   2.345  10.519  0.4408 -0.2781 -0.0193
  121OSM    H3F12846   5.301   2.445  10.484  0.8629 -0.7509 -1.8426
  121OSM    H3G12847   5.249   2.298  10.577  0.6959 -1.1672 -0.3589
  121OSM    C4F12848   5.356   2.244  10.390 -0.1690 -0.2501  0.3448
  121OSM    H4F12849   5.360   2.138  10.420  2.4240 -0.4702 -0.4859
  121OSM    H4G12850   5.461   2.272  10.364 -0.3900  0.0261 -0.2700
  121OSM    C5F12851   5.260   2.271  10.272  0.1410 -1.4447 -0.3341
  121OSM    H5F12852   5.260   2.380  10.248  1.0556 -0.9548  1.6499
  121OSM    H5G12853   5.155   2.248  10.299  0.5678  0.1699  3.2570
  121OSM    C6F12854   5.315   2.180  10.156  0.0041 -0.4708  0.3580
  121OSM    H6F12855   5.341   2.076  10.186 -1.1427 -0.5173  1.2984
  121OSM    H6G12856   5.403   2.232  10.112  1.2063 -1.6858  1.2396
  121OSM    C7F12857   5.214   2.168  10.042  0.8344  0.3622 -0.4620
  121OSM    H7F12858   5.173   2.271  10.028 -0.0690  0.1443  0.3972
  121OSM    H7G12859   5.127   2.101  10.062 -1.5687  3.2731 -0.4051
  121OSM    C8F12860   5.279   2.121   9.912  0.8058  0.0151  0.5281
  121OSM    H8F12861   5.326   2.022   9.933  0.5437 -0.0421  0.8518
  121OSM    H8G12862   5.355   2.198   9.886 -0.7773  2.0940  1.7931
  121OSM    C9F12863   5.174   2.097   9.797 -0.5967  0.4214 -0.2525
  121OSM    H9F12864   5.089   2.039   9.835  0.1840 -0.9336 -0.5248
  121OSM   C10F12865   5.185   2.136   9.672 -0.9402  0.1445  0.3897
  121OSM   H10F12866   5.109   2.101   9.602 -0.8408  1.3245 -0.3388
  121OSM   C11F12867   5.306   2.191   9.601  0.6240 -0.3475 -0.0674
  121OSM   H11F12868   5.389   2.198   9.675  0.1274 -1.3088  0.6001
  121OSM   H11G12869   5.291   2.294   9.561 -2.1995 -1.4636 -2.2511
  121OSM   C12F12870   5.365   2.111   9.484  0.9687  0.5275  0.5005
  121OSM   H12F12871   5.288   2.106   9.404 -1.1365  2.1081  2.3089
  121OSM   H12G12872   5.402   2.011   9.516  2.0279  0.8579  0.3665
  121OSM   C13F12873   5.494   2.168   9.415  0.5628  0.2286  0.3342
  121OSM   H13F12874   5.574   2.202   9.485  0.0426  0.7550  0.6813
  121OSM   H13G12875   5.467   2.266   9.371  3.1533  1.7507  1.8852
  121OSM   C14F12876   5.537   2.067   9.307 -0.7105 -0.0318  0.3693
  121OSM   H14F12877   5.451   2.031   9.247  0.0544 -0.9343 -0.2145
  121OSM   H14G12878   5.587   1.982   9.358  0.1139  0.6729  0.7713
  121OSM   C15F12879   5.639   2.142   9.213 -0.1474 -0.0032 -0.2467
  121OSM   H15F12880   5.721   2.185   9.274  2.0658 -1.1830 -2.2432
  121OSM   H15G12881   5.581   2.228   9.174  0.7906 -0.1956 -2.1649
  121OSM   C16F12882   5.697   2.053   9.107 -0.2611  0.3248 -0.4516
  121OSM   H16F12883   5.620   1.995   9.053 -0.0815  0.5228 -0.9270
  121OSM   H16G12884   5.758   1.978   9.161  0.0928  1.2716  0.4876
  121OSM   C17F12885   5.782   2.137   9.020  0.2739 -0.2963 -0.7627
  121OSM   H17F12886   5.860   2.185   9.082  0.4155  1.4211 -2.1818
  121OSM   H17G12887   5.727   2.228   8.986  1.3686 -0.1400 -2.2221
  121OSM   C18F12888   5.828   2.064   8.894 -0.3125 -0.2700  0.3623
  121OSM   H18F12889   5.904   2.125   8.841 -0.6037 -0.6978 -0.5510
  121OSM   H18G12890   5.749   2.041   8.820  0.6313  1.2692 -1.1880
  121OSM   H18H12891   5.865   1.967   8.932  1.1554  1.2326  3.0951
  122OSM      N12892   0.407   5.754  11.154  0.5697 -0.0142 -0.2972
  122OSM    C1512893   0.312   5.845  11.078  0.0397  0.2702 -0.3808
  122OSM   H15A12894   0.376   5.895  11.006 -1.0262  1.2212 -0.6892
  122OSM   H15B12895   0.271   5.906  11.158  0.4951 -2.6795  2.3016
  122OSM   H15C12896   0.221   5.800  11.043 -0.0782 -0.8913  1.2799
  122OSM    C1412897   0.316   5.697  11.258 -0.0568 -0.3165  0.1098
  122OSM   H14A12898   0.241   5.633  11.214  1.2609 -0.5769 -1.8778
  122OSM   H14B12899   0.273   5.771  11.324  1.9711  0.1882  0.9277
  122OSM   H14C12900   0.374   5.635  11.325  0.4835 -2.6114 -2.2984
  122OSM    C1312901   0.447   5.641  11.062 -0.1776 -0.2464  0.0418
  122OSM   H13A12902   0.495   5.670  10.970  1.4077 -0.2093  0.8486
  122OSM   H13B12903   0.375   5.570  11.026 -1.4145  1.4485 -0.9920
  122OSM   H13C12904   0.516   5.576  11.114 -1.7556 -1.4549  0.7050
  122OSM    C1212905   0.529   5.816  11.218 -0.1468  0.1703  0.1303
  122OSM   H12A12906   0.573   5.740  11.279  3.8777  0.1340 -2.4118
  122OSM   H12B12907   0.506   5.901  11.281 -0.8339  1.6854 -2.0226
  122OSM    C1112908   0.647   5.846  11.122  0.1189 -0.7841 -0.2124
  122OSM   H11A12909   0.687   5.751  11.081  1.9156  0.3250 -1.1898
  122OSM   H11B12910   0.731   5.890  11.180 -0.9446  2.1551 -0.7152
  122OSM      P12911   0.614   6.097  11.040 -0.2198  0.1008 -0.1439
  122OSM    O1312912   0.504   6.162  10.970 -0.7401 -0.0574 -0.3876
  122OSM    O1412913   0.630   6.133  11.182 -0.0264 -0.2704 -0.3232
  122OSM    O1112914   0.751   6.126  10.966  0.4585  0.3607 -0.2892
  122OSM    O1212915   0.602   5.935  11.017  0.4095 -0.7474 -0.1087
  122OSM    C1S12916   0.815   6.052  10.860 -0.3859 -0.8071 -0.3032
  122OSM    H1S12917   0.786   5.944  10.856 -3.3036 -0.0817 -2.0266
  122OSM    H1T12918   0.922   6.059  10.889 -0.2939 -4.0152  0.5122
  122OSM     NF12919   0.852   6.019  10.616  0.7941  0.3475  0.6364
  122OSM    HNF12920   0.926   6.043  10.553  1.6384 -1.3217  0.9508
  122OSM    C2S12921   0.801   6.113  10.723 -0.1947 -0.3966 -0.1446
  122OSM    H2S12922   0.691   6.109  10.712 -0.5225  0.9967  2.1151
  122OSM    C3S12923   0.867   6.254  10.714  0.3717 -0.4525  1.0894
  122OSM    H3S12924   0.977   6.242  10.723  0.5941  1.7149  1.6039
  122OSM     O312925   0.829   6.334  10.828  0.1972  0.2132  0.0283
  122OSM    HO312926   0.798   6.270  10.892 -0.3993  0.0673 -0.4121
  122OSM    C4S12927   0.822   6.325  10.589 -0.3504 -1.0124  0.4656
  122OSM    H4S12928   0.716   6.353  10.593 -0.8220 -2.3179 -1.3988
  122OSM    C5S12929   0.900   6.373  10.493  0.7357  0.8847  0.0880
  122OSM    H5S12930   1.008   6.355  10.503  0.4324 -1.1002  0.1859
  122OSM    C6S12931   0.853   6.442  10.365 -0.4040 -0.1957 -0.2393
  122OSM    H6S12932   0.891   6.388  10.276 -1.3603 -0.8521 -0.2678
  122OSM    H6T12933   0.910   6.537  10.357 -2.3894  1.0903  0.3265
  122OSM    C7S12934   0.704   6.469  10.333  0.6166 -0.3095 -0.0940
  122OSM    H7S12935   0.652   6.516  10.420 -2.3231 -0.7769 -1.4691
  122OSM    H7T12936   0.645   6.377  10.311 -0.1510 -0.0262  0.7255
  122OSM    C8S12937   0.686   6.565  10.212  0.2583 -0.3162 -0.0319
  122OSM    H8S12938   0.752   6.512  10.141  1.4966 -0.4070  1.1382
  122OSM    H8T12939   0.737   6.663  10.230 -2.0001  0.6435  1.6098
  122OSM    C9S12940   0.546   6.602  10.166  0.7600 -0.4837  0.4449
  122OSM    H9S12941   0.502   6.679  10.232 -0.6783 -0.4630 -0.4888
  122OSM    H9T12942   0.478   6.514  10.172 -0.3696  0.2927 -0.5506
  122OSM   C10S12943   0.523   6.653  10.019 -0.8622  0.1667 -0.3894
  122OSM   H10S12944   0.599   6.733  10.006  0.7438 -1.2903 -0.3260
  122OSM   H10T12945   0.419   6.693  10.012  0.0730  2.6829 -0.9531
  122OSM   C11S12946   0.561   6.533   9.924 -0.4594 -0.7259 -0.2246
  122OSM   H11S12947   0.514   6.443   9.969 -0.1519 -0.6524  0.2425
  122OSM   H11T12948   0.669   6.509   9.935 -0.4302  0.0166  1.3260
  122OSM   C12S12949   0.529   6.560   9.775 -0.0731  0.4721  0.1728
  122OSM   H12S12950   0.571   6.657   9.741  0.3641  1.1694  2.5201
  122OSM   H12T12951   0.419   6.572   9.776 -0.0923  0.3194  0.9455
  122OSM   C13S12952   0.559   6.441   9.681 -0.4322  0.2600 -0.4112
  122OSM   H13S12953   0.487   6.367   9.722  1.7055 -2.2056 -0.8271
  122OSM   H13T12954   0.662   6.403   9.695 -0.5166  0.7221  1.8112
  122OSM   C14S12955   0.533   6.465   9.532 -0.0296  0.5043 -0.4108
  122OSM   H14S12956   0.615   6.531   9.497  1.1033 -0.8857 -0.4339
  122OSM   H14T12957   0.431   6.508   9.522 -1.1485 -1.9241 -0.0029
  122OSM   C15S12958   0.517   6.332   9.454  0.3652  0.3692  0.2253
  122OSM   H15S12959   0.450   6.256   9.499 -0.5126 -0.2109 -1.9587
  122OSM   H15T12960   0.618   6.285   9.462  1.1700  1.6885 -1.4467
  122OSM   C16S12961   0.478   6.346   9.302 -0.5396  0.1996 -0.9361
  122OSM   H16S12962   0.553   6.418   9.263  1.5655 -0.3637  1.7416
  122OSM   H16T12963   0.380   6.398   9.304  0.8851  3.0848  0.6755
  122OSM   C17S12964   0.460   6.208   9.236 -0.6779  0.3323  0.5636
  122OSM   H17S12965   0.386   6.145   9.290 -0.2900 -0.6115  0.0129
  122OSM   H17T12966   0.556   6.152   9.237 -0.6411  0.3483 -0.8260
  122OSM   C18S12967   0.403   6.217   9.090 -0.5012  0.1247  0.3805
  122OSM   H18S12968   0.403   6.116   9.045  1.9487  0.3944 -0.3785
  122OSM   H18T12969   0.474   6.281   9.034  1.3372 -2.3653 -0.2919
  122OSM   H18U12970   0.307   6.272   9.078  1.0160  3.1203  1.1316
  122OSM    C1F12971   0.786   5.905  10.596 -0.2414 -0.6946  0.7201
  122OSM     OF12972   0.668   5.901  10.617 -0.1554  0.1910 -1.2169
  122OSM    C2F12973   0.861   5.790  10.534  0.0176 -0.3493 -0.9133
  122OSM    H2F12974   0.884   5.712  10.609 -1.6213 -0.4127 -0.4508
  122OSM    H2G12975   0.963   5.823  10.505  0.4584 -0.7334  0.1620
  122OSM    C3F12976   0.802   5.710  10.416  0.0086  0.1917  0.8376
  122OSM    H3F12977   0.772   5.782  10.338  0.2425  1.0744  1.5400
  122OSM    H3G12978   0.712   5.652  10.448 -0.8403  1.4918  0.8489
  122OSM    C4F12979   0.906   5.603  10.373  0.0908 -0.7990  0.1974
  122OSM    H4F12980   0.965   5.549  10.451 -0.4055 -0.0668  1.1018
  122OSM    H4G12981   0.988   5.652  10.317  0.3829  0.3233  1.5737
  122OSM    C5F12982   0.845   5.495  10.285 -0.4428 -0.4864 -0.2297
  122OSM    H5F12983   0.759   5.446  10.335 -1.4295  0.3982 -1.0292
  122OSM    H5G12984   0.921   5.415  10.270 -0.3284 -0.2582 -0.9045
  122OSM    C6F12985   0.809   5.541  10.143 -0.3335 -0.3675  0.4600
  122OSM    H6F12986   0.896   5.593  10.100  0.1932 -1.1416  0.5647
  122OSM    H6G12987   0.727   5.616  10.151  2.2858  2.4978  3.1159
  122OSM    C7F12988   0.780   5.424  10.051 -0.1474  0.1148 -0.0186
  122OSM    H7F12989   0.682   5.384  10.086 -1.2092  1.5391 -1.2277
  122OSM    H7G12990   0.855   5.342  10.055 -0.2636  0.0386  1.3001
  122OSM    C8F12991   0.743   5.464   9.909  0.5023  0.3430  0.5400
  122OSM    H8F12992   0.832   5.511   9.862 -0.9790  2.5655 -0.1556
  122OSM    H8G12993   0.667   5.545   9.909  1.3125  1.1198 -0.0022
  122OSM    C9F12994   0.686   5.343   9.839  0.2402 -0.5360  0.0614
  122OSM    H9F12995   0.610   5.291   9.899  0.0473  0.3993  0.6533
  122OSM   C10F12996   0.719   5.289   9.718 -0.2566 -0.3226 -0.0373
  122OSM   H10F12997   0.665   5.201   9.680 -0.2869 -0.3118 -0.0202
  122OSM   C11F12998   0.822   5.350   9.623  0.6459  0.9114 -0.3226
  122OSM   H11F12999   0.922   5.311   9.651  0.0733 -0.8463 -0.5687
  122OSM   H11G13000   0.835   5.460   9.632  0.3922  1.0116 -1.0611
  122OSM   C12F13001   0.803   5.326   9.473  0.2944 -0.1553  0.2258
  122OSM   H12F13002   0.824   5.221   9.444  0.1888  0.1829 -1.1167
  122OSM   H12G13003   0.888   5.382   9.427 -1.7526  1.7745 -1.4318
  122OSM   C13F13004   0.677   5.378   9.402  0.5185 -0.1026 -0.4139
  122OSM   H13F13005   0.657   5.486   9.412 -1.7595 -0.4737 -0.2736
  122OSM   H13G13006   0.589   5.343   9.459 -1.2580  3.1410 -0.9288
  122OSM   C14F13007   0.663   5.332   9.257 -0.0807  0.1545 -0.2658
  122OSM   H14F13008   0.559   5.359   9.230 -0.7297  0.5748  2.3942
  122OSM   H14G13009   0.669   5.222   9.276 -0.5950  0.4164  1.6532
  122OSM   C15F13010   0.766   5.386   9.169  0.2541  0.3091  0.8614
  122OSM   H15F13011   0.865   5.393   9.218  1.4862 -1.5322 -1.2077
  122OSM   H15G13012   0.744   5.488   9.131 -2.2937 -1.2067 -2.2112
  122OSM   C16F13013   0.781   5.300   9.033  0.1783 -0.1763 -0.4406
  122OSM   H16F13014   0.695   5.338   8.973 -0.4592 -0.4711  0.2664
  122OSM   H16G13015   0.790   5.190   9.042 -0.3330 -0.2969 -1.2479
  122OSM   C17F13016   0.911   5.328   8.952 -0.3090 -0.5594 -0.5956
  122OSM   H17F13017   0.993   5.268   8.996 -0.1398  0.9797  1.2930
  122OSM   H17G13018   0.956   5.429   8.967 -0.2240 -0.3556 -2.0283
  122OSM   C18F13019   0.894   5.310   8.800  0.1395 -0.4274 -0.4079
  122OSM   H18F13020   0.842   5.214   8.783 -0.3399  0.1063 -2.2329
  122OSM   H18G13021   0.998   5.300   8.760  1.7005 -1.2188  3.4111
  122OSM   H18H13022   0.848   5.396   8.747  3.3939  1.0149 -1.1680
  123OSM      N13023   4.668   6.369   6.050 -0.1561 -0.3630 -0.5674
  123OSM    C1513024   4.809   6.392   6.091  1.1065  0.4058  0.4530
  123OSM   H15A13025   4.875   6.310   6.064  1.3212  0.9938 -0.8950
  123OSM   H15B13026   4.831   6.394   6.197  2.8279 -0.4525  0.1570
  123OSM   H15C13027   4.852   6.479   6.045  1.6238  1.0554  2.0943
  123OSM    C1413028   4.601   6.495   6.091 -0.4150 -0.1642  0.4219
  123OSM   H14A13029   4.505   6.480   6.044  0.1080  0.9027 -1.0648
  123OSM   H14B13030   4.655   6.583   6.059  1.2402 -0.6607  1.7029
  123OSM   H14C13031   4.586   6.499   6.198  0.1435 -1.0353  0.5346
  123OSM    C1313032   4.666   6.364   5.901 -0.0751 -0.3861 -0.5734
  123OSM   H13A13033   4.690   6.463   5.863 -2.0339 -0.0303 -1.0012
  123OSM   H13B13034   4.573   6.333   5.855 -0.8813  2.6901 -1.2801
  123OSM   H13C13035   4.733   6.288   5.866  0.2397 -0.6831  0.6477
  123OSM    C1213036   4.614   6.241   6.119 -0.0734 -0.2604  0.2959
  123OSM   H12A13037   4.508   6.240   6.096  0.1363  0.5905 -0.7670
  123OSM   H12B13038   4.616   6.260   6.226 -0.3782  0.8640  0.1206
  123OSM    C1113039   4.691   6.115   6.083  0.0896  0.1326  0.0325
  123OSM   H11A13040   4.799   6.127   6.103  0.4630  0.5343 -1.9953
  123OSM   H11B13041   4.691   6.094   5.974  0.1734 -0.9448  0.2275
  123OSM      P13042   4.646   5.961   6.312  0.1363  0.1314  0.2769
  123OSM    O1313043   4.522   5.876   6.335  0.8619 -0.5813 -0.1167
  123OSM    O1413044   4.774   5.898   6.333  0.7422  0.5627  0.1250
  123OSM    O1113045   4.648   6.088   6.395  0.5204 -0.2989 -0.1176
  123OSM    O1213046   4.637   6.005   6.158 -0.3500  0.3599  0.5478
  123OSM    C1S13047   4.646   6.084   6.536 -0.5978 -0.3262 -0.3799
  123OSM    H1S13048   4.644   5.984   6.585 -0.9988  0.3705  1.0614
  123OSM    H1T13049   4.547   6.120   6.572 -1.1551 -2.6697  0.6223
  123OSM     NF13050   4.743   6.166   6.750  0.2495  0.2698  0.2045
  123OSM    HNF13051   4.691   6.235   6.800  0.2097 -0.4931  1.2611
  123OSM    C2S13052   4.747   6.186   6.611  0.0581 -0.3026  0.5720
  123OSM    H2S13053   4.847   6.160   6.568 -0.2090 -2.1387  0.9597
  123OSM    C3S13054   4.720   6.330   6.567  0.8463 -0.4351 -0.3830
  123OSM    H3S13055   4.626   6.364   6.614  1.1672 -0.1415  0.0641
  123OSM     O313056   4.711   6.354   6.422  0.6617 -0.0602 -0.2668
  123OSM    HO313057   4.714   6.263   6.392  1.9569 -0.1117 -0.0332
  123OSM    C4S13058   4.826   6.419   6.630  0.6723  0.4561 -0.3212
  123OSM    H4S13059   4.920   6.414   6.572  1.6330 -1.1776  1.2927
  123OSM    C5S13060   4.818   6.501   6.738  0.2705  0.9064 -1.0918
  123OSM    H5S13061   4.722   6.508   6.793  0.8576 -1.0019  0.2727
  123OSM    C6S13062   4.930   6.594   6.788 -0.2326  0.6418  0.6581
  123OSM    H6S13063   4.914   6.700   6.760  0.0094 -0.0762 -2.6608
  123OSM    H6T13064   5.026   6.565   6.741 -1.0786 -1.3907  0.0485
  123OSM    C7S13065   4.956   6.578   6.941 -0.2620 -0.4113 -0.1933
  123OSM    H7S13066   4.996   6.477   6.961  1.0305  0.4704  2.0365
  123OSM    H7T13067   4.865   6.600   7.001  1.9998  0.9035  3.0560
  123OSM    C8S13068   5.057   6.690   6.963 -0.1841 -0.3145  0.1373
  123OSM    H8S13069   5.015   6.788   6.933  0.5849  0.6436  2.0206
  123OSM    H8T13070   5.149   6.676   6.903  1.3796 -2.3210  2.7667
  123OSM    C9S13071   5.083   6.707   7.115 -0.8551 -0.1783  0.3063
  123OSM    H9S13072   5.001   6.751   7.177  0.8681  2.5163  0.8331
  123OSM    H9T13073   5.153   6.792   7.106 -1.5116  0.3518  0.1257
  123OSM   C10S13074   5.152   6.590   7.188  0.4064  0.1365  0.2399
  123OSM   H10S13075   5.245   6.571   7.131  0.4140  1.7831 -0.3323
  123OSM   H10T13076   5.088   6.499   7.186  0.9762 -0.2975  0.9138
  123OSM   C11S13077   5.197   6.616   7.328 -0.4472 -0.5950 -0.4221
  123OSM   H11S13078   5.268   6.702   7.324 -1.4882  0.3822  1.0163
  123OSM   H11T13079   5.254   6.528   7.365 -0.1526 -0.2516 -0.0422
  123OSM   C12S13080   5.083   6.631   7.435 -1.2345  0.3947 -0.5096
  123OSM   H12S13081   5.031   6.536   7.459 -0.7622  0.0346 -0.8959
  123OSM   H12T13082   5.016   6.714   7.403 -1.9475 -0.0922 -0.2831
  123OSM   C13S13083   5.130   6.676   7.577  0.2386  0.2567 -0.1516
  123OSM   H13S13084   5.032   6.696   7.626  0.0806 -0.2780 -0.2442
  123OSM   H13T13085   5.193   6.766   7.557 -0.0099  1.0158  2.1582
  123OSM   C14S13086   5.216   6.573   7.651  0.3164 -0.6437 -0.4394
  123OSM   H14S13087   5.296   6.541   7.581 -0.7305  0.8692 -2.4276
  123OSM   H14T13088   5.164   6.476   7.664  0.6367 -0.8154 -0.4247
  123OSM   C15S13089   5.283   6.626   7.784 -0.1836  0.4049  0.1080
  123OSM   H15S13090   5.336   6.717   7.747  1.7892 -0.6756  0.1557
  123OSM   H15T13091   5.363   6.552   7.805  0.2280  0.9069  0.3437
  123OSM   C16S13092   5.196   6.649   7.911  0.2224  0.1313 -0.1491
  123OSM   H16S13093   5.127   6.566   7.935 -1.1888  0.4682 -2.7132
  123OSM   H16T13094   5.134   6.741   7.914  0.5898  0.3534  2.7014
  123OSM   C17S13095   5.283   6.667   8.036 -0.0276 -1.0478 -0.4573
  123OSM   H17S13096   5.345   6.759   8.026  1.2653 -1.9287 -0.7770
  123OSM   H17T13097   5.351   6.585   8.065  1.7254 -0.1053 -1.6649
  123OSM   C18S13098   5.186   6.677   8.152  0.0507 -0.1230  0.1552
  123OSM   H18S13099   5.113   6.761   8.140  0.8202  0.5543  0.1323
  123OSM   H18T13100   5.238   6.678   8.250 -0.0795  1.5040  0.2412
  123OSM   H18U13101   5.144   6.574   8.152  2.7588 -1.2998 -0.3695
  123OSM    C1F13102   4.805   6.062   6.811 -0.1176 -0.6432 -0.5574
  123OSM     OF13103   4.890   5.996   6.758 -0.1344 -0.2796 -0.0358
  123OSM    C2F13104   4.763   6.033   6.963  0.3971 -0.2550  0.2003
  123OSM    H2F13105   4.679   5.960   6.958 -1.2613  1.6072 -0.3724
  123OSM    H2G13106   4.728   6.131   7.001  0.9634  0.3826 -0.8853
  123OSM    C3F13107   4.870   5.982   7.050 -0.3011  0.5689  0.1110
  123OSM    H3F13108   4.949   6.058   7.069  1.2150 -0.3850 -1.9577
  123OSM    H3G13109   4.918   5.896   6.998 -0.3805  0.5695  0.0383
  123OSM    C4F13110   4.822   5.938   7.188  0.1035 -0.3729  0.7734
  123OSM    H4F13111   4.765   5.845   7.168  0.5313 -1.0398  2.5085
  123OSM    H4G13112   4.752   6.016   7.226  0.6545  0.1673  0.6914
  123OSM    C5F13113   4.918   5.899   7.298  0.1488  0.0463 -0.1692
  123OSM    H5F13114   4.969   5.995   7.319  1.2117  0.0713 -2.5664
  123OSM    H5G13115   4.986   5.821   7.256  1.3391  0.6345  0.6097
  123OSM    C6F13116   4.858   5.855   7.429  0.6312  0.2545 -0.2218
  123OSM    H6F13117   4.787   5.773   7.402 -0.0272  1.6594 -3.1745
  123OSM    H6G13118   4.810   5.944   7.474 -0.3155 -1.4968  2.4963
  123OSM    C7F13119   4.966   5.799   7.514 -0.4487  0.8067 -1.2653
  123OSM    H7F13120   5.040   5.879   7.536 -0.3266  0.1755  0.9380
  123OSM    H7G13121   5.019   5.715   7.464 -1.5171 -1.5177  1.2294
  123OSM    C8F13122   4.910   5.750   7.643  0.0016 -0.0583 -1.2003
  123OSM    H8F13123   4.830   5.677   7.616 -0.1086 -0.0222 -0.9796
  123OSM    H8G13124   4.863   5.841   7.686 -1.5515 -1.0750 -0.6600
  123OSM    C9F13125   5.026   5.686   7.725  0.2238 -0.4611 -0.4223
  123OSM    H9F13126   5.089   5.613   7.672 -0.7144 -0.0678 -2.1232
  123OSM   C10F13127   5.062   5.734   7.846 -0.4848  0.7760  0.4898
  123OSM   H10F13128   5.127   5.670   7.907 -1.9964 -0.7884  0.5253
  123OSM   C11F13129   5.005   5.849   7.920  0.1010  0.0576 -0.1511
  123OSM   H11F13130   4.901   5.823   7.950 -0.4176 -0.7366 -2.4259
  123OSM   H11G13131   4.998   5.931   7.846  0.4380 -0.4456 -0.7453
  123OSM   C12F13132   5.081   5.896   8.040 -0.5810 -0.2324 -0.9399
  123OSM   H12F13133   5.028   5.990   8.068 -0.0652  0.0069 -0.7617
  123OSM   H12G13134   5.184   5.920   8.006  1.0722 -2.3179  2.0697
  123OSM   C13F13135   5.076   5.803   8.165 -0.6336  0.0641 -0.4746
  123OSM   H13F13136   5.167   5.740   8.172 -1.3889 -0.8476  2.9732
  123OSM   H13G13137   4.982   5.744   8.154 -0.0863 -0.5513 -2.2266
  123OSM   C14F13138   5.052   5.871   8.301 -0.0857 -0.2060 -0.2972
  123OSM   H14F13139   4.958   5.930   8.307 -0.0497 -0.0942 -0.8058
  123OSM   H14G13140   5.127   5.953   8.293 -1.7131  1.3208 -0.7308
  123OSM   C15F13141   5.077   5.769   8.416  0.9032 -0.0491 -0.1945
  123OSM   H15F13142   5.164   5.710   8.381  0.5040 -0.6515 -0.1749
  123OSM   H15G13143   5.004   5.687   8.402  1.5811 -0.6689 -0.1454
  123OSM   C16F13144   5.076   5.821   8.566 -0.5401 -0.1602 -0.2120
  123OSM   H16F13145   5.104   5.928   8.562  0.8986 -0.5632 -1.7651
  123OSM   H16G13146   5.158   5.778   8.627 -0.2274 -1.1608 -1.2962
  123OSM   C17F13147   4.943   5.820   8.631 -1.2907  0.2000  0.1675
  123OSM   H17F13148   4.906   5.715   8.643  1.8577 -0.9467  0.6995
  123OSM   H17G13149   4.866   5.869   8.568 -3.7984 -1.5019  1.7106
  123OSM   C18F13150   4.958   5.889   8.768 -0.0771  0.1702 -0.5653
  123OSM   H18F13151   4.951   6.000   8.759  1.7464  0.5980  2.1038
  123OSM   H18G13152   5.056   5.865   8.813  0.2318 -0.0649 -1.3476
  123OSM   H18H13153   4.887   5.856   8.847  0.1832 -0.8066 -0.7292
  124OSM      N13154   0.505   3.793   6.242 -0.1278  0.6688 -0.1065
  124OSM    C1513155   0.487   3.923   6.165 -0.0080 -0.3698  0.1990
  124OSM   H15A13156   0.562   3.936   6.088 -0.0507  3.5300  0.6315
  124OSM   H15B13157   0.501   4.004   6.234 -2.6062  0.7967 -0.5238
  124OSM   H15C13158   0.392   3.930   6.114 -1.0508  2.7836  2.3048
  124OSM    C1413159   0.399   3.780   6.346  1.0361  0.3299  0.1470
  124OSM   H14A13160   0.302   3.813   6.309  0.8252  0.8247  1.1078
  124OSM   H14B13161   0.415   3.846   6.430  0.7175 -0.1810  0.6115
  124OSM   H14C13162   0.379   3.680   6.381 -2.2695 -0.3804 -3.1154
  124OSM    C1313163   0.491   3.682   6.143  0.8485  0.7980 -0.6823
  124OSM   H13A13164   0.390   3.684   6.106 -0.1859 -1.4163  1.6963
  124OSM   H13B13165   0.499   3.586   6.193 -1.8493 -0.0745 -1.7372
  124OSM   H13C13166   0.566   3.677   6.065 -0.4998 -1.9750 -1.9453
  124OSM    C1213167   0.640   3.792   6.308 -0.1452 -0.8577 -0.0401
  124OSM   H12A13168   0.710   3.808   6.227  0.6806  1.7445  1.0668
  124OSM   H12B13169   0.647   3.692   6.346  1.2129 -0.6086  0.4067
  124OSM    C1113170   0.670   3.890   6.427 -0.0273 -0.2810 -0.1937
  124OSM   H11A13171   0.770   3.864   6.468  0.6712 -3.6226 -3.4660
  124OSM   H11B13172   0.599   3.863   6.507  1.2056 -1.9699  0.3944
  124OSM      P13173   0.796   4.089   6.324 -0.2848 -0.0296 -0.2593
  124OSM    O1313174   0.893   3.987   6.286 -0.9225  0.3566 -0.4481
  124OSM    O1413175   0.769   4.188   6.215 -0.2558 -0.3383 -0.1098
  124OSM    O1113176   0.857   4.172   6.445 -0.2179  0.5950  0.4268
  124OSM    O1213177   0.668   4.022   6.385  0.0290 -0.7783  0.2348
  124OSM    C1S13178   0.755   4.247   6.516  0.0244  0.2339 -0.6131
  124OSM    H1S13179   0.662   4.262   6.458  0.2332  1.3638 -0.6800
  124OSM    H1T13180   0.781   4.350   6.547 -0.0986 -0.2882  1.4349
  124OSM     NF13181   0.628   4.231   6.730 -0.5895  0.3535  0.1806
  124OSM    HNF13182   0.654   4.288   6.807 -0.3313  0.5624 -0.0581
  124OSM    C2S13183   0.738   4.183   6.660  0.1521  0.1405  0.2840
  124OSM    H2S13184   0.727   4.076   6.634  0.8277  0.2861 -0.6628
  124OSM    C3S13185   0.872   4.202   6.740 -0.5573 -0.7675 -0.1978
  124OSM    H3S13186   0.871   4.307   6.776  2.6590 -0.0879 -1.7796
  124OSM     O313187   0.993   4.185   6.668 -0.7872 -0.1044  0.4177
  124OSM    HO313188   0.958   4.175   6.579  1.3880  1.9135 -0.7786
  124OSM    C4S13189   0.866   4.104   6.860  0.8974  0.4549  0.4774
  124OSM    H4S13190   0.816   4.007   6.843 -0.5582  1.1243  0.8247
  124OSM    C5S13191   0.898   4.111   6.989 -0.7599  0.3955  0.6472
  124OSM    H5S13192   0.954   4.200   7.021 -2.1278  1.5724 -0.1352
  124OSM    C6S13193   0.870   3.999   7.088  0.3394  0.0117  0.3754
  124OSM    H6S13194   0.958   3.933   7.103  0.7193  0.2841 -0.6176
  124OSM    H6T13195   0.798   3.929   7.042  0.7757  0.1387 -0.5239
  124OSM    C7S13196   0.823   4.042   7.222  0.3318  0.3283 -0.2740
  124OSM    H7S13197   0.747   4.121   7.201 -0.2676 -0.4463 -1.0798
  124OSM    H7T13198   0.905   4.090   7.279 -1.2649  1.1569  1.4467
  124OSM    C8S13199   0.765   3.935   7.317  0.1909  0.3165  0.0884
  124OSM    H8S13200   0.810   3.836   7.294 -0.6757 -0.1335  0.3026
  124OSM    H8T13201   0.656   3.922   7.299  0.6157 -3.5315 -0.5727
  124OSM    C9S13202   0.788   3.959   7.471 -0.8132 -0.4070 -0.3647
  124OSM    H9S13203   0.715   3.886   7.512  1.4424 -2.4801  0.1434
  124OSM    H9T13204   0.753   4.061   7.499  0.2765  0.2084 -1.1762
  124OSM   C10S13205   0.931   3.935   7.511  0.6458 -0.0038  0.9488
  124OSM   H10S13206   0.995   4.021   7.483  0.1528 -0.0896 -0.5559
  124OSM   H10T13207   0.964   3.847   7.450  0.0092  1.1167 -1.1135
  124OSM   C11S13208   0.943   3.893   7.659  0.3069 -0.2303  0.6601
  124OSM   H11S13209   1.041   3.847   7.684  1.1560  1.8071  1.3005
  124OSM   H11T13210   0.864   3.819   7.684 -0.6457  1.2669  2.3263
  124OSM   C12S13211   0.926   4.016   7.755 -0.1902 -0.6193 -0.0222
  124OSM   H12S13212   0.826   4.064   7.758  0.0714  0.0140 -0.9349
  124OSM   H12T13213   1.002   4.087   7.717  0.2084 -1.1570 -0.2442
  124OSM   C13S13214   0.977   3.972   7.892 -1.0033 -0.2595 -0.4543
  124OSM   H13S13215   1.014   4.060   7.950  1.6421 -2.7805  1.9830
  124OSM   H13T13216   1.070   3.916   7.869 -0.8830 -0.1198 -0.3112
  124OSM   C14S13217   0.879   3.900   7.984 -0.0743  0.9083 -0.4280
  124OSM   H14S13218   0.872   3.802   7.931 -0.5111  1.3606 -1.2289
  124OSM   H14T13219   0.775   3.938   7.974 -0.0846  0.5786 -1.8717
  124OSM   C15S13220   0.927   3.897   8.130  0.5441  0.3647 -0.6976
  124OSM   H15S13221   0.851   3.850   8.195  2.5214 -0.8436  0.8867
  124OSM   H15T13222   0.929   3.999   8.174  0.6480 -0.9610  2.6976
  124OSM   C16S13223   1.063   3.827   8.134  0.1233  0.2292 -0.3045
  124OSM   H16S13224   1.144   3.890   8.090 -0.1681  1.1727  0.4890
  124OSM   H16T13225   1.056   3.733   8.076  0.5994 -0.4516  0.7271
  124OSM   C17S13226   1.114   3.812   8.277  0.8746 -0.3798  0.2834
  124OSM   H17S13227   1.221   3.782   8.273  1.1555  0.7087 -1.1484
  124OSM   H17T13228   1.046   3.741   8.328 -1.7060  1.1357 -0.8757
  124OSM   C18S13229   1.120   3.942   8.372  0.0841  0.2840  0.1140
  124OSM   H18S13230   1.163   4.029   8.318  1.3249 -0.3550  0.0395
  124OSM   H18T13231   1.186   3.915   8.457 -0.1339 -1.5530 -0.2433
  124OSM   H18U13232   1.020   3.972   8.410  1.0358  2.3449  1.1020
  124OSM    C1F13233   0.497   4.224   6.694 -0.2516 -0.1275  0.0175
  124OSM     OF13234   0.466   4.187   6.580 -0.6038  0.3598  0.4261
  124OSM    C2F13235   0.395   4.281   6.788 -0.0311  0.1169 -0.7070
  124OSM    H2F13236   0.372   4.387   6.766 -0.8529 -0.0612 -0.7412
  124OSM    H2G13237   0.437   4.301   6.889  0.0488  1.1848 -0.9481
  124OSM    C3F13238   0.262   4.200   6.810  0.6776  0.5183  0.8471
  124OSM    H3F13239   0.291   4.100   6.849  1.6993  0.3373 -0.3071
  124OSM    H3G13240   0.213   4.183   6.712  0.9874  0.1847  0.7457
  124OSM    C4F13241   0.156   4.256   6.899 -0.0772 -0.1310  0.9556
  124OSM    H4F13242   0.071   4.185   6.901 -1.9990  1.9907 -0.2681
  124OSM    H4G13243   0.115   4.352   6.859 -2.1012 -0.9541  0.9546
  124OSM    C5F13244   0.210   4.284   7.039  0.9836  0.2503 -0.4889
  124OSM    H5F13245   0.129   4.348   7.080  0.6042 -0.5698  0.0564
  124OSM    H5G13246   0.300   4.350   7.037  0.0959  1.5040  0.2090
  124OSM    C6F13247   0.235   4.159   7.129  0.4644 -0.1519 -0.1646
  124OSM    H6F13248   0.312   4.104   7.072 -0.5292 -2.2102  0.3706
  124OSM    H6G13249   0.137   4.106   7.129 -0.1931  1.0297 -0.7731
  124OSM    C7F13250   0.281   4.197   7.271 -0.0345 -0.1384 -0.4386
  124OSM    H7F13251   0.200   4.251   7.324  0.3072 -1.7051  1.8290
  124OSM    H7G13252   0.367   4.266   7.266 -0.3407  0.3334  0.6788
  124OSM    C8F13253   0.335   4.074   7.352 -0.3385 -0.9065  0.5553
  124OSM    H8F13254   0.421   4.028   7.298 -0.4320 -2.2666  1.5192
  124OSM    H8G13255   0.262   3.991   7.361 -2.3996  0.9392  2.1181
  124OSM    C9F13256   0.393   4.112   7.489 -0.0942  0.6839  0.4306
  124OSM    H9F13257   0.502   4.103   7.499 -0.2167  0.8611  2.2928
  124OSM   C10F13258   0.320   4.158   7.595  0.3341  0.0946 -0.0947
  124OSM   H10F13259   0.365   4.175   7.694 -2.2819  1.9378  0.8955
  124OSM   C11F13260   0.170   4.176   7.601  0.0892 -0.0108  0.2779
  124OSM   H11F13261   0.118   4.101   7.537  3.5493 -2.3099 -0.0798
  124OSM   H11G13262   0.140   4.272   7.556  0.4480 -0.0120  0.0354
  124OSM   C12F13263   0.108   4.163   7.745  0.1759 -0.3306  0.2937
  124OSM   H12F13264  -0.002   4.172   7.728 -0.0171 -2.3732  0.2292
  124OSM   H12G13265   0.157   4.252   7.788  1.9866 -0.8276 -0.6227
  124OSM   C13F13266   0.137   4.024   7.799  0.1897 -0.3123 -0.0261
  124OSM   H13F13267   0.244   4.018   7.826 -0.1650 -1.4794  1.1889
  124OSM   H13G13268   0.114   3.941   7.729  1.6083  1.2647 -2.4897
  124OSM   C14F13269   0.054   4.008   7.925  0.3342  0.7913 -1.0937
  124OSM   H14F13270  -0.054   4.022   7.905 -0.1326 -1.3850 -0.3664
  124OSM   H14G13271   0.070   4.085   8.004 -0.3618  0.6639 -0.8189
  124OSM   C15F13272   0.070   3.863   7.985  0.5703 -0.1526 -0.0426
  124OSM   H15F13273   0.177   3.850   8.013 -0.1780 -0.6105  2.8884
  124OSM   H15G13274   0.050   3.791   7.902 -3.5468  2.4403 -1.6278
  124OSM   C16F13275  -0.025   3.823   8.102 -0.1877  0.7773  0.3729
  124OSM   H16F13276  -0.125   3.837   8.053  0.2219 -0.0604 -0.7415
  124OSM   H16G13277  -0.021   3.902   8.180  0.3363  0.3196  0.8169
  124OSM   C17F13278  -0.006   3.688   8.170 -0.4593 -0.0569  0.1890
  124OSM   H17F13279   0.091   3.680   8.224 -0.2181 -0.5759 -0.3207
  124OSM   H17G13280  -0.003   3.608   8.093 -0.0127 -0.3148  0.4684
  124OSM   C18F13281  -0.111   3.651   8.270 -0.2937  0.1571  0.5491
  124OSM   H18F13282  -0.105   3.730   8.348  1.8007 -1.7603  2.4954
  124OSM   H18G13283  -0.080   3.551   8.309  1.7176 -0.3004 -1.9237
  124OSM   H18H13284  -0.213   3.642   8.228 -1.1089 -1.0237  2.6220
  125OSM      N13285   0.270   4.592   6.444 -0.4329 -0.1756  0.1627
  125OSM    C1513286   0.373   4.504   6.512  0.2621  0.2863  0.1283
  125OSM   H15A13287   0.446   4.478   6.437  0.9111  3.1014 -0.3434
  125OSM   H15B13288   0.329   4.410   6.541  0.9867  0.0930  0.6415
  125OSM   H15C13289   0.423   4.553   6.595  0.1332 -0.0298  0.3935
  125OSM    C1413290   0.350   4.712   6.389 -0.7641  0.0976 -0.5132
  125OSM   H14A13291   0.424   4.680   6.318  1.7285 -0.1057  1.9968
  125OSM   H14B13292   0.409   4.762   6.464 -0.4170  0.2878 -0.9104
  125OSM   H14C13293   0.280   4.787   6.354  0.6176  0.5871 -2.3845
  125OSM    C1313294   0.217   4.513   6.328  0.3160 -0.5117 -0.1110
  125OSM   H13A13295   0.296   4.464   6.273  0.7897  0.3276 -0.2052
  125OSM   H13B13296   0.164   4.587   6.271  0.5922  2.1867  2.8422
  125OSM   H13C13297   0.139   4.446   6.361 -0.4878  1.0216  1.2450
  125OSM    C1213298   0.156   4.644   6.532 -0.7441  0.4359  0.6954
  125OSM   H12A13299   0.076   4.682   6.470 -1.0664 -1.5738 -0.1998
  125OSM   H12B13300   0.195   4.719   6.600  0.7699  0.2863  0.0359
  125OSM    C1113301   0.070   4.536   6.613  0.0915  0.6515  0.7288
  125OSM   H11A13302  -0.010   4.582   6.674 -2.4160 -2.5634  0.1490
  125OSM   H11B13303   0.142   4.487   6.683  3.3019  1.8069 -1.5137
  125OSM      P13304  -0.124   4.428   6.476  0.0632 -0.1052  0.1412
  125OSM    O1313305  -0.169   4.570   6.460  0.7003  0.2088  0.0355
  125OSM    O1413306  -0.134   4.338   6.359  0.1953  0.2384 -0.7668
  125OSM    O1113307  -0.220   4.356   6.580 -0.0196 -0.1732 -0.3963
  125OSM    O1213308   0.023   4.422   6.543 -0.1346  0.1326 -0.0787
  125OSM    C1S13309  -0.220   4.363   6.724  0.2754  0.7115 -0.3798
  125OSM    H1S13310  -0.274   4.452   6.762 -0.0208 -0.0548  1.0840
  125OSM    H1T13311  -0.115   4.378   6.758  0.8227  0.0349 -1.6980
  125OSM     NF13312  -0.239   4.231   6.930  0.3037  0.6254  0.3060
  125OSM    HNF13313  -0.151   4.196   6.963 -0.2836 -2.3582 -0.9471
  125OSM    C2S13314  -0.255   4.227   6.786  1.0194  0.3590 -0.3303
  125OSM    H2S13315  -0.364   4.215   6.772  0.8686 -0.1972  1.1413
  125OSM    C3S13316  -0.176   4.113   6.712  0.0634 -0.2568 -0.1194
  125OSM    H3S13317  -0.066   4.125   6.714  0.2186 -0.8007 -2.5921
  125OSM     O313318  -0.196   4.110   6.569  0.1939  0.4722 -0.2145
  125OSM    HO313319  -0.233   4.196   6.548  1.7550  0.9758 -1.0436
  125OSM    C4S13320  -0.215   3.974   6.772 -0.1900  0.8544  0.2504
  125OSM    H4S13321  -0.311   3.926   6.750  0.3836 -0.6688  0.9043
  125OSM    C5S13322  -0.132   3.910   6.855 -0.3026 -0.4192 -0.3923
  125OSM    H5S13323  -0.038   3.959   6.883  0.1483  0.1093 -2.6751
  125OSM    C6S13324  -0.171   3.779   6.922  0.3676 -0.5255 -0.3443
  125OSM    H6S13325  -0.082   3.725   6.961  0.8184  1.0396  0.9004
  125OSM    H6T13326  -0.227   3.713   6.853 -0.7293 -0.2741  0.2886
  125OSM    C7S13327  -0.258   3.794   7.047 -0.1510  0.1879 -0.2417
  125OSM    H7S13328  -0.218   3.863   7.124  0.4837  0.1313 -0.5145
  125OSM    H7T13329  -0.281   3.695   7.092 -2.5321  0.2320 -1.2272
  125OSM    C8S13330  -0.407   3.838   7.008 -0.4161 -0.1865 -0.6396
  125OSM    H8S13331  -0.448   3.779   6.923  0.5897  0.8919 -1.9246
  125OSM    H8T13332  -0.403   3.942   6.968 -2.1634  0.5279  0.9113
  125OSM    C9S13333  -0.495   3.828   7.135 -0.3420 -0.0514 -0.1286
  125OSM    H9S13334  -0.591   3.871   7.100  0.1380 -0.1104 -1.5705
  125OSM    H9T13335  -0.443   3.880   7.219 -2.2144  1.0569  0.4161
  125OSM   C10S13336  -0.515   3.691   7.198  0.0647 -0.0813 -0.1805
  125OSM   H10S13337  -0.418   3.645   7.225  0.7251  1.0232 -0.6018
  125OSM   H10T13338  -0.567   3.610   7.142 -0.9526 -1.4064  2.4777
  125OSM   C11S13339  -0.598   3.700   7.328 -0.3165 -0.2304 -0.1037
  125OSM   H11S13340  -0.690   3.750   7.291  0.0014 -1.1612 -2.3000
  125OSM   H11T13341  -0.536   3.764   7.394  1.0750 -1.8191  0.1977
  125OSM   C12S13342  -0.644   3.573   7.388  0.4080  0.4749 -0.8793
  125OSM   H12S13343  -0.561   3.513   7.430  0.8843  1.6831 -0.0244
  125OSM   H12T13344  -0.707   3.512   7.320  0.6062 -0.5753 -0.1400
  125OSM   C13S13345  -0.748   3.588   7.504 -0.6925 -0.3058  0.0549
  125OSM   H13S13346  -0.833   3.657   7.483  1.1210  2.0391 -0.0355
  125OSM   H13T13347  -0.698   3.631   7.593 -2.2647  0.0851  0.7830
  125OSM   C14S13348  -0.798   3.453   7.557  0.3010 -0.1327 -0.1410
  125OSM   H14S13349  -0.718   3.392   7.605 -1.6186 -0.4295  3.0037
  125OSM   H14T13350  -0.853   3.394   7.481  1.0332 -0.1304 -0.6928
  125OSM   C15S13351  -0.885   3.476   7.682  0.3436 -0.3486 -0.0393
  125OSM   H15S13352  -0.961   3.550   7.650 -2.0114 -1.6372  2.2353
  125OSM   H15T13353  -0.843   3.529   7.771 -1.7123 -0.8410  1.2902
  125OSM   C16S13354  -0.958   3.354   7.730 -0.6624  0.1768 -0.1491
  125OSM   H16S13355  -0.985   3.284   7.648 -4.1701  0.1985  0.8442
  125OSM   H16T13356  -1.053   3.374   7.784 -0.7820 -2.3266  0.6746
  125OSM   C17S13357  -0.880   3.271   7.831 -0.5864 -0.7034 -0.1474
  125OSM   H17S13358  -0.821   3.341   7.895 -1.0502  0.0001 -0.4882
  125OSM   H17T13359  -0.801   3.216   7.775  0.7682 -0.3635  1.3434
  125OSM   C18S13360  -0.974   3.168   7.904  0.1135  0.3117  0.2081
  125OSM   H18S13361  -1.023   3.223   7.987  0.6756 -1.3866  1.7291
  125OSM   H18T13362  -0.905   3.093   7.949 -0.7636  0.5678  2.0785
  125OSM   H18U13363  -1.049   3.148   7.825 -1.0645 -0.5876  1.5198
  125OSM    C1F13364  -0.325   4.293   7.011 -0.4050  0.1742 -0.3104
  125OSM     OF13365  -0.428   4.345   6.972  0.1920 -0.1766 -0.5750
  125OSM    C2F13366  -0.285   4.286   7.154 -0.0757 -0.1335 -0.0252
  125OSM    H2F13367  -0.180   4.317   7.175  0.4024 -2.2229  0.9308
  125OSM    H2G13368  -0.303   4.186   7.198  1.2564 -1.4574 -2.2791
  125OSM    C3F13369  -0.363   4.385   7.238 -0.2049  0.7143 -0.3910
  125OSM    H3F13370  -0.473   4.385   7.229 -0.2492  1.3399  0.1069
  125OSM    H3G13371  -0.329   4.483   7.197 -0.1684  0.9976  0.3090
  125OSM    C4F13372  -0.315   4.389   7.386  0.9737  0.0672  0.4239
  125OSM    H4F13373  -0.382   4.465   7.432  1.6634  0.8235  0.2072
  125OSM    H4G13374  -0.209   4.421   7.397  0.9220  1.6966 -2.6468
  125OSM    C5F13375  -0.351   4.265   7.473 -0.1298 -0.4603  0.1468
  125OSM    H5F13376  -0.325   4.170   7.422  2.2408  0.1705  0.0393
  125OSM    H5G13377  -0.461   4.252   7.485 -0.1224  0.7141  1.8927
  125OSM    C6F13378  -0.273   4.263   7.603 -0.2402 -0.1855 -0.3829
  125OSM    H6F13379  -0.163   4.247   7.595  0.0458  1.7633 -0.8638
  125OSM    H6G13380  -0.316   4.174   7.654  2.0876  0.5932  3.2840
  125OSM    C7F13381  -0.297   4.390   7.693 -0.0958 -0.3564  0.1004
  125OSM    H7F13382  -0.405   4.418   7.694  0.3566  1.5892 -0.5377
  125OSM    H7G13383  -0.249   4.481   7.650  0.8968 -1.2613 -0.7290
  125OSM    C8F13384  -0.240   4.378   7.833 -0.0935  0.1517 -0.4122
  125OSM    H8F13385  -0.255   4.479   7.877 -1.8251 -0.4015  0.3518
  125OSM    H8G13386  -0.130   4.367   7.845  0.1164 -0.2595 -2.3989
  125OSM    C9F13387  -0.312   4.276   7.925 -0.4102  0.2716  1.0127
  125OSM    H9F13388  -0.276   4.172   7.922 -1.8747 -0.2472 -0.4025
  125OSM   C10F13389  -0.420   4.302   7.997  0.5387 -0.1537 -0.3656
  125OSM   H10F13390  -0.464   4.219   8.054  0.7762  0.6198  0.9923
  125OSM   C11F13391  -0.501   4.428   8.004 -0.2247 -0.7375  0.6480
  125OSM   H11F13392  -0.607   4.397   7.997 -0.8107  1.4410 -1.8317
  125OSM   H11G13393  -0.492   4.475   7.903 -0.7455  1.0174  1.3802
  125OSM   C12F13394  -0.483   4.526   8.114 -0.6087  0.1204 -0.0046
  125OSM   H12F13395  -0.542   4.620   8.109 -0.8463 -0.0301 -0.0634
  125OSM   H12G13396  -0.380   4.568   8.113 -0.3686 -0.2924  2.0615
  125OSM   C13F13397  -0.508   4.471   8.252  0.0933 -0.3276 -0.2070
  125OSM   H13F13398  -0.483   4.550   8.326  3.4307  0.0949 -1.6253
  125OSM   H13G13399  -0.436   4.389   8.269  0.6961 -0.3559 -2.5700
  125OSM   C14F13400  -0.657   4.429   8.277  0.6724  0.7159 -0.0160
  125OSM   H14F13401  -0.688   4.345   8.212 -1.1896  1.1873  0.1857
  125OSM   H14G13402  -0.724   4.511   8.245  0.3738 -1.1037 -4.7673
  125OSM   C15F13403  -0.675   4.379   8.422  0.1804 -0.5546  0.3033
  125OSM   H15F13404  -0.785   4.383   8.439  0.0237  1.5347 -0.8567
  125OSM   H15G13405  -0.625   4.449   8.492 -0.5720 -0.8057  1.1122
  125OSM   C16F13406  -0.628   4.236   8.442  0.0419  0.1849 -0.2444
  125OSM   H16F13407  -0.517   4.239   8.452 -0.1287 -0.3306  2.8631
  125OSM   H16G13408  -0.653   4.172   8.355 -2.1044  0.0261  0.4447
  125OSM   C17F13409  -0.693   4.173   8.562  1.2107  0.8983 -0.0524
  125OSM   H17F13410  -0.802   4.166   8.541  1.1146  1.0100  0.4084
  125OSM   H17G13411  -0.686   4.248   8.644 -3.1210  0.6162  0.8089
  125OSM   C18F13412  -0.634   4.035   8.585 -0.1394 -0.5538  0.6769
  125OSM   H18F13413  -0.692   3.975   8.658 -2.2039  0.1584 -0.2980
  125OSM   H18G13414  -0.531   4.049   8.622 -0.4892  0.0664  1.4442
  125OSM   H18H13415  -0.626   3.964   8.500 -2.3244 -0.1266  0.0290
  126OSM      N13416   5.054   5.421   6.126  0.2571 -0.0601 -0.3951
  126OSM    C1513417   5.164   5.324   6.125 -0.3998  0.0511  0.1677
  126OSM   H15A13418   5.183   5.304   6.230  1.0558  1.8135  0.2815
  126OSM   H15B13419   5.259   5.351   6.082  0.1541 -2.0085 -0.0363
  126OSM   H15C13420   5.130   5.238   6.069 -0.7498  0.6389 -0.5331
  126OSM    C1413421   5.071   5.546   6.211 -0.4054 -0.7130 -0.4403
  126OSM   H14A13422   5.177   5.566   6.209 -0.0907 -2.2250 -0.1441
  126OSM   H14B13423   5.041   5.514   6.310 -0.2736 -3.6837 -1.2537
  126OSM   H14C13424   5.022   5.636   6.178 -2.2124 -1.4060  0.1777
  126OSM    C1313425   5.031   5.462   5.984  0.4577 -0.2764 -0.2955
  126OSM   H13A13426   5.012   5.389   5.907 -1.9057 -0.8643  0.7781
  126OSM   H13B13427   5.112   5.522   5.944  0.7759 -0.4293  0.1090
  126OSM   H13C13428   4.949   5.532   5.981  2.2850  2.1098  1.4763
  126OSM    C1213429   4.930   5.357   6.176  0.7001 -0.6340 -0.6965
  126OSM   H12A13430   4.911   5.274   6.109  1.4782 -2.1442  0.8944
  126OSM   H12B13431   4.845   5.424   6.173  1.9813  1.1332  0.4210
  126OSM    C1113432   4.934   5.302   6.324  0.3160 -0.2943 -0.1433
  126OSM   H11A13433   5.017   5.228   6.332  1.9449  1.3591 -1.0731
  126OSM   H11B13434   4.847   5.240   6.353 -0.7583  1.9748  1.7224
  126OSM      P13435   4.824   5.480   6.477  0.0400 -0.1384  0.2412
  126OSM    O1313436   4.873   5.573   6.581 -0.2559  0.0464  0.1864
  126OSM    O1413437   4.767   5.551   6.360 -0.0231 -0.5805 -0.9847
  126OSM    O1113438   4.717   5.376   6.531  0.2631 -0.1832 -0.8036
  126OSM    O1213439   4.952   5.399   6.426 -0.0462  0.2600  0.0374
  126OSM    C1S13440   4.746   5.291   6.645  0.2359  0.0176 -0.0694
  126OSM    H1S13441   4.783   5.349   6.732 -1.1882 -0.9666  1.2637
  126OSM    H1T13442   4.809   5.208   6.607 -1.1873 -1.5053  0.7882
  126OSM     NF13443   4.633   5.202   6.844  0.3744 -0.1710 -0.3659
  126OSM    HNF13444   4.670   5.111   6.860  0.6287  0.0835  0.5410
  126OSM    C2S13445   4.608   5.237   6.705 -1.3080 -0.2236 -0.0525
  126OSM    H2S13446   4.541   5.326   6.711 -1.8750 -0.6059 -0.5714
  126OSM    C3S13447   4.545   5.131   6.609 -0.7873  0.0020 -0.7267
  126OSM    H3S13448   4.605   5.038   6.599 -0.4985  0.4275 -5.1593
  126OSM     O313449   4.534   5.192   6.477  0.1480 -0.1424 -0.7754
  126OSM    HO313450   4.602   5.259   6.489 -0.4120  0.0248  2.6011
  126OSM    C4S13451   4.405   5.102   6.660 -0.0774 -0.8789  0.2688
  126OSM    H4S13452   4.357   5.198   6.684  0.3550 -0.6213  0.1130
  126OSM    C5S13453   4.339   4.984   6.691  0.1337 -0.3815 -0.0410
  126OSM    H5S13454   4.385   4.887   6.668  0.4029 -0.1312 -0.5698
  126OSM    C6S13455   4.203   4.963   6.746 -0.4600 -0.3712 -0.3039
  126OSM    H6S13456   4.216   4.880   6.818 -2.3588 -0.9043 -0.5119
  126OSM    H6T13457   4.138   4.910   6.672 -0.9128  0.2348 -0.3469
  126OSM    C7S13458   4.124   5.076   6.806  0.1773 -0.2900  0.6841
  126OSM    H7S13459   4.022   5.040   6.827 -0.4539  0.9825 -0.0766
  126OSM    H7T13460   4.123   5.154   6.726  3.5555 -0.3487  0.4018
  126OSM    C8S13461   4.199   5.127   6.933  1.0635  0.3130  0.9286
  126OSM    H8S13462   4.291   5.172   6.889 -1.1504  0.7100 -3.9504
  126OSM    H8T13463   4.222   5.042   7.000 -2.2217 -1.1146  0.4040
  126OSM    C9S13464   4.108   5.232   7.000  0.6530 -0.1831  0.5748
  126OSM    H9S13465   4.018   5.179   7.040 -1.2777  1.1449 -1.7004
  126OSM    H9T13466   4.065   5.295   6.919  0.9417  0.2027  0.7154
  126OSM   C10S13467   4.174   5.317   7.108  0.4259 -0.3782  0.7072
  126OSM   H10S13468   4.090   5.385   7.135  1.7685  1.9014 -0.4862
  126OSM   H10T13469   4.256   5.383   7.074  0.2845 -0.7310 -0.3624
  126OSM   C11S13470   4.225   5.237   7.228  0.1279  0.3239 -0.3736
  126OSM   H11S13471   4.289   5.161   7.179 -1.5308  0.6279 -3.2668
  126OSM   H11T13472   4.146   5.174   7.275  1.5641 -0.5182  0.9701
  126OSM   C12S13473   4.291   5.323   7.334 -0.1632  0.1924 -0.1867
  126OSM   H12S13474   4.233   5.409   7.373  0.7104  0.5788  0.3002
  126OSM   H12T13475   4.383   5.361   7.285  0.1350  0.0013  0.2111
  126OSM   C13S13476   4.332   5.235   7.457  0.0228 -0.2730 -0.0335
  126OSM   H13S13477   4.394   5.149   7.422 -0.0204 -0.3611  0.1080
  126OSM   H13T13478   4.236   5.196   7.495 -1.0568  1.3209 -0.9920
  126OSM   C14S13479   4.397   5.315   7.572 -0.0913  0.1065  0.0691
  126OSM   H14S13480   4.325   5.397   7.591  2.3731  2.0660  1.6284
  126OSM   H14T13481   4.492   5.361   7.538 -1.4637  2.9154 -0.2269
  126OSM   C15S13482   4.407   5.237   7.706  0.3863 -0.2770 -0.0057
  126OSM   H15S13483   4.481   5.157   7.686  1.8771  1.1628 -0.4635
  126OSM   H15T13484   4.308   5.188   7.721  0.2594  0.0899  0.3778
  126OSM   C16S13485   4.432   5.318   7.840  0.5361 -0.2903  0.0867
  126OSM   H16S13486   4.354   5.396   7.850  0.3779 -0.1504 -1.9651
  126OSM   H16T13487   4.528   5.372   7.840 -0.9385  2.5282 -1.6462
  126OSM   C17S13488   4.436   5.238   7.970 -0.0520  0.2916 -0.1470
  126OSM   H17S13489   4.348   5.171   7.968 -0.3707  0.5144  2.7550
  126OSM   H17T13490   4.426   5.316   8.048 -2.7898  1.4943 -1.5658
  126OSM   C18S13491   4.554   5.153   7.996 -0.3414  0.0825  0.4512
  126OSM   H18S13492   4.588   5.093   7.908 -0.1215 -1.6721  1.6775
  126OSM   H18T13493   4.542   5.086   8.084 -2.1688  0.6580  0.6835
  126OSM   H18U13494   4.640   5.217   8.025 -0.5418 -0.3062  1.9994
  126OSM    C1F13495   4.651   5.290   6.949  0.2150 -0.1673 -0.4138
  126OSM     OF13496   4.589   5.400   6.946 -0.5824  0.2998 -0.5101
  126OSM    C2F13497   4.723   5.237   7.070 -0.8106  0.2092 -0.7162
  126OSM    H2F13498   4.833   5.230   7.057 -0.6210 -0.6278  1.0727
  126OSM    H2G13499   4.697   5.131   7.091 -1.0252  0.3943  0.0033
  126OSM    C3F13500   4.709   5.330   7.196  0.4510 -0.5872  0.9398
  126OSM    H3F13501   4.601   5.353   7.192  0.5811 -0.1935 -1.1912
  126OSM    H3G13502   4.770   5.422   7.183  3.2041 -1.8961  3.3832
  126OSM    C4F13503   4.745   5.264   7.329  0.6639  0.4282  0.1466
  126OSM    H4F13504   4.845   5.219   7.315  0.9425  1.6993 -2.5501
  126OSM    H4G13505   4.660   5.193   7.340 -1.7095  2.9241 -0.8674
  126OSM    C5F13506   4.761   5.365   7.438 -0.7099 -0.0473 -0.4779
  126OSM    H5F13507   4.679   5.439   7.440 -0.3297  0.4334 -1.7374
  126OSM    H5G13508   4.856   5.415   7.412 -0.4739 -0.9060 -1.3548
  126OSM    C6F13509   4.794   5.298   7.569 -0.0162 -0.6552 -0.1058
  126OSM    H6F13510   4.881   5.237   7.536  1.8357  1.8979 -0.1926
  126OSM    H6G13511   4.709   5.234   7.603 -0.4672  0.0290  0.0704
  126OSM    C7F13512   4.843   5.385   7.680  0.5585 -0.5718 -0.5176
  126OSM    H7F13513   4.768   5.465   7.666 -1.8236 -2.8593 -1.8879
  126OSM    H7G13514   4.943   5.434   7.671  0.0680  0.1672 -2.4919
  126OSM    C8F13515   4.840   5.316   7.817  0.7135  0.1594 -0.6771
  126OSM    H8F13516   4.911   5.231   7.810  0.2544 -0.3398  0.4753
  126OSM    H8G13517   4.736   5.285   7.841  0.4000  1.6555  0.0200
  126OSM    C9F13518   4.895   5.408   7.915  0.2807  0.6464  0.0334
  126OSM    H9F13519   4.891   5.514   7.889 -0.6710  1.2827  2.5326
  126OSM   C10F13520   4.953   5.377   8.038  0.6750  0.1057  0.2634
  126OSM   H10F13521   4.992   5.460   8.100  1.2289 -0.3507  0.5372
  126OSM   C11F13522   4.971   5.236   8.087  0.2058  0.1738 -1.0063
  126OSM   H11F13523   5.080   5.215   8.087  0.2386  0.3388 -0.7892
  126OSM   H11G13524   4.926   5.158   8.022  1.4836  0.1298 -1.8823
  126OSM   C12F13525   4.908   5.212   8.229 -0.1663  0.0847 -0.3548
  126OSM   H12F13526   4.798   5.230   8.224 -0.4244 -1.4854 -1.2547
  126OSM   H12G13527   4.942   5.281   8.308 -6.0931  2.2745  0.8505
  126OSM   C13F13528   4.938   5.065   8.276  0.0335  0.1572  0.1238
  126OSM   H13F13529   5.044   5.041   8.255  0.0943 -0.8796  1.4870
  126OSM   H13G13530   4.884   4.995   8.208  2.9371 -2.7757  0.6255
  126OSM   C14F13531   4.915   5.044   8.425  0.7252 -0.0195  0.3146
  126OSM   H14F13532   4.936   5.144   8.468  0.4091  0.8331 -1.4413
  126OSM   H14G13533   4.979   4.968   8.475  0.8953 -0.4706 -0.5822
  126OSM   C15F13534   4.765   5.015   8.459  0.6556  0.3191  0.4698
  126OSM   H15F13535   4.701   5.084   8.400 -0.3629 -0.7022  0.3454
  126OSM   H15G13536   4.754   5.031   8.568  1.8612  0.7530  0.5338
  126OSM   C16F13537   4.717   4.873   8.424 -0.2940 -0.2263  0.2051
  126OSM   H16F13538   4.793   4.810   8.474  0.2332 -1.1525 -1.6586
  126OSM   H16G13539   4.719   4.847   8.316 -0.7431 -1.8435  0.5595
  126OSM   C17F13540   4.575   4.838   8.472  0.4945  0.0910 -0.2028
  126OSM   H17F13541   4.562   4.822   8.581  1.8897  0.5275  0.0463
  126OSM   H17G13542   4.552   4.740   8.425  0.5338 -1.4912  2.8666
  126OSM   C18F13543   4.467   4.945   8.427  0.4572 -0.5130 -0.1375
  126OSM   H18F13544   4.371   4.903   8.463 -0.1279  1.7892  1.2537
  126OSM   H18G13545   4.472   4.946   8.316  1.6547 -0.5787 -0.0969
  126OSM   H18H13546   4.482   5.048   8.466  0.8881 -0.2824 -0.8998
  127OSM      N13547   0.477   1.922   6.360 -0.1202 -0.0700 -0.2010
  127OSM    C1513548   0.484   2.059   6.312  0.2871 -0.0970 -0.5647
  127OSM   H15A13549   0.489   2.117   6.403 -0.6426 -0.2467 -0.4105
  127OSM   H15B13550   0.395   2.092   6.260  0.5737 -0.2666 -1.1694
  127OSM   H15C13551   0.570   2.081   6.251 -1.4589  2.5873 -2.2393
  127OSM    C1413552   0.601   1.891   6.437 -0.4559 -0.1892  0.5085
  127OSM   H14A13553   0.688   1.925   6.382 -1.0680 -0.4713 -0.6630
  127OSM   H14B13554   0.624   1.786   6.450  2.5928  0.4752  1.4808
  127OSM   H14C13555   0.594   1.950   6.527 -0.8219  1.2712 -0.4482
  127OSM    C1313556   0.361   1.918   6.452 -0.1526 -0.2984 -0.2728
  127OSM   H13A13557   0.278   1.958   6.395  0.2529 -1.6779 -1.9061
  127OSM   H13B13558   0.387   1.983   6.534  0.2693  0.3369 -0.9048
  127OSM   H13C13559   0.330   1.819   6.480  1.5659 -1.6433 -2.7229
  127OSM    C1213560   0.456   1.836   6.238 -0.8262 -0.0988 -0.5328
  127OSM   H12A13561   0.547   1.829   6.180 -0.5516 -0.2289 -0.0898
  127OSM   H12B13562   0.382   1.886   6.178 -1.2088 -1.4601 -1.2332
  127OSM    C1113563   0.409   1.695   6.259  0.6913  0.4141  0.0644
  127OSM   H11A13564   0.385   1.649   6.161  0.2258  0.6105  0.0856
  127OSM   H11B13565   0.312   1.692   6.312  0.1282  1.7942 -0.8267
  127OSM      P13566   0.622   1.556   6.244  0.0059 -0.0037  0.1137
  127OSM    O1313567   0.602   1.425   6.182 -0.7705  0.4005  0.1248
  127OSM    O1413568   0.668   1.657   6.153 -0.7004  1.2295  0.2664
  127OSM    O1113569   0.741   1.542   6.355  0.3153 -0.2503  0.2050
  127OSM    O1213570   0.505   1.614   6.327 -0.4320  0.0056  0.3949
  127OSM    C1S13571   0.715   1.536   6.497  0.4289 -0.6074  0.3088
  127OSM    H1S13572   0.646   1.455   6.529  0.1162  0.2524  1.8774
  127OSM    H1T13573   0.667   1.627   6.538 -1.5981 -1.6809  0.4248
  127OSM     NF13574   0.852   1.483   6.720  0.5791 -0.2668 -0.9168
  127OSM    HNF13575   0.887   1.552   6.782  1.1445 -1.0164 -0.3837
  127OSM    C2S13576   0.848   1.514   6.579 -1.2707 -0.4875  0.7898
  127OSM    H2S13577   0.884   1.424   6.525 -1.0074 -0.8994  1.6325
  127OSM    C3S13578   0.937   1.638   6.552 -0.1169  0.5619 -0.5511
  127OSM    H3S13579   0.887   1.720   6.608 -1.4200 -0.5034 -0.1145
  127OSM     O313580   0.942   1.685   6.415 -0.2336  0.4004 -0.2685
  127OSM    HO313581   0.878   1.628   6.372 -0.2615  0.5094 -0.3726
  127OSM    C4S13582   1.074   1.612   6.602  0.1264  0.4058 -0.3805
  127OSM    H4S13583   1.123   1.533   6.543  1.0408  0.9839 -0.4176
  127OSM    C5S13584   1.142   1.672   6.705  0.3242  0.2626 -0.3896
  127OSM    H5S13585   1.084   1.748   6.759 -0.4507  0.2186 -1.1348
  127OSM    C6S13586   1.272   1.635   6.763 -1.2564 -0.7010 -0.7327
  127OSM    H6S13587   1.269   1.675   6.867 -1.8814 -2.3899 -0.0653
  127OSM    H6T13588   1.353   1.690   6.709 -0.2824 -1.5860 -0.2073
  127OSM    C7S13589   1.292   1.482   6.759  0.3015  0.1457  0.6059
  127OSM    H7S13590   1.298   1.452   6.653 -0.7395  1.7808  0.0469
  127OSM    H7T13591   1.201   1.438   6.804 -1.1215  2.0717 -0.2319
  127OSM    C8S13592   1.411   1.427   6.838  0.2944  0.1443 -0.0711
  127OSM    H8S13593   1.502   1.466   6.788  0.1379  0.5588 -0.0303
  127OSM    H8T13594   1.408   1.317   6.821  1.7172  0.3095 -1.6981
  127OSM    C9S13595   1.413   1.463   6.988 -0.2182 -0.0678  0.0469
  127OSM    H9S13596   1.439   1.571   6.997 -0.2843 -0.1513  1.4001
  127OSM    H9T13597   1.492   1.399   7.033 -0.2496 -1.3657 -1.6601
  127OSM   C10S13598   1.287   1.450   7.074  0.2168 -0.0315  0.1444
  127OSM   H10S13599   1.241   1.351   7.056 -1.3605  0.4443  1.2694
  127OSM   H10T13600   1.205   1.518   7.040  0.8680  0.3775 -0.6429
  127OSM   C11S13601   1.314   1.471   7.226 -0.2697  0.1685 -0.0137
  127OSM   H11S13602   1.353   1.569   7.259  0.1219  0.0656 -0.1681
  127OSM   H11T13603   1.397   1.400   7.249  1.4248  1.4726 -1.7907
  127OSM   C12S13604   1.182   1.446   7.306 -0.2321  0.0447 -0.1471
  127OSM   H12S13605   1.155   1.339   7.294  0.5024  0.1704 -5.0444
  127OSM   H12T13606   1.104   1.489   7.239 -1.1721  1.4801  1.7568
  127OSM   C13S13607   1.174   1.526   7.442  0.7371  0.4294 -0.3607
  127OSM   H13S13608   1.072   1.502   7.481  1.4404 -0.0744  1.2232
  127OSM   H13T13609   1.178   1.632   7.408 -0.0134  0.1441 -1.4022
  127OSM   C14S13610   1.282   1.485   7.541 -0.6128  0.3333  0.0618
  127OSM   H14S13611   1.382   1.502   7.496 -0.1376  2.1001  1.6624
  127OSM   H14T13612   1.268   1.379   7.571  1.7732 -0.0183  0.1427
  127OSM   C15S13613   1.275   1.575   7.670 -0.2528  0.0143  1.2728
  127OSM   H15S13614   1.174   1.584   7.715 -1.0878  0.1494 -0.5491
  127OSM   H15T13615   1.300   1.677   7.633  2.7997 -0.3878  1.9489
  127OSM   C16S13616   1.375   1.535   7.785  0.1968 -0.4191  0.4491
  127OSM   H16S13617   1.482   1.518   7.759 -0.1305 -0.9872 -0.5886
  127OSM   H16T13618   1.346   1.432   7.817  3.5114 -2.1963 -1.6819
  127OSM   C17S13619   1.369   1.623   7.906  0.6281 -0.1446  0.6633
  127OSM   H17S13620   1.279   1.595   7.965  0.0688  0.2156 -0.0085
  127OSM   H17T13621   1.350   1.727   7.874  1.4054 -0.7073 -1.8641
  127OSM   C18S13622   1.492   1.621   7.996 -0.4464  0.9048 -0.8356
  127OSM   H18S13623   1.536   1.519   8.006 -0.8189  0.8655  0.7259
  127OSM   H18T13624   1.468   1.666   8.095 -0.0757 -1.8055  0.6053
  127OSM   H18U13625   1.576   1.683   7.959 -0.6129  0.6180 -1.7085
  127OSM    C1F13626   0.810   1.374   6.777  0.0167  0.3529  0.3242
  127OSM     OF13627   0.737   1.300   6.713  0.6252 -0.0552  0.2355
  127OSM    C2F13628   0.865   1.345   6.918 -0.0793 -0.7890  0.5265
  127OSM    H2F13629   0.968   1.387   6.926  0.2772 -1.7580  1.1811
  127OSM    H2G13630   0.879   1.236   6.933  0.4874 -0.9237 -0.8130
  127OSM    C3F13631   0.782   1.386   7.040  0.4420 -0.1219  0.8692
  127OSM    H3F13632   0.674   1.360   7.031  0.8405 -1.5639  0.0037
  127OSM    H3G13633   0.784   1.497   7.049 -1.7448 -0.0748  1.3141
  127OSM    C4F13634   0.832   1.330   7.174  0.4640 -0.0222 -0.2084
  127OSM    H4F13635   0.936   1.370   7.181  0.8901 -1.0742 -0.3152
  127OSM    H4G13636   0.831   1.219   7.171 -0.5820 -0.0647  0.8241
  127OSM    C5F13637   0.733   1.364   7.290 -0.7652  0.2399 -1.2025
  127OSM    H5F13638   0.660   1.280   7.287  0.2370 -0.7263  0.2556
  127OSM    H5G13639   0.670   1.454   7.275 -1.6794 -0.3539 -1.0395
  127OSM    C6F13640   0.812   1.364   7.422  0.5584  0.0571 -0.1825
  127OSM    H6F13641   0.859   1.464   7.430 -0.3782  0.6902 -2.0280
  127OSM    H6G13642   0.889   1.283   7.420 -0.0097 -0.8527  4.0994
  127OSM    C7F13643   0.718   1.332   7.538 -0.3179  0.5475 -0.2350
  127OSM    H7F13644   0.785   1.324   7.626 -1.0035 -0.7016  0.2057
  127OSM    H7G13645   0.654   1.241   7.530 -3.3458  2.6277 -1.7320
  127OSM    C8F13646   0.620   1.450   7.557  0.3123  0.6007 -0.7938
  127OSM    H8F13647   0.536   1.458   7.484 -1.4442 -0.4457  1.0398
  127OSM    H8G13648   0.686   1.537   7.538  1.3857 -0.2172 -0.8716
  127OSM    C9F13649   0.562   1.444   7.698 -0.1453  0.1910  0.0947
  127OSM    H9F13650   0.471   1.386   7.716 -1.0321  1.9087  1.4151
  127OSM   C10F13651   0.613   1.502   7.812 -0.2969  0.1368  0.4412
  127OSM   H10F13652   0.558   1.485   7.906 -0.7905  1.9793  0.5250
  127OSM   C11F13653   0.739   1.579   7.824 -0.8247 -0.0280 -0.5587
  127OSM   H11F13654   0.722   1.671   7.884 -0.2268  1.3560 -2.4197
  127OSM   H11G13655   0.775   1.611   7.724  1.1378  0.1262  0.1558
  127OSM   C12F13656   0.850   1.501   7.886  0.4672  0.7908  0.3107
  127OSM   H12F13657   0.936   1.567   7.864  1.5322 -0.9884 -1.2079
  127OSM   H12G13658   0.862   1.404   7.832  2.9166  1.9742 -1.4619
  127OSM   C13F13659   0.843   1.477   8.036  0.4372 -1.0993  0.1845
  127OSM   H13F13660   0.767   1.399   8.056 -0.5572 -0.6983 -1.7571
  127OSM   H13G13661   0.803   1.570   8.085  2.0752 -0.5765  0.5805
  127OSM   C14F13662   0.985   1.448   8.095  0.0857 -0.3922 -0.1308
  127OSM   H14F13663   1.044   1.534   8.058 -1.1178 -0.3291 -2.0092
  127OSM   H14G13664   1.031   1.356   8.054  2.9506  1.0796 -0.5089
  127OSM   C15F13665   0.968   1.434   8.251 -0.0466 -0.5829  0.1667
  127OSM   H15F13666   1.058   1.381   8.291  0.3198  0.0776  0.2323
  127OSM   H15G13667   0.878   1.374   8.276 -0.6133  0.6441  1.1752
  127OSM   C16F13668   0.977   1.575   8.315  0.0245  0.2870  1.0626
  127OSM   H16F13669   0.885   1.632   8.288  0.8026  0.8892 -0.4371
  127OSM   H16G13670   1.061   1.633   8.272 -0.7691 -0.2171 -1.3342
  127OSM   C17F13671   0.984   1.576   8.465 -0.2930  0.3538 -0.2072
  127OSM   H17F13672   0.964   1.676   8.508 -1.7785 -0.5665  1.3428
  127OSM   H17G13673   1.090   1.552   8.490  0.1894  0.7953 -1.6988
  127OSM   C18F13674   0.885   1.484   8.544  0.2009 -0.1889  0.0537
  127OSM   H18F13675   0.781   1.519   8.528 -0.2711 -1.6712 -0.2217
  127OSM   H18G13676   0.911   1.506   8.650 -0.1968  0.4583  0.0225
  127OSM   H18H13677   0.900   1.375   8.531 -2.7570 -0.6173 -0.2655
  128OSM      N13678   2.675   6.312   6.375  0.1356 -0.0502  0.0273
  128OSM    C1513679   2.756   6.436   6.399  0.1106  0.0649  0.3479
  128OSM   H15A13680   2.855   6.424   6.439  0.9172 -3.8476 -2.2776
  128OSM   H15B13681   2.698   6.498   6.466 -0.4722  0.2265 -0.2964
  128OSM   H15C13682   2.771   6.491   6.307  1.5276 -0.4832  0.2283
  128OSM    C1413683   2.525   6.344   6.372  0.6576 -0.3428  0.1707
  128OSM   H14A13684   2.476   6.254   6.337  1.0017 -0.0566 -1.0922
  128OSM   H14B13685   2.507   6.430   6.309 -0.2370  0.4418  1.4449
  128OSM   H14C13686   2.487   6.364   6.472 -1.8714  1.1272 -0.9913
  128OSM    C1313687   2.704   6.261   6.240  0.9122  0.1065 -1.0700
  128OSM   H13A13688   2.811   6.248   6.227  1.0206 -0.6410  0.3752
  128OSM   H13B13689   2.657   6.324   6.166  0.0659  0.5271 -0.2042
  128OSM   H13C13690   2.652   6.168   6.226  1.4238 -0.7710  2.0047
  128OSM    C1213691   2.704   6.218   6.493  0.2846 -0.7716  0.0211
  128OSM   H12A13692   2.700   6.271   6.587 -1.8139 -0.8131  0.0130
  128OSM   H12B13693   2.809   6.197   6.485  0.6361 -1.1930  3.7584
  128OSM    C1113694   2.619   6.092   6.505 -0.7158  0.0380  0.4180
  128OSM   H11A13695   2.517   6.129   6.530 -1.5701 -0.2040 -2.4295
  128OSM   H11B13696   2.655   6.025   6.586  1.5408  0.1276 -0.4333
  128OSM      P13697   2.535   5.896   6.360 -0.5351 -0.3165 -0.0888
  128OSM    O1313698   2.391   5.942   6.376 -0.0595  0.9858  0.4370
  128OSM    O1413699   2.570   5.830   6.231 -0.0377 -0.3261  0.0708
  128OSM    O1113700   2.571   5.797   6.484  0.8122 -0.0202  0.3100
  128OSM    O1213701   2.634   6.021   6.383 -0.5465 -0.1143  0.3106
  128OSM    C1S13702   2.505   5.664   6.474 -0.1009 -0.3690 -0.1989
  128OSM    H1S13703   2.556   5.601   6.398  0.1861 -2.8180  1.8631
  128OSM    H1T13704   2.398   5.683   6.449  0.8952  2.1045 -3.1610
  128OSM     NF13705   2.469   5.455   6.591  0.3678  0.5784  0.0000
  128OSM    HNF13706   2.386   5.435   6.643  0.1190  0.1584 -0.5493
  128OSM    C2S13707   2.524   5.588   6.609 -0.0846  0.1041  0.2546
  128OSM    H2S13708   2.633   5.600   6.625 -0.2449  0.4064  1.1667
  128OSM    C3S13709   2.466   5.672   6.730  0.6812 -0.5232  0.2155
  128OSM    H3S13710   2.356   5.688   6.721  0.2928 -0.0163  3.9586
  128OSM     O313711   2.520   5.802   6.741 -0.7071 -0.2376  0.1786
  128OSM    HO313712   2.539   5.815   6.648 -1.0616 -0.2968  0.0950
  128OSM    C4S13713   2.497   5.603   6.863  0.6269 -0.0454 -0.1422
  128OSM    H4S13714   2.602   5.583   6.887  0.4172  0.5201  1.3563
  128OSM    C5S13715   2.405   5.574   6.951 -0.0633  0.0147  0.0540
  128OSM    H5S13716   2.303   5.601   6.922 -0.1422 -0.6369 -0.2931
  128OSM    C6S13717   2.427   5.511   7.085 -0.3931 -0.3003 -0.0154
  128OSM    H6S13718   2.526   5.462   7.093  0.0765 -0.0455 -3.1280
  128OSM    H6T13719   2.356   5.426   7.098  0.6893 -1.6340 -2.2952
  128OSM    C7S13720   2.434   5.602   7.204  0.1715  0.3162  0.7872
  128OSM    H7S13721   2.337   5.656   7.210 -1.4405 -2.4905  2.1376
  128OSM    H7T13722   2.516   5.676   7.191 -1.1628  1.5293 -1.3631
  128OSM    C8S13723   2.467   5.525   7.333 -0.3856  0.6933 -0.8212
  128OSM    H8S13724   2.555   5.457   7.329  0.7827  1.8254  2.3595
  128OSM    H8T13725   2.385   5.456   7.361 -0.9081  1.4082 -0.5560
  128OSM    C9S13726   2.477   5.623   7.451  0.1183  0.3491  0.1054
  128OSM    H9S13727   2.396   5.697   7.433  0.3365 -0.0606 -3.1728
  128OSM    H9T13728   2.577   5.668   7.432  0.1345 -0.4672 -2.0497
  128OSM   C10S13729   2.465   5.555   7.584  0.3795 -0.0883 -0.3802
  128OSM   H10S13730   2.560   5.499   7.596  1.0371  0.8329 -1.1584
  128OSM   H10T13731   2.374   5.492   7.571 -0.7597  1.3445  0.2995
  128OSM   C11S13732   2.455   5.648   7.706  0.3460 -0.2483  0.7084
  128OSM   H11S13733   2.348   5.676   7.722 -0.4046 -3.0738  1.2068
  128OSM   H11T13734   2.507   5.743   7.682  0.7665 -1.1370 -2.2181
  128OSM   C12S13735   2.510   5.584   7.827  0.0314  0.2898 -0.5194
  128OSM   H12S13736   2.465   5.485   7.848  1.2075 -0.1734 -0.0968
  128OSM   H12T13737   2.477   5.646   7.913  0.5009 -0.5632  0.2863
  128OSM   C13S13738   2.661   5.568   7.843  0.5447  0.5054  0.5198
  128OSM   H13S13739   2.700   5.672   7.842 -1.1957  1.3467 -3.7454
  128OSM   H13T13740   2.702   5.527   7.748  0.0837  1.5619 -0.1615
  128OSM   C14S13741   2.690   5.481   7.968  0.7796  0.3436 -0.2389
  128OSM   H14S13742   2.795   5.449   7.953  0.3963 -0.8979 -0.3568
  128OSM   H14T13743   2.623   5.392   7.972  0.4767  0.3752 -2.8081
  128OSM   C15S13744   2.677   5.563   8.098  0.2795  0.0742  0.3593
  128OSM   H15S13745   2.675   5.485   8.177 -2.9938 -1.1435 -0.7727
  128OSM   H15T13746   2.587   5.628   8.090  0.0239 -0.5202 -3.3024
  128OSM   C16S13747   2.797   5.648   8.128 -0.1984 -0.3365 -0.3138
  128OSM   H16S13748   2.796   5.743   8.070 -1.3374  0.2002  0.5307
  128OSM   H16T13749   2.888   5.591   8.102  1.3833  1.0471  1.8645
  128OSM   C17S13750   2.788   5.688   8.280 -0.1139 -0.4875  0.0443
  128OSM   H17S13751   2.793   5.587   8.326 -0.5193 -1.0422 -1.1132
  128OSM   H17T13752   2.692   5.741   8.298 -0.3888 -1.6065  2.1577
  128OSM   C18S13753   2.912   5.768   8.319  0.2304  0.8147 -0.3584
  128OSM   H18S13754   2.896   5.868   8.273  2.1798  0.5668 -1.7047
  128OSM   H18T13755   3.010   5.739   8.278  0.2081 -0.3611  0.3727
  128OSM   H18U13756   2.912   5.786   8.429  2.9059  0.5721 -0.2653
  128OSM    C1F13757   2.524   5.358   6.518  0.3829  0.2451  0.0644
  128OSM     OF13758   2.627   5.372   6.453  0.4632  0.1273  0.1430
  128OSM    C2F13759   2.439   5.227   6.507 -0.6520 -0.4989 -0.1245
  128OSM    H2F13760   2.473   5.177   6.413 -0.4265  0.5201 -0.6028
  128OSM    H2G13761   2.332   5.252   6.489 -0.9856 -2.2162 -0.6719
  128OSM    C3F13762   2.442   5.142   6.626 -0.7368  0.6017  0.4165
  128OSM    H3F13763   2.368   5.062   6.603  0.3725  0.7088 -4.4655
  128OSM    H3G13764   2.413   5.195   6.720 -1.4064 -0.3627  0.7771
  128OSM    C4F13765   2.573   5.061   6.649 -0.9235 -0.8815 -0.4618
  128OSM    H4F13766   2.649   5.135   6.682 -0.2366 -2.5453  1.8920
  128OSM    H4G13767   2.610   5.023   6.551  0.4353  0.7701 -0.6428
  128OSM    C5F13768   2.589   4.960   6.767  0.0849  0.2726 -0.0429
  128OSM    H5F13769   2.690   4.913   6.777 -0.6008 -1.2153  0.0885
  128OSM    H5G13770   2.520   4.882   6.730 -0.2701  0.3893  0.3652
  128OSM    C6F13771   2.538   5.015   6.905  0.8617  0.1234  0.0387
  128OSM    H6F13772   2.428   5.013   6.919  0.7575  1.2047 -0.5399
  128OSM    H6G13773   2.560   5.123   6.897 -0.6783  0.3779 -1.2546
  128OSM    C7F13774   2.602   4.963   7.028  0.0495  0.3552  0.1647
  128OSM    H7F13775   2.710   4.953   7.002  0.2911 -0.3448  1.3694
  128OSM    H7G13776   2.577   4.856   7.044  1.4282  0.1542  1.1900
  128OSM    C8F13777   2.591   5.052   7.155  0.3569 -0.1891  0.3911
  128OSM    H8F13778   2.666   5.130   7.129  0.1533  0.1876  0.9208
  128OSM    H8G13779   2.635   5.001   7.244 -0.9758 -0.9085  0.6704
  128OSM    C9F13780   2.448   5.109   7.179 -0.7490  0.1739 -0.0344
  128OSM    H9F13781   2.396   5.157   7.094  0.9630 -1.0310 -1.8575
  128OSM   C10F13782   2.381   5.105   7.294  0.4093  0.0417 -0.2667
  128OSM   H10F13783   2.283   5.155   7.298  0.2478 -0.2986  0.2504
  128OSM   C11F13784   2.423   5.050   7.427  0.2918 -0.2114 -0.7348
  128OSM   H11F13785   2.526   5.009   7.425 -0.0578 -1.1293 -0.3849
  128OSM   H11G13786   2.361   4.964   7.460 -0.8185  1.3018  1.3700
  128OSM   C12F13787   2.423   5.162   7.538  0.3530  0.6101 -0.3951
  128OSM   H12F13788   2.319   5.199   7.539 -0.0777 -0.5687  1.3038
  128OSM   H12G13789   2.483   5.254   7.518 -1.1312  1.4693 -1.0370
  128OSM   C13F13790   2.444   5.105   7.674 -0.3610  0.1230 -0.0399
  128OSM   H13F13791   2.548   5.067   7.681 -0.4566 -0.0862  0.2451
  128OSM   H13G13792   2.361   5.035   7.700  0.7096 -0.5924  1.6019
  128OSM   C14F13793   2.438   5.204   7.799  0.9110 -0.2388 -0.2017
  128OSM   H14F13794   2.349   5.265   7.769  1.0974  0.0373 -0.1939
  128OSM   H14G13795   2.527   5.270   7.805  2.0650 -1.7163 -0.4508
  128OSM   C15F13796   2.419   5.132   7.926  0.4293 -0.1587  0.0323
  128OSM   H15F13797   2.514   5.076   7.942 -0.4592 -2.0378 -0.8823
  128OSM   H15G13798   2.331   5.064   7.923 -0.2343  0.6300  1.0606
  128OSM   C16F13799   2.397   5.226   8.045  1.0573  0.5737 -0.0898
  128OSM   H16F13800   2.307   5.284   8.016  0.3220 -0.1149  0.7600
  128OSM   H16G13801   2.480   5.298   8.064  0.1999  0.7654  3.6767
  128OSM   C17F13802   2.362   5.146   8.174 -0.0710 -0.9177  0.9631
  128OSM   H17F13803   2.455   5.095   8.204  0.9708  0.5744  0.3997
  128OSM   H17G13804   2.281   5.074   8.150 -0.5306  0.2655 -1.3839
  128OSM   C18F13805   2.328   5.248   8.280 -0.0121 -0.2317 -0.2424
  128OSM   H18F13806   2.424   5.297   8.309  0.6574 -0.7631 -1.4700
  128OSM   H18G13807   2.279   5.187   8.359 -0.0312  0.8349  0.5983
  128OSM   H18H13808   2.254   5.327   8.254 -0.8388  0.0148  2.5553
  129OSM      N13809   0.024   0.859   6.355  0.1173 -0.2383  0.3604
  129OSM    C1513810   0.173   0.871   6.351  0.0593 -0.2420  0.5038
  129OSM   H15A13811   0.212   0.971   6.359  2.3529 -1.1821  2.2686
  129OSM   H15B13812   0.209   0.831   6.257  1.5444  0.0869  0.9073
  129OSM   H15C13813   0.219   0.813   6.430  0.9702 -0.8649 -0.4560
  129OSM    C1413814  -0.031   0.950   6.243 -0.1715  0.7065  0.2910
  129OSM   H14A13815  -0.006   1.052   6.269  2.4209  0.1766  0.1101
  129OSM   H14B13816  -0.135   0.930   6.219  0.1091  0.8454 -1.0682
  129OSM   H14C13817   0.013   0.935   6.146 -2.4868  0.4152 -0.7751
  129OSM    C1313818  -0.005   0.715   6.317  0.3801 -0.4199  0.4405
  129OSM   H13A13819  -0.113   0.714   6.322  0.3427  2.1532  1.8594
  129OSM   H13B13820   0.031   0.640   6.386  0.6246 -0.9804 -0.2828
  129OSM   H13C13821   0.029   0.697   6.216  3.4496 -0.0689  1.3309
  129OSM    C1213822  -0.028   0.897   6.490 -0.0369  0.8299 -0.6165
  129OSM   H12A13823   0.002   0.997   6.518  0.3939  0.3296  0.8220
  129OSM   H12B13824   0.024   0.844   6.568  1.4485  1.0567 -1.4178
  129OSM    C1113825  -0.184   0.896   6.509  0.2753 -0.1514  0.0448
  129OSM   H11A13826  -0.229   0.960   6.431 -0.2758 -0.4728  0.0903
  129OSM   H11B13827  -0.216   0.955   6.598 -1.2891 -0.1423 -0.5025
  129OSM      P13828  -0.372   0.729   6.442 -0.1769 -0.2394  0.1480
  129OSM    O1313829  -0.388   0.799   6.311 -0.5671  0.0576 -0.1588
  129OSM    O1413830  -0.372   0.585   6.429 -0.1295  0.4359 -0.0994
  129OSM    O1113831  -0.485   0.768   6.543  0.5862  0.4179  0.1637
  129OSM    O1213832  -0.240   0.767   6.515 -0.2372  0.0867 -0.2499
  129OSM    C1S13833  -0.496   0.696   6.669  0.3059  0.3338 -0.4128
  129OSM    H1S13834  -0.471   0.590   6.651 -1.4570  0.4037 -4.2674
  129OSM    H1T13835  -0.602   0.699   6.700  0.1405 -2.1435 -0.6006
  129OSM     NF13836  -0.426   0.672   6.899  0.2701 -0.1435  0.0683
  129OSM    HNF13837  -0.492   0.699   6.969  0.6534 -0.2841  0.4853
  129OSM    C2S13838  -0.418   0.762   6.783 -0.0128 -0.1135  0.0163
  129OSM    H2S13839  -0.309   0.773   6.764 -0.2798  0.8387 -1.1077
  129OSM    C3S13840  -0.465   0.904   6.800  1.0797 -0.9025  0.8991
  129OSM    H3S13841  -0.568   0.906   6.841  1.0884 -0.4391  0.9085
  129OSM     O313842  -0.470   0.976   6.677  0.2070  0.2478 -0.0956
  129OSM    HO313843  -0.455   0.903   6.617  0.6926  0.1316  0.1634
  129OSM    C4S13844  -0.383   0.970   6.910  0.2587  0.1769  0.9048
  129OSM    H4S13845  -0.385   0.919   7.007 -1.6423 -1.8614 -0.1140
  129OSM    C5S13846  -0.307   1.078   6.899 -0.1607  0.8449  0.0993
  129OSM    H5S13847  -0.303   1.136   6.805  1.6631  0.5347 -0.0545
  129OSM    C6S13848  -0.222   1.147   7.006  0.4697 -0.8568  0.3223
  129OSM    H6S13849  -0.264   1.249   7.012 -1.2603 -1.5309  0.1261
  129OSM    H6T13850  -0.113   1.149   6.982  0.0801  1.1720 -1.5529
  129OSM    C7S13851  -0.240   1.092   7.149 -0.3602 -0.7174  0.0127
  129OSM    H7S13852  -0.199   0.990   7.162 -1.3018 -1.1684 -0.4489
  129OSM    H7T13853  -0.346   1.090   7.181 -0.8784 -2.6166 -1.6812
  129OSM    C8S13854  -0.170   1.193   7.249  0.0942  1.3655  0.2663
  129OSM    H8S13855  -0.227   1.287   7.234 -2.1242  0.0004 -0.2914
  129OSM    H8T13856  -0.064   1.213   7.224 -0.4484  0.9627 -2.7324
  129OSM    C9S13857  -0.157   1.145   7.391 -0.0922  0.2951  0.3284
  129OSM    H9S13858  -0.088   1.059   7.379  0.2753  0.8010 -1.5481
  129OSM    H9T13859  -0.250   1.105   7.435 -0.9149  2.6354  0.8780
  129OSM   C10S13860  -0.086   1.236   7.491  0.8991  0.2527  1.0675
  129OSM   H10S13861  -0.115   1.342   7.470 -1.8746 -0.7024 -0.4245
  129OSM   H10T13862   0.018   1.222   7.455  0.1989  0.8978 -1.3951
  129OSM   C11S13863  -0.110   1.184   7.633  0.0130 -0.0585  0.8642
  129OSM   H11S13864  -0.119   1.074   7.626  0.7399 -0.1068  0.5157
  129OSM   H11T13865  -0.209   1.225   7.660 -0.5606 -0.2545 -0.8631
  129OSM   C12S13866  -0.003   1.227   7.739 -0.0597  0.7850  0.2187
  129OSM   H12S13867  -0.036   1.333   7.752  2.6732  1.8433 -0.7526
  129OSM   H12T13868   0.099   1.243   7.699 -0.2456  0.3138 -0.4722
  129OSM   C13S13869   0.002   1.146   7.868  0.8519  0.5573  0.2017
  129OSM   H13S13870   0.082   1.070   7.862 -1.8972 -2.4495 -1.4010
  129OSM   H13T13871  -0.099   1.100   7.878  1.8451 -2.3781 -1.8957
  129OSM   C14S13872   0.019   1.235   7.992 -0.2406  0.2634  0.0676
  129OSM   H14S13873  -0.070   1.301   7.993 -0.6419 -0.2395 -0.8403
  129OSM   H14T13874   0.105   1.305   7.988  0.5178 -0.5213  1.7233
  129OSM   C15S13875   0.013   1.161   8.129  0.0031  0.0789 -0.1808
  129OSM   H15S13876   0.086   1.077   8.119  0.0162  0.3013 -2.3171
  129OSM   H15T13877  -0.086   1.113   8.145  0.3888 -0.8390 -0.4491
  129OSM   C16S13878   0.045   1.246   8.252 -0.3724 -0.1934 -1.2900
  129OSM   H16S13879  -0.022   1.335   8.261  0.3939  0.2202  1.3727
  129OSM   H16T13880   0.151   1.280   8.249 -1.0573  2.3533  0.0863
  129OSM   C17S13881   0.025   1.171   8.388  0.5953  0.4625 -0.1225
  129OSM   H17S13882  -0.070   1.114   8.378  1.5146 -1.9627  3.0503
  129OSM   H17T13883   0.017   1.245   8.470  1.5396  1.8230 -1.2102
  129OSM   C18S13884   0.131   1.064   8.430  0.4769 -0.0161  0.1172
  129OSM   H18S13885   0.103   1.017   8.527 -0.0347  1.6032  0.8056
  129OSM   H18T13886   0.235   1.104   8.430  0.2965  0.5398 -2.0167
  129OSM   H18U13887   0.135   0.981   8.358  3.5327  0.3417 -0.2960
  129OSM    C1F13888  -0.354   0.559   6.908 -0.0571 -0.2719 -0.1458
  129OSM     OF13889  -0.274   0.519   6.824 -0.5697  0.2471 -0.1168
  129OSM    C2F13890  -0.387   0.471   7.021 -1.0158  0.2979 -0.0457
  129OSM    H2F13891  -0.429   0.381   6.971  0.2516  0.4240 -1.3770
  129OSM    H2G13892  -0.463   0.518   7.087 -0.1855 -0.7005  1.6859
  129OSM    C3F13893  -0.263   0.436   7.105  0.0618 -0.2557 -0.0364
  129OSM    H3F13894  -0.232   0.524   7.166 -0.5076 -0.8878  1.1891
  129OSM    H3G13895  -0.173   0.409   7.047  1.6139  0.6378  1.8372
  129OSM    C4F13896  -0.289   0.332   7.205  0.4232  0.1084 -0.5839
  129OSM    H4F13897  -0.187   0.291   7.223  0.2412  0.6112  1.8607
  129OSM    H4G13898  -0.356   0.247   7.180  0.5380 -0.1993  0.1414
  129OSM    C5F13899  -0.342   0.396   7.337  0.3282 -0.3681  0.8138
  129OSM    H5F13900  -0.442   0.440   7.318  0.1537 -0.8818  0.5112
  129OSM    H5G13901  -0.281   0.477   7.382 -0.4380  0.3370  0.5954
  129OSM    C6F13902  -0.358   0.300   7.449  0.1393 -0.2020  0.2359
  129OSM    H6F13903  -0.263   0.256   7.486  0.6117 -0.3920 -1.1306
  129OSM    H6G13904  -0.415   0.211   7.415 -0.6454  0.8182 -1.2347
  129OSM    C7F13905  -0.433   0.369   7.568  0.1701 -0.4736  0.3729
  129OSM    H7F13906  -0.533   0.396   7.528  0.3766 -1.5630 -0.9165
  129OSM    H7G13907  -0.386   0.458   7.615  0.8355 -1.4321  1.5795
  129OSM    C8F13908  -0.453   0.269   7.685  0.3102 -0.0041  0.3604
  129OSM    H8F13909  -0.362   0.264   7.747 -0.2898  2.6739  1.6354
  129OSM    H8G13910  -0.469   0.173   7.631  0.8168  1.1505 -1.9958
  129OSM    C9F13911  -0.567   0.317   7.771  0.1643  0.2157  0.6319
  129OSM    H9F13912  -0.663   0.322   7.717  0.2207 -1.6223  0.2866
  129OSM   C10F13913  -0.571   0.350   7.897 -0.2317  0.0574 -0.0634
  129OSM   H10F13914  -0.660   0.394   7.944  2.6787  2.2599  4.0402
  129OSM   C11F13915  -0.451   0.353   7.987  0.5093 -0.2621  0.4575
  129OSM   H11F13916  -0.358   0.357   7.926 -0.0743  2.0831 -0.3571
  129OSM   H11G13917  -0.455   0.261   8.051 -0.7897 -0.8968 -0.4956
  129OSM   C12F13918  -0.446   0.470   8.089 -0.7037 -0.5916 -0.3308
  129OSM   H12F13919  -0.546   0.473   8.137 -0.7277  0.6834 -0.4333
  129OSM   H12G13920  -0.441   0.563   8.029 -2.1741  1.0533  1.9545
  129OSM   C13F13921  -0.334   0.455   8.197  0.8036  0.3759  0.0793
  129OSM   H13F13922  -0.237   0.460   8.143  0.3745  0.9210 -0.6551
  129OSM   H13G13923  -0.351   0.368   8.263 -1.2342  1.1123  0.6004
  129OSM   C14F13924  -0.317   0.575   8.296 -0.4126  0.1119  0.0865
  129OSM   H14F13925  -0.416   0.592   8.343  0.8672 -1.0633  3.4454
  129OSM   H14G13926  -0.280   0.665   8.243 -1.5188 -0.7839 -2.3673
  129OSM   C15F13927  -0.225   0.560   8.413  0.2511  0.1704 -0.1836
  129OSM   H15F13928  -0.130   0.520   8.371 -0.0936 -1.1677  0.2617
  129OSM   H15G13929  -0.254   0.480   8.484  2.0628  0.2476  0.7239
  129OSM   C16F13930  -0.205   0.696   8.489  0.1381  0.0708 -0.7985
  129OSM   H16F13931  -0.291   0.718   8.555 -1.2588 -3.8693 -1.0492
  129OSM   H16G13932  -0.199   0.781   8.417  0.4965  0.4600 -0.3155
  129OSM   C17F13933  -0.073   0.683   8.570  0.5584  0.1618  0.3862
  129OSM   H17F13934   0.009   0.654   8.500 -0.9796  0.8749 -1.8388
  129OSM   H17G13935  -0.094   0.596   8.635  2.2280  0.6739  1.6652
  129OSM   C18F13936  -0.040   0.811   8.648  0.0987 -0.3412 -0.2362
  129OSM   H18F13937   0.058   0.807   8.701  0.2990  0.0503 -0.5699
  129OSM   H18G13938  -0.120   0.818   8.724  0.9864  1.0369  0.6308
  129OSM   H18H13939  -0.042   0.902   8.583 -2.5249 -1.2119 -1.4909
  130OSM      N13940   2.452   4.900   6.150  0.6772 -0.6018  0.0897
  130OSM    C1513941   2.363   4.920   6.027  0.2865  0.1622 -0.0441
  130OSM   H15A13942   2.347   5.023   6.001  0.3597 -0.1828 -1.6081
  130OSM   H15B13943   2.272   4.862   6.031 -0.8028  1.4950 -2.7776
  130OSM   H15C13944   2.408   4.871   5.942 -0.0991 -1.1653  0.4899
  130OSM    C1413945   2.565   4.990   6.115  0.1356  0.1482 -0.2660
  130OSM   H14A13946   2.589   4.954   6.016 -2.8993 -0.7893 -0.7555
  130OSM   H14B13947   2.641   4.977   6.191 -0.6523 -0.2949  0.4590
  130OSM   H14C13948   2.541   5.096   6.114  2.6859  0.7977 -0.6111
  130OSM    C1313949   2.388   4.942   6.276 -0.5998 -0.5707  0.1098
  130OSM   H13A13950   2.389   5.047   6.297 -1.0932 -0.6136  0.3683
  130OSM   H13B13951   2.443   4.901   6.359 -1.9674 -0.4774  1.1006
  130OSM   H13C13952   2.288   4.901   6.283 -0.2307 -1.1877  3.8126
  130OSM    C1213953   2.500   4.759   6.157  0.5506 -0.0688 -0.3628
  130OSM   H12A13954   2.569   4.756   6.240  0.5400  0.7729 -0.3062
  130OSM   H12B13955   2.557   4.736   6.069 -0.3291 -3.9277 -0.1076
  130OSM    C1113956   2.394   4.648   6.174 -0.2008 -0.2132  0.3944
  130OSM   H11A13957   2.455   4.556   6.161 -1.6404 -1.5431  2.4108
  130OSM   H11B13958   2.331   4.667   6.084 -1.5432  1.0666  1.5625
  130OSM      P13959   2.178   4.598   6.293  0.1697 -0.2584 -0.2576
  130OSM    O1313960   2.093   4.717   6.295  0.1274 -0.8539  0.4770
  130OSM    O1413961   2.160   4.500   6.185  0.7019 -0.2412 -0.5455
  130OSM    O1113962   2.180   4.522   6.430  0.1154  0.0789  0.0287
  130OSM    O1213963   2.330   4.654   6.295  0.4489  0.7752 -0.1753
  130OSM    C1S13964   2.292   4.451   6.477  0.0784  0.1364  0.4794
  130OSM    H1S13965   2.386   4.510   6.477 -0.5911  1.2759  1.7474
  130OSM    H1T13966   2.321   4.367   6.411 -0.5520  0.0634  0.2855
  130OSM     NF13967   2.397   4.353   6.683 -0.6289  0.1606 -0.4399
  130OSM    HNF13968   2.387   4.256   6.702 -1.9653 -0.3243 -3.0726
  130OSM    C2S13969   2.276   4.398   6.624 -0.5983  0.0296 -0.4413
  130OSM    H2S13970   2.241   4.482   6.686  1.0516 -0.2666  0.9818
  130OSM    C3S13971   2.170   4.289   6.621  0.4991 -0.3230 -0.6381
  130OSM    H3S13972   2.198   4.207   6.551 -2.1425 -1.3725 -0.5644
  130OSM     O313973   2.040   4.343   6.580 -0.1313  0.2383 -0.1676
  130OSM    HO313974   2.056   4.429   6.540  2.6012 -0.2115 -0.1885
  130OSM    C4S13975   2.136   4.240   6.759 -0.3298  0.4316 -0.0707
  130OSM    H4S13976   2.094   4.319   6.823 -0.9320 -1.0863  1.4899
  130OSM    C5S13977   2.143   4.107   6.792 -0.2601  0.2579 -0.1194
  130OSM    H5S13978   2.169   4.030   6.718  1.0168  0.5588  0.0033
  130OSM    C6S13979   2.129   4.055   6.934 -0.4044 -0.2907 -0.7325
  130OSM    H6S13980   2.220   4.002   6.970 -0.8850  0.5268  1.8786
  130OSM    H6T13981   2.043   3.985   6.935 -0.4646 -0.2091  0.1859
  130OSM    C7S13982   2.106   4.175   7.031 -0.2762  0.4579  0.1089
  130OSM    H7S13983   2.011   4.233   7.022  1.6204  3.4501 -3.6895
  130OSM    H7T13984   2.191   4.244   7.013 -0.6365  0.7047 -0.6885
  130OSM    C8S13985   2.113   4.133   7.176 -0.5174 -0.2518  0.4708
  130OSM    H8S13986   2.214   4.086   7.183  0.1295  1.1468  0.8222
  130OSM    H8T13987   2.032   4.059   7.193 -1.8493  1.1391  0.3824
  130OSM    C9S13988   2.117   4.249   7.284  0.4799  0.2937  0.4944
  130OSM    H9S13989   2.033   4.319   7.265 -0.1055  0.0756  2.1533
  130OSM    H9T13990   2.214   4.296   7.257  1.2834 -1.0614  0.8799
  130OSM   C10S13991   2.096   4.187   7.417 -0.3298  0.4542 -0.0094
  130OSM   H10S13992   2.168   4.105   7.439 -0.8079 -0.4138 -1.5789
  130OSM   H10T13993   1.997   4.138   7.411  0.4915 -1.2003 -0.5118
  130OSM   C11S13994   2.102   4.291   7.523  0.1061  0.5956 -0.0692
  130OSM   H11S13995   2.025   4.370   7.528 -0.4849  0.0146  0.2184
  130OSM   H11T13996   2.194   4.351   7.510  0.7148 -0.1623  0.5921
  130OSM   C12S13997   2.115   4.228   7.665 -0.0135  0.5653  0.4385
  130OSM   H12S13998   2.202   4.159   7.660 -1.8382 -1.7980 -3.2965
  130OSM   H12T13999   2.026   4.166   7.689  0.6895 -0.9897 -0.7438
  130OSM   C13S14000   2.143   4.339   7.767 -0.6952  0.1369 -0.6208
  130OSM   H13S14001   2.071   4.424   7.759 -2.2419 -1.0587  0.1016
  130OSM   H13T14002   2.243   4.385   7.749 -2.2698  3.4674 -1.7853
  130OSM   C14S14003   2.166   4.276   7.906  0.6181  0.0965  0.1804
  130OSM   H14S14004   2.270   4.236   7.910  0.0928 -1.3362 -0.0312
  130OSM   H14T14005   2.089   4.196   7.913  1.2546 -0.7180 -1.4237
  130OSM   C15S14006   2.156   4.390   8.011  0.6288 -0.0424 -0.0647
  130OSM   H15S14007   2.052   4.427   8.015  0.5938 -0.1792  0.2654
  130OSM   H15T14008   2.219   4.474   7.973  0.1944 -0.2533 -1.2865
  130OSM   C16S14009   2.207   4.354   8.148 -0.2014  0.2629  0.2405
  130OSM   H16S14010   2.170   4.435   8.214  1.3082  1.4576 -0.3030
  130OSM   H16T14011   2.317   4.364   8.131 -0.3761  1.6049 -0.2196
  130OSM   C17S14012   2.164   4.222   8.210 -0.2405  0.1950 -0.6225
  130OSM   H17S14013   2.218   4.208   8.306  0.8062  0.1500 -1.2000
  130OSM   H17T14014   2.196   4.138   8.144  1.5330  1.2350 -1.1477
  130OSM   C18S14015   2.011   4.200   8.229 -0.0461  0.1272 -0.3266
  130OSM   H18S14016   1.970   4.209   8.127  0.5817 -0.6857 -0.6639
  130OSM   H18T14017   1.966   4.273   8.300  0.8781  1.8155 -1.4045
  130OSM   H18U14018   2.002   4.100   8.276  0.5437  0.2356  0.0374
  130OSM    C1F14019   2.506   4.437   6.705  1.1940  0.2475 -0.2755
  130OSM     OF14020   2.474   4.553   6.713  0.0039 -0.5127 -0.4638
  130OSM    C2F14021   2.642   4.383   6.729 -0.5252 -0.8763 -0.6897
  130OSM    H2F14022   2.675   4.321   6.643  0.3575 -0.3375 -0.7441
  130OSM    H2G14023   2.642   4.322   6.822  1.2799  0.7541  0.4469
  130OSM    C3F14024   2.744   4.497   6.739  0.0641 -0.0330  0.2603
  130OSM    H3F14025   2.715   4.570   6.818 -3.0232 -3.6612  2.9240
  130OSM    H3G14026   2.752   4.534   6.635 -0.9267 -1.7673 -0.4823
  130OSM    C4F14027   2.891   4.445   6.756 -0.1994  0.3018  0.1505
  130OSM    H4F14028   2.952   4.537   6.755 -1.6087  1.2902  1.0378
  130OSM    H4G14029   2.918   4.388   6.665  2.5450  0.8590  0.5396
  130OSM    C5F14030   2.918   4.368   6.887 -0.2845 -0.0933  0.4390
  130OSM    H5F14031   2.898   4.262   6.860 -2.6685  0.1468  1.0568
  130OSM    H5G14032   2.854   4.392   6.974  0.9707  2.3576  0.7630
  130OSM    C6F14033   3.061   4.391   6.943 -0.1414 -0.5524  0.0639
  130OSM    H6F14034   3.086   4.484   6.999  0.2198  0.8159 -2.2403
  130OSM    H6G14035   3.135   4.377   6.861 -2.3664  0.1035 -2.1899
  130OSM    C7F14036   3.077   4.271   7.040 -0.7454 -0.0656  0.0264
  130OSM    H7F14037   3.098   4.180   6.981 -0.2444  0.2339 -0.2621
  130OSM    H7G14038   2.989   4.268   7.107 -0.4012  0.7163  0.5341
  130OSM    C8F14039   3.198   4.301   7.131 -0.0300  0.0191 -0.5098
  130OSM    H8F14040   3.207   4.406   7.166  1.1201 -0.1644 -0.1904
  130OSM    H8G14041   3.287   4.306   7.065 -0.7239  0.8458 -1.4157
  130OSM    C9F14042   3.212   4.190   7.235 -0.6774 -0.1903  0.0224
  130OSM    H9F14043   3.224   4.086   7.200  0.7450  0.4101 -1.3753
  130OSM   C10F14044   3.221   4.200   7.365 -0.3195  0.1333  0.6881
  130OSM   H10F14045   3.254   4.109   7.417 -2.7500 -0.4543  1.2907
  130OSM   C11F14046   3.218   4.332   7.442 -0.1479  0.4275 -0.3864
  130OSM   H11F14047   3.150   4.410   7.402 -0.3504  2.7878  3.9879
  130OSM   H11G14048   3.321   4.373   7.442  0.7291 -1.4305  2.4096
  130OSM   C12F14049   3.183   4.324   7.591  0.1059  0.7383  0.0999
  130OSM   H12F14050   3.241   4.401   7.647  0.6169  0.4541 -0.0273
  130OSM   H12G14051   3.233   4.233   7.630 -1.0541 -0.0875 -0.3131
  130OSM   C13F14052   3.033   4.327   7.610 -0.0989 -0.4241  0.4852
  130OSM   H13F14053   2.995   4.226   7.583  0.3376 -0.3518 -0.4591
  130OSM   H13G14054   2.991   4.395   7.532 -1.0298 -0.5424  0.8749
  130OSM   C14F14055   2.990   4.369   7.742  0.7082  0.3402  0.7398
  130OSM   H14F14056   2.880   4.383   7.732  0.7563  0.0120 -0.5147
  130OSM   H14G14057   3.026   4.469   7.773  0.6615 -0.1246  2.4130
  130OSM   C15F14058   3.026   4.267   7.855  0.1816  0.4015  0.1634
  130OSM   H15F14059   3.136   4.252   7.851  0.1052 -0.0015 -0.6368
  130OSM   H15G14060   2.970   4.172   7.839  2.4557 -1.2392  1.3967
  130OSM   C16F14061   2.987   4.319   7.996 -0.2704 -0.3897 -0.6340
  130OSM   H16F14062   2.876   4.316   7.995 -0.3040  0.3043  0.3364
  130OSM   H16G14063   3.007   4.427   8.008 -0.1745 -0.6282  1.9395
  130OSM   C17F14064   3.046   4.242   8.119  0.5254 -0.6039  0.9644
  130OSM   H17F14065   3.153   4.269   8.124  0.2994  0.5241 -0.0216
  130OSM   H17G14066   3.035   4.131   8.112  2.0662 -0.7706  0.7169
  130OSM   C18F14067   2.989   4.284   8.262  0.1462 -0.1239 -0.0518
  130OSM   H18F14068   3.050   4.243   8.345  0.0442  0.4754  0.3251
  130OSM   H18G14069   2.887   4.241   8.274 -1.4212  2.6093 -2.2545
  130OSM   H18H14070   2.979   4.392   8.284 -2.6859 -0.2572 -0.2766
  131OSM      N14071   0.451   5.772   6.084  0.2616 -0.5620  0.4854
  131OSM    C1514072   0.457   5.649   6.179  0.2776 -0.0710  0.2992
  131OSM   H15A14073   0.367   5.589   6.166 -0.0715  0.3185  0.8642
  131OSM   H15B14074   0.454   5.671   6.285 -1.7700  0.6201  0.1499
  131OSM   H15C14075   0.548   5.599   6.151 -0.2725  0.5069 -2.8978
  131OSM    C1414076   0.583   5.841   6.077 -0.0725  0.0058 -0.4496
  131OSM   H14A14077   0.574   5.927   6.012 -2.4918  0.0838 -0.0911
  131OSM   H14B14078   0.654   5.774   6.031 -0.7015 -0.9944 -0.0051
  131OSM   H14C14079   0.626   5.862   6.174 -0.5249 -1.4937  0.1081
  131OSM    C1314080   0.414   5.736   5.943 -1.3120 -0.0426  0.2580
  131OSM   H13A14081   0.326   5.674   5.931 -1.2982 -0.1130  0.5198
  131OSM   H13B14082   0.501   5.693   5.895 -1.5216  0.0557 -0.2101
  131OSM   H13C14083   0.392   5.829   5.893 -0.9137  0.6149  1.2716
  131OSM    C1214084   0.336   5.863   6.139  0.3514 -0.4569 -0.1888
  131OSM   H12A14085   0.343   5.966   6.107 -1.5928  0.2995  1.5370
  131OSM   H12B14086   0.350   5.879   6.245  3.3947  0.9269 -0.6772
  131OSM    C1114087   0.185   5.824   6.118  0.4644  0.6673  0.4297
  131OSM   H11A14088   0.178   5.816   6.008  1.1985  2.0583  0.2661
  131OSM   H11B14089   0.111   5.895   6.160 -3.5709 -2.9967  0.3025
  131OSM      P14090   0.060   5.591   6.148  0.0361  0.2441  0.5359
  131OSM    O1314091   0.037   5.600   6.001 -0.1458 -0.5868 -0.2562
  131OSM    O1414092   0.107   5.463   6.191  0.0675 -0.2467  0.0591
  131OSM    O1114093  -0.070   5.627   6.218  0.3670  0.2929 -0.1133
  131OSM    O1214094   0.166   5.696   6.186 -0.1865 -0.7906  0.0415
  131OSM    C1S14095  -0.112   5.565   6.343  0.4126 -0.7238 -0.1870
  131OSM    H1S14096  -0.046   5.481   6.371  1.6342 -0.1125 -1.1560
  131OSM    H1T14097  -0.215   5.528   6.325 -0.3782  1.3069 -0.1565
  131OSM     NF14098  -0.123   5.607   6.590  0.0943 -0.1834  0.2862
  131OSM    HNF14099  -0.215   5.604   6.629  0.2352 -0.8343  0.5785
  131OSM    C2S14100  -0.112   5.667   6.458 -0.8837 -0.7689  0.0494
  131OSM    H2S14101  -0.016   5.722   6.446 -1.7154  0.7332  0.0694
  131OSM    C3S14102  -0.224   5.771   6.437  0.8797  0.2363 -0.5702
  131OSM    H3S14103  -0.317   5.715   6.460 -1.2686  2.9188 -2.0839
  131OSM     O314104  -0.246   5.817   6.298  0.0214 -0.2412 -0.5848
  131OSM    HO314105  -0.186   5.759   6.250  1.7141 -1.4849  2.7258
  131OSM    C4S14106  -0.213   5.887   6.541  0.0875 -0.2875  0.5549
  131OSM    H4S14107  -0.251   5.865   6.642 -0.0482 -1.6315  0.2311
  131OSM    C5S14108  -0.166   6.009   6.504  0.6887  0.2270 -0.3350
  131OSM    H5S14109  -0.147   6.028   6.397 -0.1350 -0.1460 -0.5532
  131OSM    C6S14110  -0.158   6.127   6.593  0.1652  0.8683  0.2465
  131OSM    H6S14111  -0.191   6.221   6.544  1.7815  0.6830 -1.3157
  131OSM    H6T14112  -0.052   6.143   6.623  0.9552  0.9005 -2.3179
  131OSM    C7S14113  -0.239   6.111   6.725  0.2721  0.1113 -0.1746
  131OSM    H7S14114  -0.189   6.034   6.789 -1.0959 -0.3869  0.3453
  131OSM    H7T14115  -0.341   6.078   6.696  1.2043 -2.9193 -0.3636
  131OSM    C8S14116  -0.230   6.237   6.806 -0.2496 -0.3072  0.0924
  131OSM    H8S14117  -0.256   6.317   6.734  0.3243 -0.8278 -0.7026
  131OSM    H8T14118  -0.125   6.258   6.834  0.1313 -1.5979 -0.3119
  131OSM    C9S14119  -0.326   6.235   6.937 -0.5737  0.5148  0.6034
  131OSM    H9S14120  -0.426   6.199   6.907  0.2010 -0.2588 -1.2292
  131OSM    H9T14121  -0.332   6.345   6.952 -2.2157  0.8788 -1.9982
  131OSM   C10S14122  -0.268   6.147   7.043 -0.1555 -0.3139  0.3829
  131OSM   H10S14123  -0.160   6.126   7.026 -0.2456 -3.4063  2.8127
  131OSM   H10T14124  -0.314   6.047   7.025  0.3270 -0.8233  1.8677
  131OSM   C11S14125  -0.295   6.195   7.192 -0.7237  0.3912 -0.0234
  131OSM   H11S14126  -0.405   6.209   7.199 -1.1106 -1.1974 -1.9563
  131OSM   H11T14127  -0.238   6.289   7.207 -1.5028  0.6171  1.7259
  131OSM   C12S14128  -0.252   6.087   7.291 -0.2684 -0.3282  0.2097
  131OSM   H12S14129  -0.146   6.055   7.293 -0.1833 -0.1270 -0.6964
  131OSM   H12T14130  -0.301   5.992   7.261 -0.9931 -0.0524  0.5062
  131OSM   C13S14131  -0.303   6.104   7.438  0.7277 -0.0185  0.3900
  131OSM   H13S14132  -0.413   6.114   7.453  0.5083 -3.8526  2.4658
  131OSM   H13T14133  -0.259   6.199   7.476  1.1828  0.3618 -1.0085
  131OSM   C14S14134  -0.272   5.990   7.532 -0.7320 -0.0194 -0.0773
  131OSM   H14S14135  -0.167   5.955   7.523 -1.3964 -2.2187  0.1160
  131OSM   H14T14136  -0.342   5.904   7.522  0.5852 -1.5227  2.3872
  131OSM   C15S14137  -0.290   6.039   7.677  0.0184 -0.2504 -0.8446
  131OSM   H15S14138  -0.394   6.077   7.688  0.7753  1.1867  2.5171
  131OSM   H15T14139  -0.224   6.122   7.710 -0.6154 -0.3986  0.9063
  131OSM   C16S14140  -0.275   5.924   7.780 -0.1907  0.2429  1.3140
  131OSM   H16S14141  -0.175   5.904   7.823 -0.2623 -0.3631  1.2081
  131OSM   H16T14142  -0.295   5.826   7.731  0.1915  0.7402  0.1229
  131OSM   C17S14143  -0.367   5.936   7.893  0.2956 -0.3028 -0.0511
  131OSM   H17S14144  -0.473   5.922   7.861 -1.6492  3.7940  3.6026
  131OSM   H17T14145  -0.362   6.043   7.922  1.6689 -0.0732 -1.0238
  131OSM   C18S14146  -0.340   5.845   8.013  0.9317  0.4925  0.2056
  131OSM   H18S14147  -0.233   5.839   8.043  2.1555  1.3439 -3.4833
  131OSM   H18T14148  -0.377   5.743   7.989 -1.1369  1.2131  0.0816
  131OSM   H18U14149  -0.395   5.884   8.101  1.4621 -0.0706  0.7927
  131OSM    C1F14150  -0.036   5.523   6.634 -0.7667 -0.2010  0.3650
  131OSM     OF14151   0.077   5.518   6.582 -0.0922  0.0894  0.6129
  131OSM    C2F14152  -0.082   5.426   6.745  0.0166  0.7440 -0.4283
  131OSM    H2F14153  -0.172   5.373   6.708  0.1156  0.3114 -0.0592
  131OSM    H2G14154  -0.123   5.477   6.835 -1.8355 -2.0645  0.4381
  131OSM    C3F14155   0.027   5.316   6.774  0.6513  0.6236  0.5660
  131OSM    H3F14156   0.127   5.353   6.805  1.5345  0.7396 -2.1651
  131OSM    H3G14157   0.036   5.275   6.671 -2.2503  2.8744 -0.7138
  131OSM    C4F14158  -0.021   5.196   6.862  0.0292  0.1874  0.1562
  131OSM    H4F14159   0.066   5.128   6.870  1.6487  2.0288 -0.7975
  131OSM    H4G14160  -0.102   5.148   6.803 -0.2376  0.6113  0.1711
  131OSM    C5F14161  -0.072   5.232   6.999  0.5732  0.0766 -0.0365
  131OSM    H5F14162  -0.139   5.152   7.035  0.4958 -0.5616 -1.5515
  131OSM    H5G14163  -0.150   5.311   6.997  1.2758  0.9722  2.7583
  131OSM    C6F14164   0.042   5.281   7.093  0.7815  0.4131  0.0141
  131OSM    H6F14165   0.110   5.357   7.048  1.0471 -0.5097 -1.1910
  131OSM    H6G14166   0.110   5.194   7.107 -0.5560 -0.5287  0.8468
  131OSM    C7F14167  -0.002   5.330   7.228 -0.1926  0.0198 -1.0667
  131OSM    H7F14168  -0.049   5.429   7.208 -2.4057 -0.2148  2.1955
  131OSM    H7G14169   0.085   5.359   7.290 -0.2504 -0.9307 -0.5174
  131OSM    C8F14170  -0.087   5.235   7.311  1.0239 -0.7599  0.3091
  131OSM    H8F14171  -0.168   5.193   7.249  1.1174  0.5105 -0.7131
  131OSM    H8G14172  -0.138   5.311   7.374  0.1458 -0.2552 -0.9791
  131OSM    C9F14173  -0.006   5.131   7.379  0.0382  0.3960 -0.1447
  131OSM    H9F14174   0.080   5.111   7.313 -0.9552  2.2873 -2.1377
  131OSM   C10F14175  -0.020   5.083   7.499  0.4282  0.2621 -0.1647
  131OSM   H10F14176   0.056   5.013   7.534  1.3090  1.3899  0.2393
  131OSM   C11F14177  -0.130   5.117   7.600  1.2343  0.8966 -0.3492
  131OSM   H11F14178  -0.202   5.033   7.596  0.9130  1.2044 -1.2035
  131OSM   H11G14179  -0.186   5.208   7.569  0.6288  0.2338 -1.2102
  131OSM   C12F14180  -0.089   5.143   7.746  0.1057 -0.3022  0.1724
  131OSM   H12F14181  -0.170   5.192   7.803 -0.6993 -1.8975  0.4526
  131OSM   H12G14182   0.006   5.200   7.758 -0.2789  0.7087 -1.2741
  131OSM   C13F14183  -0.067   5.006   7.815  0.8961  0.2490  0.4091
  131OSM   H13F14184   0.034   4.970   7.785  1.0307  1.6317 -0.9553
  131OSM   H13G14185  -0.150   4.937   7.789  0.0883  0.5164  2.1313
  131OSM   C14F14186  -0.071   5.021   7.965 -0.1376 -0.4659 -0.5100
  131OSM   H14F14187  -0.172   5.060   7.989  0.2189  0.8210 -1.0409
  131OSM   H14G14188   0.002   5.093   8.007 -1.0854 -0.0299  0.4584
  131OSM   C15F14189  -0.052   4.891   8.034 -0.0082  0.3112  0.2164
  131OSM   H15F14190   0.054   4.871   8.007 -1.0124 -1.7632 -2.8079
  131OSM   H15G14191  -0.121   4.813   7.993  0.8436 -0.0859 -0.4843
  131OSM   C16F14192  -0.071   4.913   8.187 -0.0989  0.2306 -0.1625
  131OSM   H16F14193  -0.167   4.962   8.212  0.7302  2.0587 -0.4096
  131OSM   H16G14194   0.005   4.985   8.224 -0.7596  2.5656 -2.9891
  131OSM   C17F14195  -0.061   4.784   8.283 -0.0113  0.0321  0.1599
  131OSM   H17F14196  -0.070   4.823   8.387 -0.2804 -0.1241  0.1952
  131OSM   H17G14197   0.037   4.735   8.263 -1.1430 -1.4447 -2.1657
  131OSM   C18F14198  -0.153   4.666   8.259  0.1985  0.1915 -0.3370
  131OSM   H18F14199  -0.255   4.698   8.290  0.6709 -0.1794  1.7597
  131OSM   H18G14200  -0.121   4.582   8.324  2.6006  1.6487  0.4839
  131OSM   H18H14201  -0.151   4.631   8.154 -2.4115 -2.4427  0.3509
  132OSM      N14202   6.640   3.103   6.277 -1.0598  0.3723  0.4281
  132OSM    C1514203   6.667   2.962   6.221  1.3042 -0.2311 -0.0781
  132OSM   H15A14204   6.575   2.905   6.221  2.6593 -2.8347 -3.8285
  132OSM   H15B14205   6.730   2.897   6.280 -1.3199 -2.3531  0.5934
  132OSM   H15C14206   6.704   2.971   6.120  0.5104  2.9249 -0.1980
  132OSM    C1414207   6.777   3.166   6.270  0.7319 -0.2374  0.0547
  132OSM   H14A14208   6.849   3.104   6.322  1.0781 -0.3088 -0.5019
  132OSM   H14B14209   6.778   3.264   6.316  0.7576 -0.7224  1.1187
  132OSM   H14C14210   6.802   3.168   6.165 -1.2923 -1.3950 -0.5007
  132OSM    C1314211   6.548   3.163   6.178 -0.0176  0.2182 -0.2178
  132OSM   H13A14212   6.565   3.269   6.175  0.2027  0.1566 -2.3609
  132OSM   H13B14213   6.444   3.134   6.180  0.2319 -1.1657 -2.9454
  132OSM   H13C14214   6.574   3.137   6.077 -4.2237  1.2311 -1.7855
  132OSM    C1214215   6.584   3.109   6.420  0.0072  0.3414  0.5280
  132OSM   H12A14216   6.509   3.031   6.418  0.0725  0.2798 -0.9426
  132OSM   H12B14217   6.544   3.208   6.437  0.2588  0.7927 -1.3013
  132OSM    C1114218   6.678   3.079   6.546 -0.7397  0.2984  0.4312
  132OSM   H11A14219   6.628   3.092   6.644 -0.3077 -3.4769  1.3068
  132OSM   H11B14220   6.755   3.159   6.545  1.8083 -2.0097 -0.2791
  132OSM      P14221   6.643   2.826   6.580 -0.0832  0.1523  0.3779
  132OSM    O1314222   6.513   2.862   6.637 -0.1915  0.3612  0.0547
  132OSM    O1414223   6.638   2.733   6.463  0.2798  0.5608 -0.2386
  132OSM    O1114224   6.727   2.760   6.689 -0.3624 -0.1294  0.5089
  132OSM    O1214225   6.740   2.954   6.539  0.2100  0.5348 -0.1103
  132OSM    C1S14226   6.810   2.834   6.781 -0.0084 -0.1873 -0.5607
  132OSM    H1S14227   6.764   2.926   6.822  2.4801  2.3419 -3.0181
  132OSM    H1T14228   6.905   2.868   6.733 -0.0802  1.6724  0.5426
  132OSM     NF14229   6.903   2.816   7.009  0.7562  0.0224  0.2670
  132OSM    HNF14230   7.001   2.823   7.028  0.4522  0.6895  1.7544
  132OSM    C2S14231   6.840   2.741   6.899 -0.3908  0.3208 -0.3999
  132OSM    H2S14232   6.745   2.702   6.941  0.5483 -0.3341  1.2394
  132OSM    C3S14233   6.922   2.615   6.853  0.0545 -0.1071 -0.9545
  132OSM    H3S14234   7.020   2.647   6.810 -0.4578  1.8964 -0.7513
  132OSM     O314235   6.868   2.534   6.745 -0.1999 -0.3534  0.5513
  132OSM    HO314236   6.800   2.589   6.706 -2.1040 -0.8088  3.0168
  132OSM    C4S14237   6.947   2.531   6.978 -0.8571  0.6458  0.6770
  132OSM    H4S14238   7.014   2.588   7.043  2.9578  0.8416 -2.9781
  132OSM    C5S14239   6.897   2.405   7.016 -0.0305  0.7398 -0.6555
  132OSM    H5S14240   6.819   2.356   6.956  0.1701  0.1009 -0.3990
  132OSM    C6S14241   6.929   2.324   7.139 -0.3970 -0.2536  1.4883
  132OSM    H6S14242   6.969   2.224   7.112  0.7338  0.5908 -0.1116
  132OSM    H6T14243   6.842   2.307   7.206 -2.1438  2.2490  0.0498
  132OSM    C7S14244   7.033   2.391   7.239  0.6881 -0.7877 -0.1624
  132OSM    H7S14245   6.986   2.475   7.294  0.2338 -1.2900  0.2417
  132OSM    H7T14246   7.112   2.436   7.176 -1.8619  2.1480 -1.5429
  132OSM    C8S14247   7.076   2.291   7.339 -0.7659  0.2970  0.6506
  132OSM    H8S14248   7.126   2.208   7.284  0.6267  0.7798  1.1328
  132OSM    H8T14249   6.986   2.261   7.396 -0.2169  2.8057  3.0903
  132OSM    C9S14250   7.191   2.323   7.438 -0.4789 -0.3912  0.3359
  132OSM    H9S14251   7.176   2.406   7.510  0.8984  0.9966 -0.8801
  132OSM    H9T14252   7.267   2.377   7.378 -1.3646  1.1258  0.4982
  132OSM   C10S14253   7.234   2.204   7.516 -0.1430  0.7547  0.0206
  132OSM   H10S14254   7.304   2.142   7.456 -0.7923 -0.1986  0.2201
  132OSM   H10T14255   7.145   2.143   7.539 -0.4969  0.7508 -1.2793
  132OSM   C11S14256   7.300   2.233   7.659 -0.3268 -0.7707  0.5427
  132OSM   H11S14257   7.220   2.292   7.707 -1.1085  0.0045 -1.5975
  132OSM   H11T14258   7.396   2.285   7.639 -2.1387  1.6704 -2.7108
  132OSM   C12S14259   7.328   2.107   7.741 -0.4311  0.1787 -0.1381
  132OSM   H12S14260   7.383   2.033   7.679 -0.7120 -0.0004 -0.1763
  132OSM   H12T14261   7.227   2.068   7.766 -0.6183  0.9330  0.3000
  132OSM   C13S14262   7.408   2.134   7.869 -0.2224 -0.2168  0.0696
  132OSM   H13S14263   7.348   2.195   7.940  1.3288  0.2160  1.0629
  132OSM   H13T14264   7.491   2.204   7.846  0.0576 -1.3268 -2.6084
  132OSM   C14S14265   7.459   2.000   7.935  0.0416 -0.6350  0.4630
  132OSM   H14S14266   7.535   1.943   7.878  0.8347  0.0460  0.8009
  132OSM   H14T14267   7.363   1.945   7.945  0.2145 -0.7955  1.3207
  132OSM   C15S14268   7.526   2.027   8.068  0.0142  1.1654  0.6511
  132OSM   H15S14269   7.442   2.057   8.134 -1.0063  0.4558 -0.2983
  132OSM   H15T14270   7.596   2.111   8.047  2.9300 -1.1182  0.6464
  132OSM   C16S14271   7.611   1.924   8.128 -0.4161 -0.7297  0.0385
  132OSM   H16S14272   7.692   1.905   8.055  1.7361  0.2883  2.0245
  132OSM   H16T14273   7.576   1.819   8.138 -2.7510 -0.1145 -1.0934
  132OSM   C17S14274   7.690   1.980   8.254  0.0054 -0.1833 -0.0506
  132OSM   H17S14275   7.743   2.071   8.219 -0.2538 -0.0863 -0.1898
  132OSM   H17T14276   7.759   1.895   8.276  1.7243  1.0324 -0.5403
  132OSM   C18S14277   7.611   2.023   8.373  0.4097  0.2491 -0.1271
  132OSM   H18S14278   7.544   2.110   8.356  0.6071  0.8716  2.0217
  132OSM   H18T14279   7.674   2.046   8.462  0.6373 -1.5691  0.2153
  132OSM   H18U14280   7.545   1.939   8.403 -1.9456  1.3758 -1.8194
  132OSM    C1F14281   6.836   2.901   7.088  0.5908 -0.3028 -0.0726
  132OSM     OF14282   6.714   2.908   7.063  0.0885  0.0094 -0.8453
  132OSM    C2F14283   6.911   2.984   7.192  0.8391  0.7004 -0.1463
  132OSM    H2F14284   6.959   3.077   7.153  1.3800  1.3230  1.8808
  132OSM    H2G14285   6.991   2.919   7.233 -1.0160 -0.6354  1.5445
  132OSM    C3F14286   6.820   3.028   7.303  0.6719 -0.1890 -0.5762
  132OSM    H3F14287   6.752   2.949   7.341 -2.0163  2.2503  0.0555
  132OSM    H3G14288   6.761   3.116   7.269  0.6684  0.6861  1.5123
  132OSM    C4F14289   6.907   3.085   7.414 -0.3582 -0.7949 -0.5918
  132OSM    H4F14290   7.011   3.109   7.382  0.2388 -2.2339  0.1739
  132OSM    H4G14291   6.915   3.006   7.492  0.6531  1.1377  1.3929
  132OSM    C5F14292   6.842   3.210   7.477 -0.1009 -0.2179  0.6623
  132OSM    H5F14293   6.743   3.192   7.524 -0.5924 -0.5182 -0.4439
  132OSM    H5G14294   6.818   3.285   7.399  1.1265 -0.0543  0.4231
  132OSM    C6F14295   6.934   3.281   7.579  0.0134 -0.6252 -0.0488
  132OSM    H6F14296   7.031   3.310   7.534 -0.3104 -1.1140 -1.0895
  132OSM    H6G14297   6.948   3.195   7.648 -0.1996  0.3976  1.3302
  132OSM    C7F14298   6.869   3.402   7.645  0.4760 -0.1189 -0.0065
  132OSM    H7F14299   6.843   3.465   7.556  0.1857 -1.8290 -1.1890
  132OSM    H7G14300   6.941   3.458   7.708  1.1085 -2.4260  1.4044
  132OSM    C8F14301   6.743   3.369   7.727 -0.0320 -0.6876  0.3817
  132OSM    H8F14302   6.652   3.385   7.665  0.7669 -0.1641 -0.6828
  132OSM    H8G14303   6.734   3.456   7.796 -1.7104 -0.3032 -0.2731
  132OSM    C9F14304   6.743   3.237   7.800  0.4006  0.2809  0.2080
  132OSM    H9F14305   6.735   3.141   7.748 -1.0551 -0.9668  2.5838
  132OSM   C10F14306   6.734   3.225   7.936 -0.7889 -0.1732 -0.0547
  132OSM   H10F14307   6.753   3.124   7.976  1.4617  0.3601  0.3440
  132OSM   C11F14308   6.725   3.337   8.037  0.1333  0.3177 -0.2417
  132OSM   H11F14309   6.686   3.295   8.131 -0.2731 -0.6607 -0.8324
  132OSM   H11G14310   6.666   3.426   8.009  1.2281  1.3684  0.6752
  132OSM   C12F14311   6.878   3.363   8.055  0.2108  0.1326 -0.9679
  132OSM   H12F14312   6.905   3.452   7.994 -0.1763  1.6293  0.9626
  132OSM   H12G14313   6.941   3.278   8.022  2.1137  0.7601  0.9171
  132OSM   C13F14314   6.932   3.400   8.189  0.1103 -0.5242  0.2780
  132OSM   H13F14315   6.864   3.468   8.245  1.6725  2.3142 -1.0378
  132OSM   H13G14316   7.022   3.464   8.179  1.8778 -2.5814  2.1090
  132OSM   C14F14317   6.969   3.280   8.276  0.2828  0.2823 -0.1311
  132OSM   H14F14318   7.048   3.220   8.226 -0.1870 -0.3759 -0.0988
  132OSM   H14G14319   6.884   3.208   8.276  0.5442 -0.3132  4.1683
  132OSM   C15F14320   7.005   3.308   8.422  0.1771 -0.2948 -1.1890
  132OSM   H15F14321   6.995   3.210   8.474 -0.9748 -0.3622 -1.5056
  132OSM   H15G14322   6.937   3.387   8.460  2.0531  0.7621  0.0871
  132OSM   C16F14323   7.149   3.352   8.435 -0.1167 -0.0108  0.4262
  132OSM   H16F14324   7.190   3.373   8.334  0.0033 -2.0331  0.0017
  132OSM   H16G14325   7.205   3.258   8.455  1.5926  0.7240 -0.6750
  132OSM   C17F14326   7.173   3.465   8.540  0.6304  0.5283  0.5169
  132OSM   H17F14327   7.283   3.472   8.552  0.8308  1.0393 -1.2397
  132OSM   H17G14328   7.117   3.439   8.632 -1.7761  0.0887 -0.9935
  132OSM   C18F14329   7.122   3.597   8.490 -0.8229 -0.5181 -0.0025
  132OSM   H18F14330   7.168   3.678   8.550  0.7944 -1.7728  0.5251
  132OSM   H18G14331   7.011   3.604   8.487 -0.9651 -1.6765  1.2486
  132OSM   H18H14332   7.153   3.620   8.386 -0.4573 -1.9379 -0.2266
  133OSM      N14333   1.752   3.347   6.240 -0.6814  1.2542 -0.1305
  133OSM    C1514334   1.802   3.323   6.101  0.1850  0.1099 -0.1469
  133OSM   H15A14335   1.908   3.310   6.119 -0.1791 -0.3974  1.9718
  133OSM   H15B14336   1.791   3.419   6.052 -0.7369  0.0475 -0.0729
  133OSM   H15C14337   1.751   3.247   6.045 -2.3918  0.4948  1.5197
  133OSM    C1414338   1.605   3.369   6.233 -0.5854 -0.2903 -0.1430
  133OSM   H14A14339   1.573   3.409   6.328  1.6734 -0.6271  0.8385
  133OSM   H14B14340   1.557   3.278   6.203  0.4247 -1.0659  0.5334
  133OSM   H14C14341   1.579   3.447   6.162  0.9137 -0.6721 -1.1549
  133OSM    C1314342   1.784   3.232   6.328 -0.0236 -0.0938  0.0488
  133OSM   H13A14343   1.761   3.139   6.279 -1.0400  1.1695 -1.9923
  133OSM   H13B14344   1.739   3.244   6.426  0.2811  0.3075  0.1452
  133OSM   H13C14345   1.892   3.225   6.338  0.2864 -0.0592 -2.5519
  133OSM    C1214346   1.829   3.470   6.296 -0.5189  0.5488  0.0591
  133OSM   H12A14347   1.829   3.554   6.228 -0.2306 -1.1143 -2.1082
  133OSM   H12B14348   1.935   3.448   6.300 -0.6352  0.0263  0.3930
  133OSM    C1114349   1.783   3.530   6.440  0.1153 -0.0802  0.1211
  133OSM   H11A14350   1.845   3.618   6.469 -0.0780  0.1945 -0.2858
  133OSM   H11B14351   1.807   3.450   6.513  0.6730 -1.0592 -1.0935
  133OSM      P14352   1.599   3.703   6.368  0.0251 -0.3936 -0.3400
  133OSM    O1314353   1.704   3.776   6.294 -0.2082 -0.1548 -0.4678
  133OSM    O1414354   1.471   3.680   6.299  0.4976  0.6236 -0.0548
  133OSM    O1114355   1.574   3.779   6.497  0.4977  0.0106  0.0454
  133OSM    O1214356   1.650   3.567   6.436 -0.2901  0.3004 -0.4606
  133OSM    C1S14357   1.474   3.754   6.598 -0.6161 -0.4628  0.3651
  133OSM    H1S14358   1.460   3.644   6.605 -1.0332 -0.3698  1.1088
  133OSM    H1T14359   1.382   3.806   6.565  1.0194  0.6498 -2.9350
  133OSM     NF14360   1.423   3.771   6.842 -0.1270 -0.6866  0.7911
  133OSM    HNF14361   1.373   3.853   6.870  1.7147  0.8004  0.0098
  133OSM    C2S14362   1.520   3.807   6.740  0.9522 -0.0346 -0.4552
  133OSM    H2S14363   1.615   3.754   6.765  0.3390 -0.7017  0.5021
  133OSM    C3S14364   1.567   3.954   6.739  0.1473  0.8873 -0.2172
  133OSM    H3S14365   1.481   4.025   6.739 -0.4403  0.1926 -0.9143
  133OSM     O314366   1.639   3.993   6.622  0.3280 -0.0201 -0.0088
  133OSM    HO314367   1.620   3.914   6.571 -1.1078  0.4385 -0.2341
  133OSM    C4S14368   1.647   3.976   6.872  0.0070  0.6502  0.1164
  133OSM    H4S14369   1.729   3.902   6.881  0.9059  1.1357 -2.9940
  133OSM    C5S14370   1.615   4.067   6.965  0.1519  0.3419  0.3352
  133OSM    H5S14371   1.532   4.134   6.939 -1.7549 -2.4592 -1.2841
  133OSM    C6S14372   1.697   4.081   7.090 -0.1331  0.6279 -0.1084
  133OSM    H6S14373   1.752   4.177   7.102  4.4830 -1.5088 -1.9247
  133OSM    H6T14374   1.780   4.008   7.089 -0.2207  0.5246  0.1012
  133OSM    C7S14375   1.609   4.057   7.211  0.2415 -0.6280  0.2452
  133OSM    H7S14376   1.544   3.968   7.201 -1.1016  0.2600  0.7147
  133OSM    H7T14377   1.539   4.144   7.212 -1.0105 -1.5125  3.1825
  133OSM    C8S14378   1.695   4.063   7.338  0.1022 -0.4094  0.1351
  133OSM    H8S14379   1.732   4.166   7.353 -1.3452  0.2677 -0.6823
  133OSM    H8T14380   1.777   3.990   7.325 -0.9550 -1.4868 -0.7075
  133OSM    C9S14381   1.613   4.018   7.458  0.6526  0.5656 -0.1718
  133OSM    H9S14382   1.564   3.923   7.427 -3.2444  2.1983  0.4215
  133OSM    H9T14383   1.522   4.079   7.478 -0.1688 -1.0686  1.3730
  133OSM   C10S14384   1.700   4.001   7.580  0.1323 -0.8310 -0.3743
  133OSM   H10S14385   1.746   4.100   7.599 -1.1313 -0.5232  1.3392
  133OSM   H10T14386   1.785   3.930   7.578  0.9440  0.0829  0.3735
  133OSM   C11S14387   1.626   3.969   7.706  0.3909  0.2287 -0.1929
  133OSM   H11S14388   1.558   3.881   7.698  0.7521  0.1366 -2.8828
  133OSM   H11T14389   1.560   4.054   7.733 -0.5147 -1.2021  2.5621
  133OSM   C12S14390   1.725   3.962   7.831  0.3310 -0.6181 -0.3907
  133OSM   H12S14391   1.797   4.037   7.793 -0.3808 -0.3936 -1.3286
  133OSM   H12T14392   1.779   3.864   7.833  2.5761  0.5448  1.4567
  133OSM   C13S14393   1.664   3.997   7.965 -0.2439  0.3981  0.4269
  133OSM   H13S14394   1.618   4.097   7.955  0.9355  0.8754 -0.4359
  133OSM   H13T14395   1.743   3.996   8.043 -0.5331 -0.5465  0.7206
  133OSM   C14S14396   1.550   3.903   8.009  0.3841 -0.5357 -0.3852
  133OSM   H14S14397   1.580   3.798   8.025 -1.5991 -1.4085 -1.9428
  133OSM   H14T14398   1.478   3.900   7.924 -0.8218 -0.2607  0.5872
  133OSM   C15S14399   1.471   3.956   8.128  0.1613 -0.6287 -0.0199
  133OSM   H15S14400   1.389   3.884   8.147 -1.5488  1.0194 -0.8768
  133OSM   H15T14401   1.437   4.057   8.100  1.7004 -0.4250 -1.3646
  133OSM   C16S14402   1.558   3.961   8.252  0.5577  0.1551  0.2035
  133OSM   H16S14403   1.614   4.055   8.239  0.2949  0.7227  2.6231
  133OSM   H16T14404   1.628   3.875   8.251 -0.0285 -0.4711 -3.5801
  133OSM   C17S14405   1.490   3.978   8.388  0.4390  1.0252 -0.0321
  133OSM   H17S14406   1.417   3.899   8.415 -0.0218  0.7787 -1.8412
  133OSM   H17T14407   1.431   4.072   8.393 -1.6077 -0.2633  3.9982
  133OSM   C18S14408   1.592   3.970   8.497 -0.0355 -0.2833  0.2665
  133OSM   H18S14409   1.640   3.870   8.500 -0.1358 -0.3572 -0.4168
  133OSM   H18T14410   1.549   3.996   8.595 -0.2855 -1.4093  0.4716
  133OSM   H18U14411   1.676   4.041   8.480 -2.1506  2.1239 -0.7107
  133OSM    C1F14412   1.370   3.654   6.872 -0.0611 -0.2198  0.1901
  133OSM     OF14413   1.420   3.550   6.836 -0.2271  0.4173 -0.8115
  133OSM    C2F14414   1.248   3.661   6.957  0.3488 -0.0891 -0.1313
  133OSM    H2F14415   1.199   3.752   6.917  1.9932  0.6554 -0.5015
  133OSM    H2G14416   1.290   3.665   7.060 -0.4797 -0.1766  0.2262
  133OSM    C3F14417   1.137   3.559   6.950 -0.6255  0.0592 -0.5357
  133OSM    H3F14418   1.176   3.456   6.963 -1.1565  0.2944  5.7623
  133OSM    H3G14419   1.093   3.575   6.849 -1.5874 -0.8651 -0.2859
  133OSM    C4F14420   1.029   3.576   7.055  0.1984  0.6094  0.1450
  133OSM    H4F14421   0.980   3.672   7.031  1.7617  0.8023 -2.7953
  133OSM    H4G14422   1.075   3.575   7.156  1.0436 -0.5707 -0.2286
  133OSM    C5F14423   0.921   3.463   7.062 -0.0253  0.5110  0.0268
  133OSM    H5F14424   0.955   3.365   7.100 -1.8012  0.4154  1.4840
  133OSM    H5G14425   0.884   3.453   6.957 -0.5097 -0.3361  0.2732
  133OSM    C6F14426   0.799   3.494   7.152  0.5023  0.1886  0.1515
  133OSM    H6F14427   0.736   3.403   7.144  0.5012  0.2026 -0.0145
  133OSM    H6G14428   0.733   3.574   7.112  0.2327  0.0683  0.3478
  133OSM    C7F14429   0.840   3.518   7.291  0.2859 -0.3230 -0.3257
  133OSM    H7F14430   0.910   3.604   7.282 -1.8076  1.7498  1.7674
  133OSM    H7G14431   0.899   3.428   7.323 -0.5509 -0.9710 -0.5750
  133OSM    C8F14432   0.724   3.552   7.389 -0.0884 -0.4154  0.5185
  133OSM    H8F14433   0.640   3.480   7.383 -1.3482  1.0425 -0.0374
  133OSM    H8G14434   0.669   3.640   7.349  0.3608 -0.7197 -0.8147
  133OSM    C9F14435   0.769   3.580   7.527  0.1865  0.0601  0.3319
  133OSM    H9F14436   0.795   3.686   7.540  0.6109  0.0391 -0.3181
  133OSM   C10F14437   0.769   3.488   7.628  0.2021 -0.0230 -0.0558
  133OSM   H10F14438   0.814   3.516   7.724  3.9217  0.3826 -1.7288
  133OSM   C11F14439   0.719   3.344   7.620  0.4819  0.4165  0.7963
  133OSM   H11F14440   0.810   3.281   7.626 -0.7208 -1.3762  1.0687
  133OSM   H11G14441   0.662   3.316   7.528  1.2020 -2.7491  1.1986
  133OSM   C12F14442   0.616   3.288   7.725 -0.8162 -0.0776  0.0117
  133OSM   H12F14443   0.530   3.356   7.740  0.6671  1.5197  1.8586
  133OSM   H12G14444   0.667   3.291   7.823  0.1720 -0.6489 -0.4661
  133OSM   C13F14445   0.558   3.143   7.703 -0.4404  0.2814  0.1635
  133OSM   H13F14446   0.633   3.062   7.699  1.1815  1.7569 -1.2674
  133OSM   H13G14447   0.511   3.156   7.603 -0.0746  0.3874  0.0065
  133OSM   C14F14448   0.445   3.108   7.797  0.1659  0.0935  0.2529
  133OSM   H14F14449   0.412   3.005   7.775 -0.8014  0.6604 -1.0465
  133OSM   H14G14450   0.362   3.179   7.781 -1.2323 -1.2402  1.2766
  133OSM   C15F14451   0.462   3.120   7.950  0.6631  0.4332 -0.0670
  133OSM   H15F14452   0.368   3.124   8.009 -0.0044  0.2488 -1.0905
  133OSM   H15G14453   0.519   3.213   7.973 -0.0058  0.4285  1.7797
  133OSM   C16F14454   0.545   3.001   7.995  0.3620  0.4817 -0.2111
  133OSM   H16F14455   0.646   3.013   7.952  2.0870 -1.2629  2.9119
  133OSM   H16G14456   0.511   2.906   7.948 -0.8539  1.7405 -1.9774
  133OSM   C17F14457   0.546   2.976   8.157  0.2161 -0.4517  0.1777
  133OSM   H17F14458   0.594   2.879   8.182 -0.8729 -1.5973 -1.8673
  133OSM   H17G14459   0.436   2.978   8.172  0.1513  0.2266 -0.3446
  133OSM   C18F14460   0.611   3.093   8.223  0.3554 -0.0563  0.1285
  133OSM   H18F14461   0.569   3.192   8.194  1.9113  0.9922  1.3069
  133OSM   H18G14462   0.719   3.095   8.196  0.1661 -0.0614 -0.6788
  133OSM   H18H14463   0.603   3.075   8.332 -0.8588 -0.0788  0.0525
  134OSM      N14464   4.235   6.051   6.264  0.0640  0.2974 -0.1376
  134OSM    C1514465   4.324   6.161   6.324 -0.7493  0.3978 -0.3333
  134OSM   H15A14466   4.278   6.194   6.416 -2.3909  0.4296 -1.1137
  134OSM   H15B14467   4.324   6.242   6.252  3.1826 -0.3199 -1.3375
  134OSM   H15C14468   4.426   6.130   6.341 -0.3682  1.1167 -1.2004
  134OSM    C1414469   4.096   6.095   6.245  0.1577 -0.2992  0.3078
  134OSM   H14A14470   4.087   6.193   6.200 -1.9847  0.1214  1.4956
  134OSM   H14B14471   4.053   6.103   6.344  4.1968  0.2502  2.1901
  134OSM   H14C14472   4.052   6.014   6.188  1.3673 -1.1455  0.5367
  134OSM    C1314473   4.289   6.003   6.125  0.0603  0.4304  0.2267
  134OSM   H13A14474   4.375   5.939   6.140 -0.3545  0.1413  1.4205
  134OSM   H13B14475   4.310   6.082   6.054  0.6062 -0.2284 -0.3644
  134OSM   H13C14476   4.220   5.936   6.076  0.6014  0.1357 -0.1507
  134OSM    C1214477   4.236   5.917   6.346 -0.2998 -0.3440  0.2980
  134OSM   H12A14478   4.332   5.868   6.346 -0.8225 -1.5112 -1.8766
  134OSM   H12B14479   4.164   5.853   6.297  1.1737 -2.5797  0.8934
  134OSM    C1114480   4.173   5.939   6.480 -0.5947  0.9883 -0.3389
  134OSM   H11A14481   4.221   6.023   6.535 -1.0716  0.1947  1.3678
  134OSM   H11B14482   4.199   5.848   6.537 -1.0487  1.3369  0.4476
  134OSM      P14483   3.919   5.862   6.456  0.5386  0.2014 -0.5540
  134OSM    O1314484   3.799   5.941   6.424 -0.3862 -0.4450 -0.3218
  134OSM    O1414485   3.961   5.761   6.353 -1.1006 -0.3659 -0.3240
  134OSM    O1114486   3.898   5.786   6.593  0.1154 -0.2416  0.1321
  134OSM    O1214487   4.034   5.964   6.485  0.6426  0.4270  0.0301
  134OSM    C1S14488   3.964   5.827   6.711 -0.3443 -0.2188  0.0863
  134OSM    H1S14489   3.982   5.936   6.719 -1.0891 -0.0176 -0.8438
  134OSM    H1T14490   4.066   5.783   6.723  0.1730  0.7285 -0.6790
  134OSM     NF14491   3.921   5.857   6.958 -0.0789 -0.7011 -0.1704
  134OSM    HNF14492   4.006   5.822   6.996 -0.3261  0.0301  1.0972
  134OSM    C2S14493   3.874   5.789   6.837  0.5706 -0.0923  0.8067
  134OSM    H2S14494   3.769   5.822   6.818  1.1975  2.0133  0.7375
  134OSM    C3S14495   3.869   5.631   6.846  0.0582 -1.0296  0.8394
  134OSM    H3S14496   3.969   5.591   6.873  0.3213  0.3841  2.1299
  134OSM     O314497   3.821   5.563   6.723 -0.2233  0.1510 -0.6126
  134OSM    HO314498   3.814   5.624   6.649 -2.4189  1.0984  0.2789
  134OSM    C4S14499   3.774   5.590   6.952 -0.4944 -0.0237  0.1467
  134OSM    H4S14500   3.669   5.611   6.929 -0.7992 -0.5521  1.0116
  134OSM    C5S14501   3.805   5.524   7.062  0.0841  0.4895 -0.7572
  134OSM    H5S14502   3.911   5.504   7.087  0.0203  2.0076  0.9810
  134OSM    C6S14503   3.720   5.464   7.171 -0.8127  0.1734  0.2828
  134OSM    H6S14504   3.648   5.402   7.114 -0.1327 -0.1479 -0.2405
  134OSM    H6T14505   3.656   5.543   7.217  1.9018  1.2744  2.4123
  134OSM    C7S14506   3.792   5.369   7.269  0.8187 -0.8747  0.2384
  134OSM    H7S14507   3.849   5.303   7.200  2.9791  2.3994 -1.3709
  134OSM    H7T14508   3.716   5.309   7.324 -0.7127  0.9618  0.2402
  134OSM    C8S14509   3.878   5.440   7.367  0.3360  0.1404  0.7172
  134OSM    H8S14510   3.819   5.525   7.409 -0.0986  0.9860 -1.4590
  134OSM    H8T14511   3.971   5.481   7.323  1.0121 -1.0912  0.9561
  134OSM    C9S14512   3.917   5.358   7.481  0.1625 -0.0539 -0.3337
  134OSM    H9S14513   3.981   5.277   7.442  1.2204  1.1316 -1.1682
  134OSM    H9T14514   3.820   5.319   7.519 -1.7344  3.1669 -1.4343
  134OSM   C10S14515   3.972   5.436   7.606  0.3960 -0.6512  0.4315
  134OSM   H10S14516   3.888   5.506   7.627 -1.2694 -1.2700 -3.2802
  134OSM   H10T14517   4.056   5.501   7.572 -0.2954 -0.0192 -0.0994
  134OSM   C11S14518   4.012   5.356   7.726 -0.4294 -0.7720  0.0570
  134OSM   H11S14519   4.106   5.298   7.712  0.5751  0.5553  1.0200
  134OSM   H11T14520   3.928   5.287   7.748 -0.6739 -0.2693  0.7350
  134OSM   C12S14521   4.031   5.450   7.852 -0.4228 -0.1001  0.1622
  134OSM   H12S14522   3.932   5.492   7.878  0.5256  0.8302  2.5138
  134OSM   H12T14523   4.114   5.521   7.833  0.9562 -1.5884  0.3412
  134OSM   C13S14524   4.089   5.373   7.976  0.0638  0.7082  0.1595
  134OSM   H13S14525   4.181   5.322   7.940  0.0182  0.6442  0.1334
  134OSM   H13T14526   4.020   5.294   8.013 -0.6995  1.4513  0.3536
  134OSM   C14S14527   4.121   5.468   8.092 -0.4602  0.6975  0.2466
  134OSM   H14S14528   4.183   5.558   8.072 -0.6994  0.8312  0.1085
  134OSM   H14T14529   4.170   5.409   8.172 -0.1451 -0.4993 -0.7741
  134OSM   C15S14530   3.996   5.518   8.167 -0.5297  0.0738  0.1934
  134OSM   H15S14531   3.945   5.427   8.203 -1.6991  0.8676  0.6001
  134OSM   H15T14532   3.938   5.592   8.109 -2.4241  0.3195  2.2714
  134OSM   C16S14533   4.029   5.609   8.291  0.0304  0.2972 -0.0496
  134OSM   H16S14534   4.106   5.561   8.355 -0.8333 -0.2261  0.6022
  134OSM   H16T14535   3.938   5.635   8.349 -1.7241  0.7533 -2.7751
  134OSM   C17S14536   4.102   5.739   8.245 -0.4204  0.5321 -0.1180
  134OSM   H17S14537   4.050   5.795   8.165  0.7239  4.1307  1.4601
  134OSM   H17T14538   4.194   5.708   8.190 -0.7048  1.6695 -1.2941
  134OSM   C18S14539   4.137   5.842   8.360  0.3664  0.2557 -0.0058
  134OSM   H18S14540   4.039   5.867   8.406  0.4937  0.2100  0.2912
  134OSM   H18T14541   4.171   5.941   8.324  0.6255 -0.1922 -1.0180
  134OSM   H18U14542   4.201   5.803   8.442 -1.3146  1.3721  1.9252
  134OSM    C1F14543   3.895   5.989   6.969 -0.6778 -0.0300  0.2435
  134OSM     OF14544   3.787   6.038   6.932 -0.2216 -0.2880 -0.1228
  134OSM    C2F14545   4.005   6.076   7.016 -0.0323  0.3869 -0.0333
  134OSM    H2F14546   4.043   6.126   6.924 -1.1969  2.8303  0.7558
  134OSM    H2G14547   4.086   6.022   7.070  1.7275  2.5506 -0.3616
  134OSM    C3F14548   3.959   6.189   7.097  0.4703 -0.3098  0.0742
  134OSM    H3F14549   3.863   6.226   7.056 -0.2410 -0.3620  1.6166
  134OSM    H3G14550   4.037   6.263   7.127  0.2434 -0.1751  0.3352
  134OSM    C4F14551   3.915   6.123   7.235 -0.5717 -0.1049 -0.5561
  134OSM    H4F14552   3.883   6.017   7.220 -2.1908 -0.0866  2.0474
  134OSM    H4G14553   3.821   6.176   7.262 -0.3774 -0.7578  1.5932
  134OSM    C5F14554   4.021   6.135   7.348 -0.1785  1.2254 -0.3816
  134OSM    H5F14555   4.128   6.126   7.319  0.2601  2.9915  0.5024
  134OSM    H5G14556   3.994   6.053   7.418  1.3618  1.5365  0.6248
  134OSM    C6F14557   3.995   6.268   7.430  0.1795  0.4491 -0.6765
  134OSM    H6F14558   3.905   6.251   7.493  1.1684  1.4295  1.0950
  134OSM    H6G14559   3.974   6.348   7.356 -0.6500 -0.9465 -2.0074
  134OSM    C7F14560   4.110   6.312   7.528 -0.3851 -0.0459 -0.2940
  134OSM    H7F14561   4.090   6.407   7.581 -0.1078 -0.7179  1.0773
  134OSM    H7G14562   4.199   6.318   7.462 -1.3204 -2.3034 -1.8927
  134OSM    C8F14563   4.134   6.205   7.635 -0.2832 -0.6855 -0.2419
  134OSM    H8F14564   4.165   6.107   7.594  0.7000 -0.6036  0.2684
  134OSM    H8G14565   4.041   6.198   7.695  0.5237  2.0205  1.5184
  134OSM    C9F14566   4.245   6.239   7.726 -0.4560  0.5095 -0.0412
  134OSM    H9F14567   4.331   6.278   7.671 -0.5105  3.3027  1.6127
  134OSM   C10F14568   4.242   6.222   7.866 -0.1911 -0.2090 -0.3367
  134OSM   H10F14569   4.317   6.271   7.930 -0.1995  1.8304 -1.8011
  134OSM   C11F14570   4.121   6.160   7.937  0.3311 -0.3429 -0.0022
  134OSM   H11F14571   4.160   6.097   8.019  0.4472 -0.8012 -0.4080
  134OSM   H11G14572   4.061   6.086   7.880 -2.4739 -0.7488  3.1339
  134OSM   C12F14573   4.026   6.274   8.000  0.6464  0.1403 -0.2404
  134OSM   H12F14574   3.925   6.229   8.006  1.1562 -1.2699 -1.5217
  134OSM   H12G14575   4.018   6.365   7.936 -1.4874 -1.2367 -2.0572
  134OSM   C13F14576   4.084   6.305   8.141  0.0357 -0.8197 -0.0227
  134OSM   H13F14577   4.063   6.410   8.169  0.6794 -0.3581 -1.1952
  134OSM   H13G14578   4.194   6.293   8.128 -0.3800 -2.8052 -2.2800
  134OSM   C14F14579   4.033   6.208   8.248 -0.7881  0.9524 -1.0085
  134OSM   H14F14580   4.065   6.107   8.217  0.4510  0.4307  1.6690
  134OSM   H14G14581   3.923   6.205   8.257 -0.8031 -0.1716 -1.4612
  134OSM   C15F14582   4.103   6.235   8.385 -0.8617 -0.1775  0.1623
  134OSM   H15F14583   4.212   6.253   8.373 -0.9647  0.7990  0.6063
  134OSM   H15G14584   4.084   6.146   8.449 -0.7119 -1.6058 -1.6962
  134OSM   C16F14585   4.039   6.334   8.479 -0.1259 -0.2669  0.2162
  134OSM   H16F14586   3.932   6.305   8.492  0.3133 -2.1109 -0.1021
  134OSM   H16G14587   4.044   6.434   8.430 -1.4030 -0.8870 -1.2692
  134OSM   C17F14588   4.102   6.339   8.614 -0.4441 -0.1518 -0.8582
  134OSM   H17F14589   4.069   6.426   8.674  1.1540  0.8125 -1.3118
  134OSM   H17G14590   4.211   6.358   8.615 -0.5498  0.5620 -1.6058
  134OSM   C18F14591   4.085   6.209   8.696 -0.0793 -1.0347 -0.2660
  134OSM   H18F14592   4.164   6.141   8.656  3.0342  2.3023 -0.3265
  134OSM   H18G14593   3.989   6.154   8.697 -2.1758  2.3716  1.2021
  134OSM   H18H14594   4.108   6.227   8.803  0.8272  1.5374 -0.8216
  135OSM      N14595   3.746   5.580   6.112 -0.1963 -0.6427  0.0174
  135OSM    C1514596   3.800   5.660   5.999 -0.8185  0.1760 -0.0389
  135OSM   H15A14597   3.837   5.603   5.915  0.1589  2.5417 -1.2920
  135OSM   H15B14598   3.884   5.721   6.028  1.3644 -1.5684 -2.2239
  135OSM   H15C14599   3.731   5.731   5.956  1.5422  3.8639  1.8113
  135OSM    C1414600   3.643   5.498   6.054 -0.0281 -0.6627  0.4030
  135OSM   H14A14601   3.609   5.430   6.131  0.5723 -1.8531 -0.3492
  135OSM   H14B14602   3.676   5.440   5.969  1.2913  1.3040 -0.5137
  135OSM   H14C14603   3.560   5.561   6.027  0.3853  0.3794  1.4920
  135OSM    C1314604   3.859   5.513   6.166 -0.0634  0.4221 -0.0333
  135OSM   H13A14605   3.921   5.574   6.229 -0.3739  1.3637 -0.6149
  135OSM   H13B14606   3.918   5.465   6.090  1.2303 -1.9351  2.2931
  135OSM   H13C14607   3.832   5.426   6.224 -0.1046  1.8644  2.2648
  135OSM    C1214608   3.688   5.670   6.223  0.1986  0.0307  0.2663
  135OSM   H12A14609   3.585   5.689   6.196  0.2176  0.2964  0.3790
  135OSM   H12B14610   3.732   5.768   6.224 -0.9505  0.6183 -1.3306
  135OSM    C1114611   3.681   5.607   6.358 -0.6284  0.8108 -0.3102
  135OSM   H11A14612   3.636   5.678   6.430 -2.4311 -0.4690 -0.1146
  135OSM   H11B14613   3.781   5.577   6.396 -1.1908 -1.0237 -0.1982
  135OSM      P14614   3.436   5.496   6.355  0.2954  0.2844 -0.1498
  135OSM    O1314615   3.389   5.630   6.301 -0.6199  0.8024 -0.8661
  135OSM    O1414616   3.377   5.384   6.289 -0.5207 -0.1646  0.7055
  135OSM    O1114617   3.402   5.484   6.500 -0.0614 -0.6533  0.0246
  135OSM    O1214618   3.596   5.488   6.359 -0.7224 -0.2491  0.2771
  135OSM    C1S14619   3.272   5.496   6.554  0.2319  0.3658  0.7627
  135OSM    H1S14620   3.184   5.460   6.497 -1.4605 -0.3764  3.6455
  135OSM    H1T14621   3.237   5.598   6.580 -0.0383  0.7109 -0.8458
  135OSM     NF14622   3.119   5.404   6.717 -0.4132  0.4261 -0.1153
  135OSM    HNF14623   3.086   5.471   6.783  0.4256  0.1963  0.5597
  135OSM    C2S14624   3.259   5.409   6.687  0.2119 -1.0817 -0.8782
  135OSM    H2S14625   3.298   5.306   6.669 -1.7291 -1.7758 -1.4625
  135OSM    C3S14626   3.342   5.479   6.799  0.3676  0.4994  0.2425
  135OSM    H3S14627   3.304   5.581   6.823  1.7148  1.3487 -1.1078
  135OSM     O314628   3.483   5.500   6.773 -0.9552 -0.4814 -0.6165
  135OSM    HO314629   3.497   5.479   6.680  1.2465 -1.6686 -0.0949
  135OSM    C4S14630   3.330   5.394   6.920  0.0952  0.1259 -0.3698
  135OSM    H4S14631   3.363   5.291   6.898  0.4816  0.1536  0.0497
  135OSM    C5S14632   3.282   5.433   7.041 -0.8875 -0.0793  0.6666
  135OSM    H5S14633   3.259   5.539   7.056  0.0998 -0.0828  2.5212
  135OSM    C6S14634   3.286   5.340   7.156  0.8599 -0.6337 -0.2936
  135OSM    H6S14635   3.378   5.277   7.165  0.3562 -1.2716  0.6041
  135OSM    H6T14636   3.208   5.261   7.145  0.8219 -0.9636  1.9124
  135OSM    C7S14637   3.272   5.405   7.296 -0.0944 -0.1662  0.4469
  135OSM    H7S14638   3.163   5.426   7.304 -0.1956  1.3052 -3.1507
  135OSM    H7T14639   3.332   5.498   7.300 -1.1203  0.6807 -1.8768
  135OSM    C8S14640   3.335   5.315   7.405  0.2137  0.4038  0.4976
  135OSM    H8S14641   3.441   5.301   7.374 -0.4797 -0.6318 -1.6636
  135OSM    H8T14642   3.275   5.223   7.387  0.1185  0.7634 -1.2525
  135OSM    C9S14643   3.328   5.350   7.550 -0.2558  0.4071 -0.5792
  135OSM    H9S14644   3.225   5.332   7.588  0.5284 -1.5748  0.7992
  135OSM    H9T14645   3.358   5.454   7.574  1.6696 -0.3893  0.7731
  135OSM   C10S14646   3.432   5.272   7.635  0.3876  0.2878 -0.1238
  135OSM   H10S14647   3.528   5.300   7.586  0.3603 -0.0944 -0.4010
  135OSM   H10T14648   3.430   5.161   7.624 -0.3609  0.1122  1.5538
  135OSM   C11S14649   3.436   5.316   7.785 -0.4375  0.3407  0.4359
  135OSM   H11S14650   3.341   5.275   7.825 -0.0576 -1.6152 -0.4979
  135OSM   H11T14651   3.447   5.426   7.793  0.4288  0.7657 -3.9661
  135OSM   C12S14652   3.549   5.250   7.854  0.2056  0.1604 -0.3941
  135OSM   H12S14653   3.645   5.292   7.817 -0.6757  1.5499 -1.2021
  135OSM   H12T14654   3.551   5.142   7.827 -1.4607 -0.2826  1.1317
  135OSM   C13S14655   3.520   5.244   8.007 -0.2543 -0.5920 -0.4409
  135OSM   H13S14656   3.431   5.179   8.020 -1.1024  0.3279 -1.4043
  135OSM   H13T14657   3.481   5.342   8.044 -0.8852 -1.2355  0.6664
  135OSM   C14S14658   3.638   5.198   8.094 -0.0351  0.4531  0.3500
  135OSM   H14S14659   3.724   5.261   8.063 -1.2823  3.0765  1.8754
  135OSM   H14T14660   3.664   5.092   8.070  0.4563  0.8234 -0.8261
  135OSM   C15S14661   3.620   5.221   8.242 -0.2941 -0.5107 -0.0622
  135OSM   H15S14662   3.517   5.183   8.262 -0.5888  1.5834  3.1366
  135OSM   H15T14663   3.628   5.327   8.273 -0.2871 -0.6197  0.3152
  135OSM   C16S14664   3.719   5.137   8.325  0.1305 -0.6720 -0.4034
  135OSM   H16S14665   3.728   5.038   8.275 -1.2789 -0.6141 -0.8160
  135OSM   H16T14666   3.678   5.130   8.428  2.0310  0.3214  0.4662
  135OSM   C17S14667   3.858   5.198   8.342  0.4256 -0.1527  0.1964
  135OSM   H17S14668   3.862   5.303   8.379 -1.3815 -0.6767  2.0919
  135OSM   H17T14669   3.892   5.201   8.236 -2.3060 -0.1708 -0.7711
  135OSM   C18S14670   3.949   5.112   8.424 -0.1332 -0.8934 -0.1830
  135OSM   H18S14671   4.033   5.173   8.464 -0.8896  0.4398 -0.5749
  135OSM   H18T14672   3.984   5.022   8.370  1.2744 -1.7341  1.9961
  135OSM   H18U14673   3.895   5.069   8.511 -0.5806 -1.0988 -0.5616
  135OSM    C1F14674   3.029   5.320   6.664  1.3874 -0.3771 -0.5683
  135OSM     OF14675   3.062   5.254   6.571 -0.0385  0.1096 -0.4349
  135OSM    C2F14676   2.894   5.309   6.724  0.2671  0.4808 -0.2219
  135OSM    H2F14677   2.850   5.207   6.723  0.1944  0.5030 -1.6627
  135OSM    H2G14678   2.820   5.363   6.660 -0.3356  2.8588  2.2851
  135OSM    C3F14679   2.887   5.381   6.860 -0.2019  0.6175 -0.0360
  135OSM    H3F14680   2.780   5.409   6.874 -1.1563 -2.1295 -1.2055
  135OSM    H3G14681   2.941   5.478   6.863  0.7122  0.3009 -3.1225
  135OSM    C4F14682   2.936   5.303   6.981 -0.6595 -0.0424 -0.0830
  135OSM    H4F14683   3.046   5.304   6.965 -0.8872 -0.0005 -1.8557
  135OSM    H4G14684   2.904   5.197   6.971  1.6363 -0.7552 -0.5964
  135OSM    C5F14685   2.897   5.357   7.116  0.6325  0.7003 -0.3557
  135OSM    H5F14686   2.789   5.383   7.116 -0.3237 -2.3626  3.1173
  135OSM    H5G14687   2.960   5.448   7.124 -0.5587  1.4420  1.4579
  135OSM    C6F14688   2.926   5.264   7.239  0.1735  0.7972 -0.0397
  135OSM    H6F14689   3.034   5.239   7.238 -0.0726 -0.2911 -1.3107
  135OSM    H6G14690   2.872   5.169   7.225  2.0858 -0.4146  0.4335
  135OSM    C7F14691   2.881   5.320   7.380  0.3859 -0.9473  0.1136
  135OSM    H7F14692   2.773   5.348   7.374  0.9688  1.4570 -0.1707
  135OSM    H7G14693   2.936   5.414   7.402 -1.7481  0.7451 -1.2823
  135OSM    C8F14694   2.890   5.224   7.499  0.9782  0.1317 -0.2629
  135OSM    H8F14695   2.999   5.212   7.522  0.9674  1.6715  0.7728
  135OSM    H8G14696   2.849   5.127   7.463 -0.3797  0.3309  0.6927
  135OSM    C9F14697   2.817   5.282   7.613  0.0004 -0.0969 -0.6055
  135OSM    H9F14698   2.747   5.365   7.594 -0.7403 -0.4914  0.3122
  135OSM   C10F14699   2.837   5.246   7.740  0.3681  0.1081 -0.1291
  135OSM   H10F14700   2.782   5.302   7.817  0.7081  1.1700 -0.6386
  135OSM   C11F14701   2.930   5.136   7.783 -0.6181 -1.4114  0.1152
  135OSM   H11F14702   2.977   5.083   7.697  4.9646 -0.0150  1.9007
  135OSM   H11G14703   2.862   5.072   7.842 -1.3554 -1.1282 -0.4032
  135OSM   C12F14704   3.062   5.164   7.855  0.2060 -0.1966 -0.5183
  135OSM   H12F14705   3.129   5.214   7.782  0.7269 -1.6291 -1.0680
  135OSM   H12G14706   3.108   5.067   7.884 -0.5026  0.6056  4.1346
  135OSM   C13F14707   3.035   5.251   7.981 -0.3488 -0.7966  0.3718
  135OSM   H13F14708   2.978   5.345   7.967  3.7971  1.7407 -1.0856
  135OSM   H13G14709   3.134   5.286   8.017 -0.8036  0.3757  0.5032
  135OSM   C14F14710   2.954   5.169   8.068  0.6210 -0.3528 -1.0545
  135OSM   H14F14711   2.979   5.061   8.061  1.4590 -0.2732  0.4314
  135OSM   H14G14712   2.847   5.184   8.044  0.0460  0.3029  1.6342
  135OSM   C15F14713   2.953   5.207   8.218 -0.5523  0.0830 -0.3864
  135OSM   H15F14714   2.935   5.317   8.225 -1.0960 -0.1073  2.3845
  135OSM   H15G14715   3.055   5.183   8.254 -0.4981  2.9708  1.7816
  135OSM   C16F14716   2.849   5.124   8.298 -0.4143  0.1558 -0.2647
  135OSM   H16F14717   2.887   5.020   8.297  0.5095  0.4860 -2.0755
  135OSM   H16G14718   2.757   5.136   8.238 -0.4668 -1.3935 -0.5129
  135OSM   C17F14719   2.839   5.154   8.450  0.0767  0.0424 -0.5137
  135OSM   H17F14720   2.830   5.263   8.467 -0.7616 -0.0768 -0.1607
  135OSM   H17G14721   2.922   5.119   8.515 -1.1475 -1.0448  0.5190
  135OSM   C18F14722   2.714   5.099   8.502 -0.3844 -0.3504 -0.8274
  135OSM   H18F14723   2.708   4.993   8.472  0.1898 -1.2286  1.9062
  135OSM   H18G14724   2.633   5.155   8.450 -1.2140 -0.7412  0.0237
  135OSM   H18H14725   2.702   5.118   8.610  2.3804  1.7237 -0.7564
  136OSM      N14726   1.219   0.967   6.087 -0.0402 -0.0095 -0.0568
  136OSM    C1514727   1.162   1.012   5.953 -0.3717  0.1077 -0.3741
  136OSM   H15A14728   1.055   1.028   5.958 -0.2000  1.1982  0.0072
  136OSM   H15B14729   1.194   0.941   5.878  2.3254 -0.1507  0.9135
  136OSM   H15C14730   1.202   1.110   5.931  0.3402 -0.0959 -0.0220
  136OSM    C1414731   1.367   0.966   6.083  0.2427 -0.1027 -0.0939
  136OSM   H14A14732   1.407   0.911   5.999  2.3502  0.9895  0.1179
  136OSM   H14B14733   1.405   0.914   6.170 -0.5920 -0.0048  0.3340
  136OSM   H14C14734   1.403   1.068   6.084  0.8188 -0.3008 -0.1670
  136OSM    C1314735   1.163   1.059   6.193  0.5663 -0.4588  0.1162
  136OSM   H13A14736   1.201   1.036   6.292 -0.8040  0.3823  0.8632
  136OSM   H13B14737   1.057   1.043   6.199  0.7578 -1.6163  0.7081
  136OSM   H13C14738   1.173   1.162   6.163  1.5428 -0.7404 -0.6096
  136OSM    C1214739   1.163   0.826   6.113 -0.3582  0.4291 -0.5378
  136OSM   H12A14740   1.216   0.759   6.047  0.7112  1.3709 -0.6628
  136OSM   H12B14741   1.059   0.835   6.086  0.2647  2.4831 -2.5685
  136OSM    C1114742   1.187   0.771   6.262  0.6117 -0.3330  0.0351
  136OSM   H11A14743   1.127   0.679   6.278  0.3175 -0.1580 -0.0395
  136OSM   H11B14744   1.166   0.854   6.333 -0.6858  0.1231 -0.8279
  136OSM      P14745   1.376   0.592   6.225 -0.1577 -0.0944 -0.5551
  136OSM    O1314746   1.300   0.542   6.112  0.1917  0.1414 -0.1886
  136OSM    O1414747   1.521   0.597   6.212 -0.5716 -1.1331 -0.0597
  136OSM    O1114748   1.350   0.499   6.343  0.3282  0.5844 -0.6513
  136OSM    O1214749   1.325   0.731   6.272 -0.1927 -0.4673 -0.1098
  136OSM    C1S14750   1.322   0.540   6.477  0.8833 -0.1451 -0.1320
  136OSM    H1S14751   1.231   0.603   6.488  0.3085 -0.9146 -0.3550
  136OSM    H1T14752   1.409   0.589   6.525 -1.1670  1.7624  1.8663
  136OSM     NF14753   1.324   0.491   6.715 -0.3761  0.5487 -0.1368
  136OSM    HNF14754   1.422   0.507   6.726  0.3572 -1.8959 -2.1586
  136OSM    C2S14755   1.301   0.424   6.585  0.4618 -0.2780  0.8825
  136OSM    H2S14756   1.197   0.386   6.574 -0.3015  1.7840  0.3615
  136OSM    C3S14757   1.406   0.310   6.549 -0.3807  0.1335  0.0333
  136OSM    H3S14758   1.506   0.355   6.533  0.0039  0.0523  1.8843
  136OSM     O314759   1.364   0.227   6.446 -0.0919 -0.0472 -0.0853
  136OSM    HO314760   1.293   0.271   6.399  1.4637 -0.6652 -3.2788
  136OSM    C4S14761   1.442   0.211   6.662  0.9719 -0.0035  0.4982
  136OSM    H4S14762   1.366   0.137   6.689  0.3194  0.9175  1.2504
  136OSM    C5S14763   1.554   0.202   6.739  0.1161 -0.7572  0.2447
  136OSM    H5S14764   1.633   0.277   6.724  0.6989 -0.7120  3.0661
  136OSM    C6S14765   1.587   0.105   6.848  0.3424  0.1183  0.4174
  136OSM    H6S14766   1.644   0.150   6.932 -1.1541  0.2310  1.4178
  136OSM    H6T14767   1.649   0.024   6.806 -0.9370 -0.1412 -1.0793
  136OSM    C7S14768   1.459   0.033   6.906 -0.4316  0.1063 -0.3970
  136OSM    H7S14769   1.431  -0.048   6.836  0.6677 -2.8757  2.3212
  136OSM    H7T14770   1.378   0.106   6.928 -1.0104 -1.1297  1.9317
  136OSM    C8S14771   1.493  -0.049   7.027 -0.3604  0.4009  0.1724
  136OSM    H8S14772   1.591  -0.100   7.017 -0.3262 -0.2045  2.6948
  136OSM    H8T14773   1.417  -0.127   7.051 -0.1045 -0.4274 -1.6101
  136OSM    C9S14774   1.494   0.055   7.144  0.0697  0.1499  0.3422
  136OSM    H9S14775   1.400   0.114   7.138  0.4113  0.6372 -0.2472
  136OSM    H9T14776   1.580   0.124   7.132  0.6321 -0.5705  0.1082
  136OSM   C10S14777   1.505  -0.013   7.281  0.1499  0.1999  0.4339
  136OSM   H10S14778   1.591  -0.084   7.283 -0.1204 -0.1664 -0.5898
  136OSM   H10T14779   1.414  -0.076   7.286  0.5775 -0.9330 -3.1583
  136OSM   C11S14780   1.503   0.080   7.396 -0.3214 -0.1869  0.2190
  136OSM   H11S14781   1.429   0.162   7.384 -1.5338 -1.3414 -0.4158
  136OSM   H11T14782   1.597   0.140   7.397  0.0630 -0.7742 -0.2218
  136OSM   C12S14783   1.481   0.027   7.539 -0.1498 -0.0732  0.2331
  136OSM   H12S14784   1.378  -0.016   7.541 -1.6899  3.3163  0.5916
  136OSM   H12T14785   1.472   0.103   7.620  0.6829 -0.5059  0.7420
  136OSM   C13S14786   1.599  -0.067   7.583 -0.3292 -0.3507 -0.3647
  136OSM   H13S14787   1.694  -0.011   7.602  0.8697 -1.9667 -1.3450
  136OSM   H13T14788   1.625  -0.138   7.501 -1.5325 -0.2752 -0.8297
  136OSM   C14S14789   1.566  -0.143   7.712 -0.5601 -0.0428  0.5826
  136OSM   H14S14790   1.644  -0.220   7.731  0.0550 -0.0818 -1.8180
  136OSM   H14T14791   1.479  -0.210   7.691  0.0989 -0.9506  0.6667
  136OSM   C15S14792   1.544  -0.066   7.844  0.1807  0.1648 -0.3693
  136OSM   H15S14793   1.439  -0.030   7.840 -1.1124 -2.5240  3.4693
  136OSM   H15T14794   1.612   0.020   7.858  0.3085 -0.0860  0.5871
  136OSM   C16S14795   1.548  -0.154   7.972 -0.2130  0.3983  0.8583
  136OSM   H16S14796   1.653  -0.184   7.996  0.3096  1.1354 -0.4142
  136OSM   H16T14797   1.492  -0.250   7.961  1.6177 -0.8568  1.8027
  136OSM   C17S14798   1.477  -0.090   8.098 -0.3584  0.0762  0.5487
  136OSM   H17S14799   1.371  -0.078   8.065  0.0815  1.0790 -0.5615
  136OSM   H17T14800   1.511   0.015   8.109 -2.0315  0.6034  0.9414
  136OSM   C18S14801   1.485  -0.168   8.227 -0.0461  0.0070 -0.5903
  136OSM   H18S14802   1.420  -0.120   8.304 -0.2633  0.4957 -1.0736
  136OSM   H18T14803   1.591  -0.158   8.258 -0.3056 -1.0500  0.7433
  136OSM   H18U14804   1.455  -0.275   8.225 -0.3126  0.0798 -0.5432
  136OSM    C1F14805   1.223   0.569   6.769  0.5007  0.2928  0.4258
  136OSM     OF14806   1.113   0.576   6.707  0.0120  1.0811  0.4910
  136OSM    C2F14807   1.254   0.647   6.894 -0.3291 -0.4212  0.5129
  136OSM    H2F14808   1.225   0.754   6.887 -0.5631 -0.5755 -3.7687
  136OSM    H2G14809   1.363   0.666   6.905 -0.3313  0.2864 -0.5676
  136OSM    C3F14810   1.193   0.579   7.016  0.3320  0.1438  0.0870
  136OSM    H3F14811   1.238   0.480   7.038  1.0666  0.3403 -0.4824
  136OSM    H3G14812   1.088   0.552   6.990  0.7199 -1.3058 -0.0815
  136OSM    C4F14813   1.196   0.669   7.134 -0.1916  0.0202  0.0200
  136OSM    H4F14814   1.129   0.756   7.115  0.7894  0.6404 -0.7343
  136OSM    H4G14815   1.301   0.701   7.152 -0.0391 -1.2786  1.5854
  136OSM    C5F14816   1.135   0.605   7.257  0.1360 -0.5736 -0.4934
  136OSM    H5F14817   1.204   0.518   7.270  1.4520  0.3742 -0.9613
  136OSM    H5G14818   1.034   0.569   7.227 -1.2503  1.2534  1.6635
  136OSM    C6F14819   1.111   0.692   7.379 -0.4869  1.1085  0.1568
  136OSM    H6F14820   1.042   0.776   7.351 -0.5179  0.4951 -1.7713
  136OSM    H6G14821   1.204   0.732   7.424 -0.8110 -0.9424  2.8959
  136OSM    C7F14822   1.028   0.619   7.485  0.2674 -0.3946 -0.0285
  136OSM    H7F14823   1.106   0.552   7.528  0.3770 -0.0956  0.2418
  136OSM    H7G14824   0.939   0.563   7.448 -0.2687 -0.4432  1.2807
  136OSM    C8F14825   0.987   0.716   7.602 -0.1606  0.9612 -0.1268
  136OSM    H8F14826   1.073   0.768   7.649  0.1359 -0.2857  0.7706
  136OSM    H8G14827   0.958   0.648   7.685  4.1408  0.4639  1.2118
  136OSM    C9F14828   0.887   0.819   7.567  0.3130  0.3014 -0.6701
  136OSM    H9F14829   0.797   0.784   7.515 -0.1884  0.0593  0.3427
  136OSM   C10F14830   0.888   0.947   7.600 -0.4159  0.4309 -0.1707
  136OSM   H10F14831   0.827   1.015   7.539  0.2143  1.4653  0.3208
  136OSM   C11F14832   0.988   1.017   7.685 -0.0940  0.2000  0.2677
  136OSM   H11F14833   1.018   1.106   7.625 -2.1267  0.0417 -1.0980
  136OSM   H11G14834   1.073   0.960   7.730 -0.5831  1.8833  3.5898
  136OSM   C12F14835   0.911   1.073   7.801 -0.1929 -0.5677 -0.3093
  136OSM   H12F14836   0.833   1.142   7.762  1.0419  1.2972  0.3424
  136OSM   H12G14837   0.974   1.150   7.852 -1.2624 -1.3922  2.4653
  136OSM   C13F14838   0.861   0.979   7.907 -0.1292 -0.1034 -0.3259
  136OSM   H13F14839   0.823   0.882   7.870  0.5702 -0.7546  0.6104
  136OSM   H13G14840   0.786   1.029   7.973 -0.0840  2.3758 -2.0257
  136OSM   C14F14841   0.969   0.923   8.004 -0.5714 -1.3172 -0.5356
  136OSM   H14F14842   0.989   1.002   8.080  0.8829 -2.2922  0.1258
  136OSM   H14G14843   1.066   0.895   7.959 -0.4332  0.8876 -1.7989
  136OSM   C15F14844   0.918   0.803   8.088 -0.1928 -0.4026  0.3935
  136OSM   H15F14845   0.908   0.712   8.025  1.0984  0.3481 -0.9357
  136OSM   H15G14846   0.817   0.839   8.120  0.6807  1.6602  0.9682
  136OSM   C16F14847   1.008   0.776   8.208  0.4550 -0.2430  0.1522
  136OSM   H16F14848   1.032   0.874   8.254 -1.6703  0.5117 -0.2073
  136OSM   H16G14849   1.103   0.733   8.172  0.6761 -0.9863  1.5402
  136OSM   C17F14850   0.957   0.691   8.318 -0.4607 -0.0641  0.4714
  136OSM   H17F14851   0.913   0.596   8.282 -0.7982  0.8428 -1.6468
  136OSM   H17G14852   0.873   0.747   8.364  1.2009  1.7615  1.4169
  136OSM   C18F14853   1.063   0.677   8.426 -0.3963 -0.4068 -0.0176
  136OSM   H18F14854   1.020   0.624   8.514 -1.7642  0.7612  0.0456
  136OSM   H18G14855   1.087   0.777   8.466  0.3934 -0.2021 -0.9447
  136OSM   H18H14856   1.154   0.627   8.385 -2.1882 -1.5864 -2.8470
  137OSM      N14857   5.076   4.716   6.581  0.5669 -0.3728 -0.6764
  137OSM    C1514858   5.219   4.710   6.575  0.2828  0.0117 -0.4077
  137OSM   H15A14859   5.254   4.689   6.475  0.6536 -1.2300 -0.0302
  137OSM   H15B14860   5.247   4.626   6.637  1.9379 -0.1031 -1.2409
  137OSM   H15C14861   5.259   4.804   6.611  0.6061 -0.0784 -0.5265
  137OSM    C1414862   5.019   4.604   6.508 -0.3566  0.0296 -0.4147
  137OSM   H14A14863   4.911   4.597   6.511 -0.2552 -2.6075 -0.4117
  137OSM   H14B14864   5.057   4.507   6.537 -0.6379 -0.2413 -0.9210
  137OSM   H14C14865   5.034   4.625   6.403  0.1822  1.8774 -0.0042
  137OSM    C1314866   5.042   4.702   6.723 -0.5600  0.8538  0.1773
  137OSM   H13A14867   4.935   4.706   6.738 -0.5776 -0.0061  0.3218
  137OSM   H13B14868   5.076   4.785   6.783  1.1481 -1.9027  3.3687
  137OSM   H13C14869   5.083   4.610   6.761 -0.4527 -0.0255 -1.9853
  137OSM    C1214870   5.028   4.848   6.528 -0.4639 -0.4951 -0.3278
  137OSM   H12A14871   5.072   4.858   6.430  1.5677 -1.9262  0.3831
  137OSM   H12B14872   5.083   4.912   6.595  0.2542 -1.7470  0.3190
  137OSM    C1114873   4.882   4.897   6.519 -0.1230 -0.0951  0.6681
  137OSM   H11A14874   4.875   4.998   6.476 -0.3611 -0.0405  0.8260
  137OSM   H11B14875   4.847   4.907   6.625 -0.6546 -0.3732  0.5266
  137OSM      P14876   4.686   4.714   6.497 -0.1971  0.0573  0.1270
  137OSM    O1314877   4.557   4.781   6.465 -0.4764  0.4427  0.3324
  137OSM    O1414878   4.715   4.576   6.445  0.3013 -0.9902  0.4400
  137OSM    O1114879   4.710   4.722   6.646  0.0225  0.0917  0.0164
  137OSM    O1214880   4.806   4.804   6.447 -0.2365  0.0040  0.1912
  137OSM    C1S14881   4.617   4.657   6.739 -0.5456  0.2625  0.5272
  137OSM    H1S14882   4.627   4.547   6.725 -1.3393  0.0288  1.6998
  137OSM    H1T14883   4.511   4.680   6.713 -0.9307 -3.2029 -1.6829
  137OSM     NF14884   4.554   4.589   6.954  0.4852 -0.1212 -0.0513
  137OSM    HNF14885   4.475   4.623   7.003  1.6521  1.7968  0.6012
  137OSM    C2S14886   4.641   4.686   6.885  0.6801 -0.0725 -0.1264
  137OSM    H2S14887   4.748   4.668   6.911  0.6212 -0.6039 -0.2435
  137OSM    C3S14888   4.605   4.831   6.909 -0.5821  0.0002 -0.9722
  137OSM    H3S14889   4.504   4.858   6.872 -0.6517  2.8441  1.0064
  137OSM     O314890   4.689   4.925   6.843 -0.2243  0.1064 -0.1414
  137OSM    HO314891   4.733   4.868   6.779  1.1649  0.7354  0.2190
  137OSM    C4S14892   4.607   4.858   7.062  0.3680  0.1408  0.6196
  137OSM    H4S14893   4.707   4.849   7.108  0.7821 -1.9962 -0.5601
  137OSM    C5S14894   4.510   4.887   7.145  0.3755  0.3112 -0.0436
  137OSM    H5S14895   4.406   4.863   7.117  0.1041  1.1438  0.2033
  137OSM    C6S14896   4.524   4.929   7.283 -0.7075 -0.1396  0.1255
  137OSM    H6S14897   4.450   4.878   7.348  0.5943 -2.7128 -0.2928
  137OSM    H6T14898   4.508   5.038   7.299 -0.7254 -0.0850 -0.2714
  137OSM    C7S14899   4.652   4.894   7.358 -0.3115 -0.0914  0.3236
  137OSM    H7S14900   4.740   4.944   7.314 -0.0333 -0.0059  0.9817
  137OSM    H7T14901   4.665   4.783   7.352  1.3444  0.1276 -0.5903
  137OSM    C8S14902   4.650   4.923   7.515 -0.4350 -0.3036 -0.4278
  137OSM    H8S14903   4.561   4.865   7.549 -0.5424  0.2615  0.2789
  137OSM    H8T14904   4.642   5.031   7.541  1.3219  0.2414 -1.9772
  137OSM    C9S14905   4.769   4.852   7.583 -0.1885 -0.2051 -0.3867
  137OSM    H9S14906   4.859   4.916   7.568 -1.8367  1.5422 -4.0742
  137OSM    H9T14907   4.777   4.750   7.540 -1.7557 -0.6670  0.3532
  137OSM   C10S14908   4.739   4.838   7.734  0.0414  0.1078  0.3464
  137OSM   H10S14909   4.642   4.785   7.738  0.1520 -0.2527 -1.0333
  137OSM   H10T14910   4.717   4.935   7.782  0.2155  0.1637  0.3163
  137OSM   C11S14911   4.850   4.763   7.811  0.0688  0.6463 -0.0211
  137OSM   H11S14912   4.955   4.790   7.788  0.3489 -0.7104 -0.4433
  137OSM   H11T14913   4.830   4.656   7.790  0.4342  0.1179  2.0908
  137OSM   C12S14914   4.840   4.780   7.962  0.2337  0.0730  0.4534
  137OSM   H12S14915   4.878   4.880   7.988  0.1122  0.3999 -0.5867
  137OSM   H12T14916   4.919   4.713   8.003 -1.2063 -1.8128  0.3480
  137OSM   C13S14917   4.707   4.740   8.027 -0.4562 -1.2079  0.0809
  137OSM   H13S14918   4.625   4.774   7.960  0.8748  1.4416 -0.3081
  137OSM   H13T14919   4.706   4.801   8.120 -0.5532  1.4041 -1.5587
  137OSM   C14S14920   4.701   4.603   8.075  0.2546  0.2446  0.1280
  137OSM   H14S14921   4.763   4.554   7.998  1.0260  2.0679 -0.4645
  137OSM   H14T14922   4.595   4.569   8.076 -0.5658  2.5754  0.4296
  137OSM   C15S14923   4.768   4.582   8.216  0.0121  0.0143 -0.1566
  137OSM   H15S14924   4.700   4.609   8.300  0.2134  2.3123 -0.6797
  137OSM   H15T14925   4.857   4.648   8.220  1.3975 -1.7717  0.0864
  137OSM   C16S14926   4.815   4.436   8.237 -0.2274 -0.0461  0.4953
  137OSM   H16S14927   4.869   4.408   8.144 -1.5091  0.2142 -0.3502
  137OSM   H16T14928   4.722   4.376   8.246  0.2441 -0.8473  0.1120
  137OSM   C17S14929   4.903   4.407   8.352 -0.0585 -0.4248  0.2778
  137OSM   H17S14930   5.011   4.433   8.339 -0.6403  3.2778  1.4795
  137OSM   H17T14931   4.900   4.299   8.374 -2.9799 -0.3387  0.6024
  137OSM   C18S14932   4.860   4.490   8.478 -0.4295  0.3489 -0.1847
  137OSM   H18S14933   4.923   4.442   8.556 -0.2836  0.4265 -0.2543
  137OSM   H18T14934   4.756   4.474   8.512  0.3753 -2.9698  1.0306
  137OSM   H18U14935   4.886   4.598   8.472  1.6033 -0.0052  1.2166
  137OSM    C1F14936   4.580   4.461   6.948  0.5006  0.5348  0.4120
  137OSM     OF14937   4.696   4.429   6.936 -0.0901  0.2164  0.8685
  137OSM    C2F14938   4.461   4.369   6.964  0.3455 -0.4058  0.0619
  137OSM    H2F14939   4.446   4.335   6.860 -3.5987 -1.2979  0.7645
  137OSM    H2G14940   4.372   4.426   6.999  0.4635 -0.0436 -0.2337
  137OSM    C3F14941   4.499   4.257   7.070  0.1837 -0.1928 -0.1059
  137OSM    H3F14942   4.553   4.304   7.156 -0.0980 -2.2692  1.2962
  137OSM    H3G14943   4.565   4.184   7.018  0.0792 -0.4474  0.1132
  137OSM    C4F14944   4.391   4.162   7.129 -0.0661  0.3412  1.0903
  137OSM    H4F14945   4.350   4.103   7.045 -1.2522  1.0199  1.1745
  137OSM    H4G14946   4.300   4.207   7.175 -1.5865 -2.7201  1.3070
  137OSM    C5F14947   4.459   4.064   7.225  0.3980  1.3996  0.1236
  137OSM    H5F14948   4.496   4.120   7.313 -1.4270  2.7370  0.1017
  137OSM    H5G14949   4.533   3.999   7.173 -1.8787 -2.6482  1.4674
  137OSM    C6F14950   4.356   3.964   7.280  0.1691  0.2905 -0.2998
  137OSM    H6F14951   4.407   3.869   7.305 -0.5923  0.2039  1.0204
  137OSM    H6G14952   4.287   3.939   7.197  0.7864 -2.0577 -0.1761
  137OSM    C7F14953   4.293   4.021   7.406 -0.3678 -0.2243 -0.2287
  137OSM    H7F14954   4.277   4.130   7.390 -1.6074 -0.3232  0.2281
  137OSM    H7G14955   4.371   4.010   7.485  0.1780  1.1254 -0.5638
  137OSM    C8F14956   4.165   3.936   7.438 -0.2724 -0.0364  0.4059
  137OSM    H8F14957   4.159   3.955   7.547 -0.6414 -0.8006  0.5245
  137OSM    H8G14958   4.197   3.830   7.425 -1.7342 -0.4691  0.0428
  137OSM    C9F14959   4.046   3.976   7.357  0.1152 -0.5185  0.0279
  137OSM    H9F14960   4.052   4.069   7.297  2.1424 -1.5177 -1.4232
  137OSM   C10F14961   3.928   3.916   7.358 -0.1114  0.9569  0.4702
  137OSM   H10F14962   3.848   3.956   7.293 -0.0539 -0.3169 -0.4254
  137OSM   C11F14963   3.897   3.792   7.433 -0.5534 -1.2203 -0.0100
  137OSM   H11F14964   3.976   3.715   7.420  0.5337 -0.2025  0.3651
  137OSM   H11G14965   3.806   3.739   7.397 -0.4401 -0.3876 -1.5772
  137OSM   C12F14966   3.867   3.813   7.587  0.0610  0.2544  0.4788
  137OSM   H12F14967   3.781   3.883   7.598 -0.6096 -0.0791 -2.0110
  137OSM   H12G14968   3.957   3.854   7.637 -0.1535 -0.4131  1.4319
  137OSM   C13F14969   3.824   3.695   7.669  0.8876 -0.0618  0.1544
  137OSM   H13F14970   3.716   3.670   7.654  0.5420  0.7871  1.1521
  137OSM   H13G14971   3.831   3.724   7.775  0.9036 -1.1803  0.4755
  137OSM   C14F14972   3.907   3.565   7.661 -0.7558  0.2356 -0.0568
  137OSM   H14F14973   4.014   3.593   7.654 -0.5107 -1.0175 -2.2966
  137OSM   H14G14974   3.903   3.519   7.560  1.8020 -1.1647  0.3979
  137OSM   C15F14975   3.888   3.468   7.777  0.1218  0.7419  0.9669
  137OSM   H15F14976   3.945   3.379   7.745 -1.3933 -0.2814  1.0189
  137OSM   H15G14977   3.785   3.426   7.772 -0.6779  2.7115 -1.9979
  137OSM   C16F14978   3.936   3.514   7.913 -0.4430 -0.1628  0.0449
  137OSM   H16F14979   3.882   3.605   7.947  0.1776  0.9211 -1.7370
  137OSM   H16G14980   4.043   3.546   7.913 -0.5028  0.2495  2.5165
  137OSM   C17F14981   3.917   3.408   8.021  0.1706  0.3890  0.0802
  137OSM   H17F14982   3.965   3.450   8.112  0.7412  0.7711 -0.3964
  137OSM   H17G14983   3.987   3.329   7.987  0.8442  1.7888 -1.9079
  137OSM   C18F14984   3.767   3.376   8.041  0.2163  0.4879  0.5773
  137OSM   H18F14985   3.743   3.311   8.128 -0.0543 -0.9774 -0.5394
  137OSM   H18G14986   3.739   3.305   7.960 -2.8984 -1.3603  3.0697
  137OSM   H18H14987   3.702   3.465   8.035 -0.8961 -0.3302  0.1663
  138OSM      N14988   5.669   5.881   6.048  0.4072  0.0254  0.1413
  138OSM    C1514989   5.542   5.808   6.066 -0.0665  0.3478  1.1490
  138OSM   H15A14990   5.456   5.874   6.059 -0.6947 -0.5950 -2.6132
  138OSM   H15B14991   5.542   5.747   6.155  1.9559 -2.8890 -0.8413
  138OSM   H15C14992   5.521   5.733   5.990 -1.1527 -0.1103  1.8777
  138OSM    C1414993   5.784   5.797   6.013  0.0479  0.2735 -0.0336
  138OSM   H14A14994   5.815   5.747   6.103  0.9822  3.6879  1.7132
  138OSM   H14B14995   5.867   5.856   5.976  0.6822 -1.2051 -1.0481
  138OSM   H14C14996   5.761   5.729   5.932 -1.1577 -0.3517  0.8083
  138OSM    C1314997   5.652   5.983   5.940 -0.0525  0.1986  0.3714
  138OSM   H13A14998   5.744   6.037   5.926  0.5142  0.1087  3.1817
  138OSM   H13B14999   5.593   6.068   5.971  0.7128  0.7372  0.3705
  138OSM   H13C15000   5.631   5.943   5.842  1.3125  1.3263 -0.4176
  138OSM    C1215001   5.699   5.949   6.179 -0.1598  0.4811 -0.0072
  138OSM   H12A15002   5.795   5.999   6.174  0.2101 -0.1542  0.6125
  138OSM   H12B15003   5.716   5.877   6.258  0.1905  0.4677 -0.0949
  138OSM    C1115004   5.590   6.054   6.231 -0.1967  0.1116 -0.6942
  138OSM   H11A15005   5.601   6.069   6.341  1.9067 -0.9901 -0.7020
  138OSM   H11B15006   5.493   6.000   6.239 -0.6089  1.0272  1.2075
  138OSM      P15007   5.695   6.288   6.180  0.0087 -0.3450  0.0661
  138OSM    O1315008   5.828   6.228   6.200  0.2836 -0.3065  0.0996
  138OSM    O1415009   5.681   6.395   6.082  0.0545  0.5557  0.1652
  138OSM    O1115010   5.647   6.338   6.317  0.3298 -0.6366 -0.0987
  138OSM    O1215011   5.588   6.177   6.153  0.4681 -0.0114  0.3628
  138OSM    C1S15012   5.511   6.379   6.355  0.1284  0.5297 -0.0628
  138OSM    H1S15013   5.442   6.298   6.323  1.5265 -1.6529  2.1200
  138OSM    H1T15014   5.466   6.468   6.306 -1.3648 -2.3132 -4.4641
  138OSM     NF15015   5.363   6.369   6.547 -0.0371  0.3442  0.3782
  138OSM    HNF15016   5.304   6.445   6.571  0.4800  0.2113  2.2603
  138OSM    C2S15017   5.499   6.395   6.504 -0.3288 -0.3002 -0.0483
  138OSM    H2S15018   5.569   6.322   6.550  0.6753  2.2945  2.8958
  138OSM    C3S15019   5.546   6.535   6.551 -0.3649 -0.1700  0.1776
  138OSM    H3S15020   5.482   6.614   6.507  0.1744 -0.6325 -1.5399
  138OSM     O315021   5.672   6.564   6.494  0.4924  0.4759  0.4297
  138OSM    HO315022   5.683   6.496   6.427 -2.2303 -1.5101  1.8131
  138OSM    C4S15023   5.555   6.550   6.706 -0.3654 -0.0962 -0.2448
  138OSM    H4S15024   5.656   6.524   6.742 -1.3660  0.5509  3.5377
  138OSM    C5S15025   5.456   6.559   6.802 -0.2121  0.4487  0.1785
  138OSM    H5S15026   5.350   6.551   6.776  0.0963 -0.1651 -0.9673
  138OSM    C6S15027   5.483   6.579   6.956  0.2094  0.4985  0.0382
  138OSM    H6S15028   5.429   6.506   7.020  0.5447  0.3541  0.1638
  138OSM    H6T15029   5.452   6.676   6.999  2.6656  1.9335 -1.1868
  138OSM    C7S15030   5.632   6.590   6.994  0.9949  0.3086  0.3209
  138OSM    H7S15031   5.684   6.667   6.935  1.8353 -0.1838  0.4045
  138OSM    H7T15032   5.676   6.496   6.954  1.1136  0.3452  0.3649
  138OSM    C8S15033   5.667   6.608   7.144  0.2682 -0.1605 -0.5779
  138OSM    H8S15034   5.634   6.711   7.168 -1.5116 -0.8910  0.3411
  138OSM    H8T15035   5.776   6.595   7.162  0.0807  0.0474  0.7927
  138OSM    C9S15036   5.600   6.506   7.235 -0.2765  0.4292 -0.3838
  138OSM    H9S15037   5.609   6.405   7.191  2.9094 -0.0396  1.0572
  138OSM    H9T15038   5.495   6.542   7.238 -2.3893 -4.7424  3.6544
  138OSM   C10S15039   5.648   6.523   7.377  0.0066 -0.5763 -0.2354
  138OSM   H10S15040   5.647   6.633   7.395  1.9608 -0.5142 -0.3581
  138OSM   H10T15041   5.757   6.513   7.397  0.1461  0.3235 -0.4966
  138OSM   C11S15042   5.577   6.437   7.482  0.6381 -0.7164  0.7429
  138OSM   H11S15043   5.596   6.331   7.453 -1.2429 -1.3649  1.7444
  138OSM   H11T15044   5.467   6.453   7.478  0.8667  2.5964  3.4076
  138OSM   C12S15045   5.635   6.467   7.624  0.2294  0.4552 -0.0223
  138OSM   H12S15046   5.582   6.560   7.654 -0.9465  0.1712 -1.1273
  138OSM   H12T15047   5.743   6.495   7.621  0.1798  1.1045  2.2617
  138OSM   C13S15048   5.618   6.343   7.717 -0.5366 -0.2012 -0.5479
  138OSM   H13S15049   5.682   6.254   7.699  1.2347  0.5101  1.6636
  138OSM   H13T15050   5.514   6.308   7.700 -0.1165 -0.4123 -2.9623
  138OSM   C14S15051   5.633   6.389   7.861  0.0822 -0.1451  0.2127
  138OSM   H14S15052   5.546   6.454   7.885  0.4634  1.3118 -2.0872
  138OSM   H14T15053   5.722   6.452   7.883  0.7216 -1.3992  1.3614
  138OSM   C15S15054   5.659   6.273   7.949  0.0856  0.0596  0.2058
  138OSM   H15S15055   5.765   6.239   7.947 -0.4306 -1.6379 -0.2972
  138OSM   H15T15056   5.606   6.185   7.907  3.1577 -0.9998 -1.8428
  138OSM   C16S15057   5.616   6.298   8.101 -0.4812 -0.3410  1.0174
  138OSM   H16S15058   5.505   6.298   8.102 -0.5423  0.2168 -1.2740
  138OSM   H16T15059   5.643   6.399   8.138 -0.3981  0.1077 -0.2069
  138OSM   C17S15060   5.664   6.191   8.201 -0.0632  0.1539  0.1438
  138OSM   H17S15061   5.766   6.156   8.173  0.1309  1.2357 -0.5288
  138OSM   H17T15062   5.592   6.106   8.202  1.1512 -0.9128 -0.6259
  138OSM   C18S15063   5.664   6.246   8.342  0.1134 -0.0036 -0.1166
  138OSM   H18S15064   5.738   6.327   8.327  0.2796 -0.4028 -1.5321
  138OSM   H18T15065   5.690   6.165   8.413 -0.5802  1.4148  1.8595
  138OSM   H18U15066   5.568   6.292   8.377  0.6771  1.6384 -0.6686
  138OSM    C1F15067   5.297   6.255   6.555 -0.3583 -0.2485  0.3397
  138OSM     OF15068   5.340   6.149   6.517 -0.8907  0.4326  0.4857
  138OSM    C2F15069   5.159   6.270   6.605  0.1284  0.3572 -0.5922
  138OSM    H2F15070   5.095   6.229   6.525  0.0921 -1.3319  0.2561
  138OSM    H2G15071   5.127   6.373   6.634 -0.9618  0.6544 -2.7016
  138OSM    C3F15072   5.142   6.193   6.738  0.4963 -0.2009  0.0438
  138OSM    H3F15073   5.177   6.089   6.717  1.5222  0.0996  0.1907
  138OSM    H3G15074   5.039   6.202   6.778  0.1912 -0.2118 -0.7277
  138OSM    C4F15075   5.224   6.250   6.852  0.6525  0.2613  0.2073
  138OSM    H4F15076   5.185   6.351   6.876 -0.9668  0.0053 -1.1081
  138OSM    H4G15077   5.330   6.240   6.819  0.8579 -0.9373  1.1863
  138OSM    C5F15078   5.217   6.156   6.972  0.1275 -0.2118 -0.0661
  138OSM    H5F15079   5.253   6.052   6.958 -0.8983 -0.6521  0.4357
  138OSM    H5G15080   5.110   6.142   7.001  0.2142 -2.1086 -0.5191
  138OSM    C6F15081   5.284   6.214   7.095 -0.4065  0.4905 -0.2399
  138OSM    H6F15082   5.236   6.312   7.115 -0.9743  0.2973 -0.6385
  138OSM    H6G15083   5.393   6.229   7.083 -0.0402 -0.1563  1.9006
  138OSM    C7F15084   5.259   6.128   7.218 -0.3625  0.6006  0.4780
  138OSM    H7F15085   5.328   6.041   7.209 -0.6905  0.1216  2.1606
  138OSM    H7G15086   5.156   6.084   7.217  0.8838 -2.6130 -0.4894
  138OSM    C8F15087   5.281   6.184   7.356 -0.0004  0.2596 -0.6289
  138OSM    H8F15088   5.374   6.245   7.355  0.1903  0.0257  0.6462
  138OSM    H8G15089   5.307   6.100   7.425  1.8250 -1.1632 -2.8918
  138OSM    C9F15090   5.169   6.272   7.412 -0.4165  0.1359  0.3417
  138OSM    H9F15091   5.134   6.353   7.345  1.0598 -0.5517 -1.3474
  138OSM   C10F15092   5.093   6.251   7.526  0.0088 -0.0431  0.0101
  138OSM   H10F15093   5.021   6.330   7.550  0.8151  0.0598  2.2744
  138OSM   C11F15094   5.094   6.144   7.629 -0.0003  0.2513  0.1229
  138OSM   H11F15095   5.134   6.055   7.576 -2.1020 -0.8360  0.2471
  138OSM   H11G15096   4.988   6.121   7.653  0.2831 -0.5274  0.6582
  138OSM   C12F15097   5.176   6.166   7.758 -0.0421 -0.2818  0.1335
  138OSM   H12F15098   5.263   6.219   7.713 -1.0797  2.0184  0.6455
  138OSM   H12G15099   5.223   6.078   7.806 -1.9017 -0.8220  1.0563
  138OSM   C13F15100   5.111   6.254   7.869  0.0037 -0.0912  0.2205
  138OSM   H13F15101   5.003   6.228   7.864  0.1162 -0.3699 -1.5556
  138OSM   H13G15102   5.121   6.360   7.837  0.6821 -0.2773 -0.2127
  138OSM   C14F15103   5.175   6.247   8.007 -0.0464 -0.1918  0.1524
  138OSM   H14F15104   5.253   6.327   8.010  0.0303 -0.2874  2.0146
  138OSM   H14G15105   5.222   6.147   8.020 -1.9338 -1.0203  1.0173
  138OSM   C15F15106   5.069   6.284   8.117 -0.2482  0.0890 -0.2253
  138OSM   H15F15107   4.994   6.204   8.105 -0.2094 -0.0018  0.1122
  138OSM   H15G15108   5.020   6.383   8.105  0.6796  1.1993  3.6439
  138OSM   C16F15109   5.125   6.277   8.261 -0.3093  0.1779 -0.0616
  138OSM   H16F15110   5.190   6.365   8.277 -0.7419  0.7359 -1.2003
  138OSM   H16G15111   5.179   6.181   8.268  1.2727  1.1575  2.3008
  138OSM   C17F15112   5.011   6.271   8.362 -0.4817  0.4284 -1.1615
  138OSM   H17F15113   4.941   6.188   8.341 -0.0574  0.2337 -1.8298
  138OSM   H17G15114   4.962   6.371   8.356 -0.0650  0.7381  0.2361
  138OSM   C18F15115   5.056   6.248   8.509  0.0556  0.5710 -0.1453
  138OSM   H18F15116   5.093   6.143   8.518  0.7510  0.9062  1.0473
  138OSM   H18G15117   4.960   6.254   8.564  0.4906  1.8308  0.5163
  138OSM   H18H15118   5.127   6.320   8.555 -0.9861  0.2793  2.0215
  139OSM      N15119   3.454   6.362   6.379  0.3901 -0.0595  0.2758
  139OSM    C1515120   3.585   6.423   6.398  0.3212 -0.9932 -0.1440
  139OSM   H15A15121   3.654   6.344   6.423 -0.5198 -1.6497  0.1673
  139OSM   H15B15122   3.591   6.502   6.472 -0.3127 -0.7100 -0.3898
  139OSM   H15C15123   3.624   6.484   6.318  0.4032 -0.5293  0.2435
  139OSM    C1415124   3.478   6.266   6.266 -0.1570 -0.3421  0.3239
  139OSM   H14A15125   3.527   6.307   6.179  1.4279  1.0940  1.7982
  139OSM   H14B15126   3.386   6.221   6.232 -0.1068 -0.3768  0.2360
  139OSM   H14C15127   3.542   6.186   6.299 -1.7428 -0.7866  2.6413
  139OSM    C1315128   3.432   6.277   6.503 -0.3798  0.1809 -0.7137
  139OSM   H13A15129   3.446   6.326   6.598  0.4005 -0.6585 -0.3829
  139OSM   H13B15130   3.518   6.213   6.500  0.0922  0.6842  0.9688
  139OSM   H13C15131   3.341   6.219   6.502  0.0553 -0.5721  0.8933
  139OSM    C1215132   3.350   6.470   6.363  0.2331 -0.4797  0.3570
  139OSM   H12A15133   3.347   6.525   6.456  2.5099  2.1587 -0.9723
  139OSM   H12B15134   3.253   6.424   6.358 -0.0798  0.1018  0.8712
  139OSM    C1115135   3.381   6.574   6.252  0.3322  0.1574  0.4000
  139OSM   H11A15136   3.298   6.647   6.241  0.3913  0.1003 -0.5154
  139OSM   H11B15137   3.389   6.514   6.158  0.8139 -1.3063  1.3347
  139OSM      P15138   3.533   6.764   6.369  0.1170 -0.0941  0.0033
  139OSM    O1315139   3.670   6.805   6.359 -0.5068 -0.3146 -0.0037
  139OSM    O1415140   3.424   6.857   6.345 -0.1303  0.3207 -0.2344
  139OSM    O1115141   3.506   6.688   6.504  0.2718  0.2160  0.1312
  139OSM    O1215142   3.507   6.640   6.266 -0.2710 -0.3105 -0.6145
  139OSM    C1S15143   3.582   6.694   6.624  0.6843  0.0725 -0.6505
  139OSM    H1S15144   3.680   6.745   6.614  2.1962 -2.9573 -3.0582
  139OSM    H1T15145   3.604   6.592   6.661 -0.2417  0.6203  1.5714
  139OSM     NF15146   3.563   6.774   6.871 -0.3363  0.6071 -0.2175
  139OSM    HNF15147   3.557   6.702   6.939 -0.5435 -1.2013 -2.0587
  139OSM    C2S15148   3.491   6.749   6.744  0.6794 -0.0847  0.3706
  139OSM    H2S15149   3.445   6.847   6.717 -0.2712 -1.0559 -1.8031
  139OSM    C3S15150   3.372   6.647   6.763  0.0126 -0.4803 -0.7978
  139OSM    H3S15151   3.417   6.560   6.815  0.3769 -0.2310 -0.6928
  139OSM     O315152   3.308   6.605   6.645 -0.4745 -0.7227  0.1293
  139OSM    HO315153   3.368   6.642   6.581  1.2217 -0.4316  1.7876
  139OSM    C4S15154   3.278   6.696   6.869 -0.7360  0.0361 -0.4044
  139OSM    H4S15155   3.328   6.687   6.967 -0.7979 -0.7614 -0.4357
  139OSM    C5S15156   3.160   6.755   6.864  0.6198  0.1366 -0.1681
  139OSM    H5S15157   3.106   6.756   6.768 -0.8785 -1.9408  0.5785
  139OSM    C6S15158   3.088   6.794   6.990  0.0179 -0.1308 -0.1693
  139OSM    H6S15159   3.059   6.901   6.982 -0.1261  0.2393  3.4495
  139OSM    H6T15160   3.160   6.790   7.075  0.4064  0.2347 -0.4731
  139OSM    C7S15161   2.969   6.699   7.016  0.6061 -0.3136  0.3835
  139OSM    H7S15162   2.994   6.592   7.005 -0.3031 -0.5423  0.4102
  139OSM    H7T15163   2.902   6.712   6.928  0.0489  0.0592  0.8513
  139OSM    C8S15164   2.894   6.724   7.153  0.5916  0.2136  1.2755
  139OSM    H8S15165   2.822   6.642   7.169  2.0795 -2.1102 -2.5986
  139OSM    H8T15166   2.861   6.830   7.161 -2.2972 -0.4760 -0.1639
  139OSM    C9S15167   2.982   6.688   7.278 -0.7002 -0.3418  0.2399
  139OSM    H9S15168   3.078   6.744   7.276  0.9816 -3.0221 -2.1505
  139OSM    H9T15169   3.013   6.582   7.263  0.8093  0.1546 -0.3813
  139OSM   C10S15170   2.903   6.702   7.412  0.3443  0.3449  0.2597
  139OSM   H10S15171   2.814   6.635   7.412 -0.6174  1.5242 -1.7541
  139OSM   H10T15172   2.865   6.806   7.425  0.0339  0.0245  2.3119
  139OSM   C11S15173   2.976   6.676   7.544  0.9111 -0.0410  0.1667
  139OSM   H11S15174   3.047   6.761   7.553 -0.6580  1.3463 -0.0071
  139OSM   H11T15175   3.030   6.579   7.539 -2.1939 -1.9786  1.1751
  139OSM   C12S15176   2.879   6.658   7.662  0.2265 -0.0793  0.1029
  139OSM   H12S15177   2.803   6.581   7.636  0.6397 -0.0680 -1.2489
  139OSM   H12T15178   2.827   6.754   7.682  2.0787  1.4340 -1.8822
  139OSM   C13S15179   2.949   6.587   7.782  0.2553 -0.1409 -0.0749
  139OSM   H13S15180   3.010   6.666   7.830  0.3275 -1.8673  2.8978
  139OSM   H13T15181   3.014   6.504   7.749  0.4469  0.3998 -1.1098
  139OSM   C14S15182   2.855   6.540   7.884 -0.5921 -0.2008  0.1699
  139OSM   H14S15183   2.782   6.470   7.837 -0.5501  0.0727 -0.3107
  139OSM   H14T15184   2.787   6.615   7.930  1.2777  1.8132 -0.2009
  139OSM   C15S15185   2.945   6.468   7.992  0.4351  0.2846 -0.3284
  139OSM   H15S15186   3.033   6.530   8.021  0.7565 -0.0556 -0.5696
  139OSM   H15T15187   2.980   6.374   7.945 -0.9834 -2.0439  2.9070
  139OSM   C16S15188   2.867   6.451   8.129 -0.9050  0.1754  0.8485
  139OSM   H16S15189   2.786   6.528   8.135 -0.0172  1.7450 -3.3583
  139OSM   H16T15190   2.922   6.449   8.225  0.6951 -0.4343 -0.0476
  139OSM   C17S15191   2.788   6.312   8.115 -0.5839 -0.1577  0.0948
  139OSM   H17S15192   2.734   6.311   8.018  0.7047  1.5180 -0.6896
  139OSM   H17T15193   2.705   6.316   8.189 -1.4774  0.9975 -0.9345
  139OSM   C18S15194   2.875   6.197   8.139  0.0161  0.3092  0.7758
  139OSM   H18S15195   2.809   6.108   8.133 -3.0069  2.3429  1.2741
  139OSM   H18T15196   2.924   6.188   8.238 -0.8960 -1.8738  1.0844
  139OSM   H18U15197   2.956   6.202   8.063 -1.7677 -0.2343 -1.2732
  139OSM    C1F15198   3.648   6.880   6.888 -0.1517 -0.4897 -0.0447
  139OSM     OF15199   3.672   6.962   6.797 -0.3615 -0.2255  0.5807
  139OSM    C2F15200   3.726   6.908   7.018  0.2638 -0.1552 -0.0322
  139OSM    H2F15201   3.826   6.860   7.013 -0.4634 -1.8568  0.9128
  139OSM    H2G15202   3.674   6.870   7.108 -0.4952  1.1941  0.1278
  139OSM    C3F15203   3.751   7.060   7.038  0.1486 -0.1657 -0.6563
  139OSM    H3F15204   3.654   7.113   7.038  0.0724 -0.2873 -1.3850
  139OSM    H3G15205   3.809   7.099   6.951  0.3411 -0.5994 -0.7253
  139OSM    C4F15206   3.819   7.102   7.173  0.1075 -0.4976 -0.8752
  139OSM    H4F15207   3.921   7.057   7.173  0.2154 -0.6934  3.5618
  139OSM    H4G15208   3.759   7.053   7.252  0.6452  1.6569  0.9525
  139OSM    C5F15209   3.832   7.250   7.208  0.6083 -0.3125  0.1207
  139OSM    H5F15210   3.735   7.296   7.237  0.7523  0.5239 -0.6839
  139OSM    H5G15211   3.861   7.302   7.114  1.1055  0.8731  0.9069
  139OSM    C6F15212   3.935   7.284   7.320 -0.7557  0.1730  0.2724
  139OSM    H6F15213   3.897   7.363   7.389 -1.8203  0.1463 -0.2663
  139OSM    H6G15214   4.029   7.318   7.273 -0.6954 -0.5148 -0.1134
  139OSM    C7F15215   3.974   7.162   7.409  0.3134 -0.1526  0.6309
  139OSM    H7F15216   4.043   7.103   7.345  0.8658  0.7900  0.3272
  139OSM    H7G15217   3.890   7.092   7.426 -0.2159 -0.1927 -1.7493
  139OSM    C8F15218   4.065   7.202   7.529  0.1396 -0.5637  0.1478
  139OSM    H8F15219   4.157   7.258   7.500 -1.1249  1.9756  0.6936
  139OSM    H8G15220   4.091   7.106   7.577 -1.6615 -0.2403  1.9115
  139OSM    C9F15221   3.988   7.285   7.630 -0.6465 -0.2373 -0.0044
  139OSM    H9F15222   4.000   7.391   7.601  0.6398 -0.5167 -0.5146
  139OSM   C10F15223   3.912   7.251   7.737  0.1566 -0.2344  0.0535
  139OSM   H10F15224   3.847   7.324   7.786  0.9260 -1.2407  2.7572
  139OSM   C11F15225   3.873   7.110   7.782 -0.3507  0.6346 -0.5734
  139OSM   H11F15226   3.894   7.032   7.706  2.6831 -1.1201  1.8199
  139OSM   H11G15227   3.766   7.088   7.801 -0.6459  1.3800 -1.3222
  139OSM   C12F15228   3.964   7.070   7.905  0.7532 -0.4233  0.1082
  139OSM   H12F15229   4.068   7.087   7.870  0.3584 -0.1134 -0.9552
  139OSM   H12G15230   3.945   6.962   7.920  0.6037 -0.5729 -1.0848
  139OSM   C13F15231   3.923   7.140   8.027  0.1368 -0.2968 -0.6945
  139OSM   H13F15232   3.813   7.157   8.021  0.1035 -0.0721  0.3752
  139OSM   H13G15233   3.967   7.241   8.017 -0.9689  0.1911 -0.7860
  139OSM   C14F15234   3.968   7.079   8.158  0.3734 -0.7499  0.3510
  139OSM   H14F15235   3.967   7.160   8.234 -0.5237 -1.0819  0.7016
  139OSM   H14G15236   4.075   7.053   8.145  0.2357 -0.2875 -2.2654
  139OSM   C15F15237   3.893   6.951   8.199  0.2240  0.5006 -0.1121
  139OSM   H15F15238   3.936   6.866   8.143 -1.0323 -0.1888 -0.0564
  139OSM   H15G15239   3.785   6.955   8.174  0.2472  0.7785 -0.1732
  139OSM   C16F15240   3.903   6.913   8.345  0.0508 -0.5591 -0.1811
  139OSM   H16F15241   3.836   6.831   8.377 -0.3779  0.3054  1.2147
  139OSM   H16G15242   3.855   6.991   8.407  0.4826 -1.7267  1.6831
  139OSM   C17F15243   4.041   6.874   8.387  0.7183 -0.1631 -0.2254
  139OSM   H17F15244   4.118   6.940   8.342 -0.2005 -1.3370 -3.8521
  139OSM   H17G15245   4.074   6.779   8.339  0.5936  2.1062 -5.4708
  139OSM   C18F15246   4.044   6.859   8.538  0.8379  0.5248  0.2901
  139OSM   H18F15247   4.062   6.961   8.578  0.6796  0.6104  0.1455
  139OSM   H18G15248   4.135   6.804   8.571  0.3003 -1.1213 -0.8582
  139OSM   H18H15249   3.950   6.817   8.580  1.2656 -1.2375 -0.4120
  140OSM      N15250   3.039   3.945   6.192 -0.0676 -0.0920  0.2913
  140OSM    C1515251   2.936   3.951   6.079 -0.6548  0.6213 -0.3186
  140OSM   H15A15252   2.990   4.022   6.019  2.1314 -2.1638 -1.4005
  140OSM   H15B15253   2.844   3.995   6.115 -1.6940 -0.8480 -1.0014
  140OSM   H15C15254   2.929   3.861   6.019  1.5207  0.1263  0.1120
  140OSM    C1415255   3.164   3.897   6.126  0.6937 -0.1928 -0.1008
  140OSM   H14A15256   3.214   3.977   6.073 -0.3145 -0.7908 -2.0286
  140OSM   H14B15257   3.141   3.822   6.053 -2.2455  0.2507  0.2641
  140OSM   H14C15258   3.235   3.855   6.196  4.0743  0.4850 -2.8663
  140OSM    C1315259   3.045   4.082   6.247  0.0293  0.3445  0.4443
  140OSM   H13A15260   3.066   4.160   6.176  4.2009 -2.0272 -1.2725
  140OSM   H13B15261   3.128   4.080   6.316 -0.0255 -0.7979  0.4882
  140OSM   H13C15262   2.971   4.096   6.325  0.7219 -0.1837  1.2169
  140OSM    C1215263   2.986   3.848   6.295 -0.0172 -0.1579 -0.1831
  140OSM   H12A15264   2.967   3.755   6.244 -1.5757  0.7498 -1.3603
  140OSM   H12B15265   2.889   3.877   6.333  0.3884  0.6544  0.2354
  140OSM    C1115266   3.067   3.831   6.429  0.6129 -0.0705 -0.4761
  140OSM   H11A15267   3.007   3.762   6.491 -1.0013  0.8805 -0.9368
  140OSM   H11B15268   3.067   3.927   6.483 -2.5875 -0.7135  0.8487
  140OSM      P15269   3.246   3.643   6.385  0.2278  0.3818 -0.5162
  140OSM    O1315270   3.131   3.550   6.417 -0.6699 -0.4855 -0.1443
  140OSM    O1415271   3.290   3.633   6.244 -0.5512  0.5921  0.1804
  140OSM    O1115272   3.358   3.626   6.496 -0.1072  0.2241 -0.2495
  140OSM    O1215273   3.205   3.795   6.409 -0.0375 -0.0161 -0.9106
  140OSM    C1S15274   3.329   3.670   6.627  0.4261 -0.6922 -0.3358
  140OSM    H1S15275   3.231   3.717   6.646  0.6961 -0.0433 -0.5326
  140OSM    H1T15276   3.395   3.756   6.649  0.5311  0.5954 -4.7807
  140OSM     NF15277   3.299   3.605   6.862  0.3689 -0.2590 -0.1895
  140OSM    HNF15278   3.360   3.650   6.928  2.8217 -1.0506 -1.7939
  140OSM    C2S15279   3.345   3.556   6.732  0.1285  0.1995 -0.0895
  140OSM    H2S15280   3.292   3.464   6.699  0.7986 -0.4315  0.5435
  140OSM    C3S15281   3.498   3.513   6.739 -1.2309  0.3275  0.1293
  140OSM    H3S15282   3.561   3.600   6.768  1.2827 -2.0516  2.3827
  140OSM     O315283   3.552   3.449   6.620 -0.0058 -0.0122  0.5179
  140OSM    HO315284   3.475   3.468   6.566  0.7465  0.1322 -0.5491
  140OSM    C4S15285   3.517   3.407   6.847 -0.8309 -0.3786  0.4891
  140OSM    H4S15286   3.482   3.305   6.826  2.3154 -1.4930  0.1460
  140OSM    C5S15287   3.574   3.442   6.963 -1.2763  0.7940  0.3694
  140OSM    H5S15288   3.594   3.549   6.976 -0.4688  0.4854  1.9630
  140OSM    C6S15289   3.607   3.352   7.079 -0.1117 -0.7607 -0.4738
  140OSM    H6S15290   3.589   3.247   7.047  0.1885  0.0047 -3.4120
  140OSM    H6T15291   3.537   3.375   7.162 -0.7311 -0.1669 -1.1449
  140OSM    C7S15292   3.751   3.373   7.142 -0.1164 -0.5484  0.8545
  140OSM    H7S15293   3.767   3.469   7.195  1.4839 -0.0997 -0.3503
  140OSM    H7T15294   3.807   3.382   7.046  0.4252 -0.3888  1.1811
  140OSM    C8S15295   3.787   3.261   7.238  0.0754 -0.2798  0.1268
  140OSM    H8S15296   3.877   3.294   7.294  0.4747 -1.2273  0.0818
  140OSM    H8T15297   3.814   3.172   7.176 -0.5676  0.5996 -1.4917
  140OSM    C9S15298   3.685   3.215   7.345 -0.0595  0.1083 -0.2311
  140OSM    H9S15299   3.742   3.153   7.418 -0.6548 -0.0219  0.1342
  140OSM    H9T15300   3.603   3.152   7.304  1.2569 -1.9499  0.1315
  140OSM   C10S15301   3.633   3.334   7.428  0.3843 -0.3345 -0.3392
  140OSM   H10S15302   3.546   3.378   7.375 -0.4768 -0.0963  1.1837
  140OSM   H10T15303   3.715   3.406   7.445  0.4217 -0.5309  0.3495
  140OSM   C11S15304   3.560   3.292   7.560 -0.6862 -0.3953 -0.0332
  140OSM   H11S15305   3.624   3.229   7.627 -2.8636 -0.2584  2.3373
  140OSM   H11T15306   3.468   3.233   7.542 -2.5051  1.8994  1.2805
  140OSM   C12S15307   3.525   3.419   7.635  0.2450  0.2318 -0.1057
  140OSM   H12S15308   3.431   3.457   7.590 -0.7428 -1.2458  0.6449
  140OSM   H12T15309   3.605   3.497   7.628  0.0637  0.4683  0.3761
  140OSM   C13S15310   3.500   3.406   7.788 -0.5823  0.6565  1.0885
  140OSM   H13S15311   3.597   3.386   7.838 -0.8133  0.5815  1.5101
  140OSM   H13T15312   3.426   3.327   7.814  1.7480 -2.8042 -1.7259
  140OSM   C14S15313   3.462   3.542   7.848  0.0824  0.4874 -0.0099
  140OSM   H14S15314   3.393   3.602   7.784 -1.2549 -0.0031  0.9228
  140OSM   H14T15315   3.548   3.610   7.861 -2.5996  3.6123  3.6375
  140OSM   C15S15316   3.393   3.530   7.984 -0.3698 -0.2118  0.0616
  140OSM   H15S15317   3.466   3.485   8.054 -0.2675  0.6317  0.4977
  140OSM   H15T15318   3.308   3.458   7.980 -1.7052  1.2277  1.0646
  140OSM   C16S15319   3.345   3.664   8.039 -0.0053 -0.0419 -0.1867
  140OSM   H16S15320   3.268   3.681   7.961  0.3908 -0.2892 -0.6363
  140OSM   H16T15321   3.429   3.735   8.028 -0.0474 -0.0943 -0.8687
  140OSM   C17S15322   3.302   3.675   8.184  0.4077  0.0334 -0.6035
  140OSM   H17S15323   3.391   3.651   8.245  0.9009 -2.8685 -2.2888
  140OSM   H17T15324   3.239   3.587   8.210  4.1206 -2.2958  1.3821
  140OSM   C18S15325   3.233   3.811   8.227  0.1765  0.5082 -0.2489
  140OSM   H18S15326   3.295   3.903   8.217 -0.4544  0.7624 -2.4164
  140OSM   H18T15327   3.197   3.806   8.332  1.6279  0.8830  0.2897
  140OSM   H18U15328   3.147   3.814   8.157 -0.4841  0.4650  0.5556
  140OSM    C1F15329   3.174   3.623   6.888 -0.1402  1.3056  0.1134
  140OSM     OF15330   3.087   3.584   6.814  0.4796 -0.3425 -0.1712
  140OSM    C2F15331   3.143   3.713   7.006  0.1792  0.4073  0.1227
  140OSM    H2F15332   3.213   3.799   7.019  0.4817 -0.0391  1.6955
  140OSM    H2G15333   3.157   3.652   7.098  0.3634 -1.2336 -0.9550
  140OSM    C3F15334   2.996   3.765   7.008 -0.0773  0.4081 -0.2367
  140OSM    H3F15335   2.914   3.692   6.991 -1.6233  1.6639  1.4062
  140OSM    H3G15336   2.986   3.840   6.928  4.1764 -0.7361 -2.1310
  140OSM    C4F15337   2.956   3.854   7.129  0.0006 -0.1537  0.4908
  140OSM    H4F15338   2.848   3.880   7.126 -0.0394 -0.3030 -2.9250
  140OSM    H4G15339   3.010   3.950   7.113  0.3997 -0.4524  0.0092
  140OSM    C5F15340   2.984   3.787   7.267 -0.0276  0.7997 -0.2991
  140OSM    H5F15341   3.089   3.753   7.282 -1.1343 -2.1677  1.6429
  140OSM    H5G15342   2.925   3.694   7.285  2.0718 -0.5183  0.0688
  140OSM    C6F15343   2.944   3.872   7.388 -0.3618  0.2757 -0.9513
  140OSM    H6F15344   2.835   3.893   7.381 -1.3646 -3.3606  1.0613
  140OSM    H6G15345   2.999   3.967   7.372  1.1926 -0.1092  1.5445
  140OSM    C7F15346   2.992   3.798   7.515  0.1327  0.2089  0.4474
  140OSM    H7F15347   3.091   3.749   7.502  1.0709  2.3011 -0.8622
  140OSM    H7G15348   2.921   3.713   7.528  0.2789 -0.3301 -1.9252
  140OSM    C8F15349   2.996   3.883   7.638  0.1496 -0.1134  0.1947
  140OSM    H8F15350   3.060   3.968   7.606  1.0692 -0.3659  1.3009
  140OSM    H8G15351   3.055   3.841   7.722 -0.7850 -0.6105  0.6194
  140OSM    C9F15352   2.861   3.929   7.682 -0.0331  0.0134 -0.4735
  140OSM    H9F15353   2.799   3.975   7.603 -2.1359  2.4208  2.3103
  140OSM   C10F15354   2.802   3.928   7.806 -0.0300 -0.0006 -0.5332
  140OSM   H10F15355   2.692   3.935   7.807  0.0573  1.7349  0.2831
  140OSM   C11F15356   2.873   3.885   7.936 -0.1345 -0.1103  0.2664
  140OSM   H11F15357   2.872   3.968   8.010 -1.4369 -0.1309  0.2976
  140OSM   H11G15358   2.977   3.851   7.920 -0.1836  0.2296 -0.8879
  140OSM   C12F15359   2.804   3.774   8.021  0.1642  0.4906 -0.1683
  140OSM   H12F15360   2.806   3.679   7.962 -0.5128  0.0473  0.5068
  140OSM   H12G15361   2.695   3.792   8.020  0.1303  0.2878 -0.3401
  140OSM   C13F15362   2.854   3.742   8.164 -0.0530  0.3237  0.1332
  140OSM   H13F15363   2.909   3.829   8.206  1.5857  0.3152 -1.8723
  140OSM   H13G15364   2.919   3.652   8.166 -0.5502 -0.0834 -1.2688
  140OSM   C14F15365   2.743   3.684   8.263 -0.3212  0.4112 -0.5917
  140OSM   H14F15366   2.683   3.603   8.218  0.1582  0.3458 -1.1308
  140OSM   H14G15367   2.666   3.763   8.271 -0.5514  0.1151  0.2001
  140OSM   C15F15368   2.799   3.646   8.403 -0.1628  0.4312 -0.2238
  140OSM   H15F15369   2.893   3.588   8.387 -0.8498 -1.1578  1.1356
  140OSM   H15G15370   2.729   3.574   8.450  0.6778 -1.2495 -1.4035
  140OSM   C16F15371   2.834   3.755   8.501  0.5641  0.0043 -0.1882
  140OSM   H16F15372   2.741   3.799   8.543  1.2751  1.5715 -0.1752
  140OSM   H16G15373   2.890   3.832   8.444 -1.0848  0.8009 -0.8008
  140OSM   C17F15374   2.928   3.715   8.620 -0.3606  0.3997 -0.4973
  140OSM   H17F15375   2.975   3.805   8.663  1.1757 -1.1008  1.1253
  140OSM   H17G15376   3.010   3.644   8.596 -0.0721 -1.0551  3.8168
  140OSM   C18F15377   2.851   3.657   8.735  0.1299 -0.4653  0.1317
  140OSM   H18F15378   2.908   3.648   8.829  1.3476 -0.4310 -0.5895
  140OSM   H18G15379   2.825   3.552   8.709 -2.0930  0.4095 -1.5598
  140OSM   H18H15380   2.757   3.714   8.754  1.1515  1.6755 -0.9612
  141OSM      N15381   2.503   3.490   6.071  0.1032 -0.5231  0.8196
  141OSM    C1515382   2.392   3.442   5.976  0.2841 -0.4646  0.0040
  141OSM   H15A15383   2.341   3.527   5.934  3.2973  1.0461 -0.9148
  141OSM   H15B15384   2.321   3.377   6.025  0.0352  2.0067  3.3325
  141OSM   H15C15385   2.431   3.386   5.892 -1.9286 -1.3627 -0.4951
  141OSM    C1415386   2.565   3.370   6.134 -0.7313 -1.0227  0.6355
  141OSM   H14A15387   2.626   3.313   6.065 -1.5313 -1.8739  0.6052
  141OSM   H14B15388   2.500   3.291   6.171 -2.9685  0.3000 -0.3158
  141OSM   H14C15389   2.624   3.409   6.216 -0.7796  3.0210 -1.0324
  141OSM    C1315390   2.597   3.578   5.997  0.0906  0.1265 -0.5098
  141OSM   H13A15391   2.543   3.661   5.954 -1.9032 -0.4020  0.8074
  141OSM   H13B15392   2.638   3.530   5.910 -0.9971 -0.9218 -0.4768
  141OSM   H13C15393   2.676   3.616   6.061  1.3741 -1.3188 -1.1816
  141OSM    C1215394   2.423   3.570   6.176 -0.2174 -0.5968  0.4478
  141OSM   H12A15395   2.486   3.568   6.264  0.0784 -1.9037  0.2192
  141OSM   H12B15396   2.336   3.513   6.206  1.3207 -2.3156  1.8707
  141OSM    C1115397   2.399   3.720   6.149  0.3808  0.0459  0.3505
  141OSM   H11A15398   2.326   3.755   6.225  0.1170  1.9853 -0.7313
  141OSM   H11B15399   2.348   3.745   6.053  1.3903  3.4314  0.5444
  141OSM      P15400   2.598   3.808   6.289  0.2134  0.1298  0.0556
  141OSM    O1315401   2.686   3.689   6.291  0.1462 -0.3860  0.3870
  141OSM    O1415402   2.655   3.945   6.303  0.2220 -0.4093  0.9084
  141OSM    O1115403   2.493   3.790   6.405 -0.8639 -0.0001 -0.3390
  141OSM    O1215404   2.516   3.799   6.160 -0.0321  0.1196 -0.2854
  141OSM    C1S15405   2.534   3.802   6.539  0.2406  0.4133  0.4047
  141OSM    H1S15406   2.599   3.890   6.555 -2.3868  3.3521 -3.1677
  141OSM    H1T15407   2.595   3.713   6.563 -0.1185 -0.5360 -1.9253
  141OSM     NF15408   2.473   3.846   6.763 -0.1113 -0.2776 -0.2437
  141OSM    HNF15409   2.483   3.788   6.844 -0.0244  1.0928  0.7702
  141OSM    C2S15410   2.419   3.806   6.635  0.4150  0.2060 -0.1309
  141OSM    H2S15411   2.341   3.882   6.613 -1.0374 -0.2332  2.8641
  141OSM    C3S15412   2.335   3.671   6.640  0.6893  0.2248 -0.1555
  141OSM    H3S15413   2.408   3.592   6.666  0.9781  0.2144 -0.9561
  141OSM     O315414   2.289   3.633   6.513 -0.2871  0.1434 -0.1467
  141OSM    HO315415   2.332   3.698   6.457  2.0054  0.2014  1.5448
  141OSM    C4S15416   2.225   3.681   6.741 -0.3277  0.1368  0.3803
  141OSM    H4S15417   2.270   3.654   6.838  1.1353 -1.3167 -0.6669
  141OSM    C5S15418   2.094   3.716   6.728  0.8519 -0.5876  0.2239
  141OSM    H5S15419   2.051   3.739   6.629 -1.6426 -1.8577  0.9286
  141OSM    C6S15420   1.995   3.708   6.838 -0.6298  0.1655  0.7127
  141OSM    H6S15421   1.918   3.786   6.818 -1.4406 -0.4557  1.3285
  141OSM    H6T15422   2.045   3.749   6.929 -0.5989 -0.9654  1.2306
  141OSM    C7S15423   1.937   3.570   6.874 -0.2843 -0.1784 -0.4293
  141OSM    H7S15424   2.014   3.492   6.854 -0.5671 -0.9842  1.3561
  141OSM    H7T15425   1.860   3.539   6.801  0.9140  0.0182 -1.8372
  141OSM    C8S15426   1.874   3.550   7.020  0.4199  0.3615 -0.3281
  141OSM    H8S15427   1.964   3.541   7.084 -0.8801 -0.2682  1.4775
  141OSM    H8T15428   1.830   3.449   7.018  0.5329  0.2122  2.2523
  141OSM    C9S15429   1.765   3.661   7.047  0.1559  0.8201  0.4580
  141OSM    H9S15430   1.695   3.652   6.961 -0.1423 -1.5702  0.8914
  141OSM    H9T15431   1.806   3.764   7.052  1.5255  0.2730  0.7050
  141OSM   C10S15432   1.685   3.641   7.179  0.2594  0.3692 -0.7103
  141OSM   H10S15433   1.656   3.534   7.189  0.5886  0.4565  1.8674
  141OSM   H10T15434   1.592   3.702   7.183  0.3096  0.4084 -0.1513
  141OSM   C11S15435   1.791   3.676   7.284  0.2107  0.6261  0.1218
  141OSM   H11S15436   1.820   3.781   7.266 -2.8196  1.1938 -2.1894
  141OSM   H11T15437   1.878   3.607   7.275  0.2214  0.3308  1.9381
  141OSM   C12S15438   1.747   3.646   7.430 -0.0537 -0.1066 -0.3137
  141OSM   H12S15439   1.653   3.704   7.447 -1.4385 -1.9398 -1.3274
  141OSM   H12T15440   1.830   3.668   7.500  0.2503 -1.4344 -0.2169
  141OSM   C13S15441   1.721   3.495   7.469 -0.3657 -0.0767  0.0643
  141OSM   H13S15442   1.812   3.433   7.461  0.0936  0.6987 -0.9320
  141OSM   H13T15443   1.655   3.458   7.388  1.1326 -2.5973 -0.1035
  141OSM   C14S15444   1.654   3.488   7.603 -0.3368  0.3382 -0.8895
  141OSM   H14S15445   1.603   3.390   7.618 -3.1599  1.4939 -2.0814
  141OSM   H14T15446   1.581   3.570   7.623  0.6182  1.0273 -0.1293
  141OSM   C15S15447   1.752   3.507   7.722  0.3222  1.0650 -0.0357
  141OSM   H15S15448   1.807   3.602   7.703 -1.0551  1.3770 -2.9802
  141OSM   H15T15449   1.829   3.429   7.740 -1.0059 -0.4934 -0.9169
  141OSM   C16S15450   1.675   3.513   7.857  0.5540 -0.2349  0.4594
  141OSM   H16S15451   1.616   3.421   7.876  0.8087 -0.3764  0.5728
  141OSM   H16T15452   1.602   3.596   7.845 -0.8197 -1.2856  1.2476
  141OSM   C17S15453   1.766   3.549   7.983 -0.0141 -0.3520  0.8265
  141OSM   H17S15454   1.699   3.536   8.071  0.3697 -1.5380  0.9592
  141OSM   H17T15455   1.801   3.655   7.973  4.3304 -1.7716 -2.4739
  141OSM   C18S15456   1.894   3.470   7.997  0.0145  0.4204  0.4538
  141OSM   H18S15457   1.954   3.488   8.089  0.3513 -1.0373  0.5382
  141OSM   H18T15458   1.961   3.473   7.909  0.6714  0.6703  0.9552
  141OSM   H18U15459   1.856   3.366   8.002  1.1236  0.0068  0.6184
  141OSM    C1F15460   2.515   3.977   6.783 -0.3482 -0.5749 -0.0653
  141OSM     OF15461   2.470   4.060   6.706  0.1457 -0.1658  0.3083
  141OSM    C2F15462   2.607   4.002   6.896 -0.7818  0.3210  0.6085
  141OSM    H2F15463   2.701   4.047   6.858 -1.5121 -0.5538 -2.5732
  141OSM    H2G15464   2.632   3.903   6.940 -1.3578  0.0847  0.4195
  141OSM    C3F15465   2.539   4.091   7.000 -0.5204  0.4348 -0.1349
  141OSM    H3F15466   2.444   4.051   7.040 -0.1053  1.4456  2.0321
  141OSM    H3G15467   2.516   4.190   6.954  1.1486 -0.1712 -2.4736
  141OSM    C4F15468   2.622   4.107   7.129 -0.0163  0.1255  0.3355
  141OSM    H4F15469   2.714   4.163   7.101 -0.7044  0.2849 -1.7372
  141OSM    H4G15470   2.648   4.002   7.154 -0.9324  0.0310  0.9154
  141OSM    C5F15471   2.556   4.199   7.235 -0.3479 -0.5069  0.0648
  141OSM    H5F15472   2.458   4.158   7.268  0.0553 -1.4499  0.1263
  141OSM    H5G15473   2.537   4.302   7.199  1.2640 -0.0039  0.5405
  141OSM    C6F15474   2.639   4.218   7.359  0.0609 -0.7414  0.5443
  141OSM    H6F15475   2.737   4.255   7.321 -1.1675  1.5746 -0.5947
  141OSM    H6G15476   2.654   4.120   7.410 -0.1453 -0.0913  1.8981
  141OSM    C7F15477   2.571   4.314   7.457 -0.7188  0.2156  0.3624
  141OSM    H7F15478   2.473   4.265   7.477 -1.1032  0.3893 -0.9940
  141OSM    H7G15479   2.549   4.414   7.415  0.6505  0.2147 -0.4014
  141OSM    C8F15480   2.656   4.335   7.587  0.5722  0.0796 -0.6571
  141OSM    H8F15481   2.746   4.391   7.553  3.1560 -3.3044  0.0934
  141OSM    H8G15482   2.697   4.239   7.625  0.0163  0.3000  0.5312
  141OSM    C9F15483   2.578   4.419   7.688  0.2410  0.5143  0.3851
  141OSM    H9F15484   2.545   4.517   7.650  1.0853  1.3140  1.6207
  141OSM   C10F15485   2.555   4.390   7.818  0.5091 -0.3193 -0.3436
  141OSM   H10F15486   2.505   4.461   7.886  1.8031 -2.2356  2.8290
  141OSM   C11F15487   2.622   4.273   7.893  0.2028  0.0402 -0.8381
  141OSM   H11F15488   2.725   4.251   7.857  0.0774 -0.2003 -1.0486
  141OSM   H11G15489   2.559   4.183   7.878  0.3703 -0.8607  2.8624
  141OSM   C12F15490   2.618   4.294   8.044 -0.2357  0.4810  0.8039
  141OSM   H12F15491   2.526   4.350   8.071  0.3997  2.2896 -0.6151
  141OSM   H12G15492   2.703   4.356   8.079  2.1628 -1.2103 -1.6765
  141OSM   C13F15493   2.609   4.152   8.104  0.2539 -1.2276 -0.4500
  141OSM   H13F15494   2.701   4.089   8.109  1.1994  0.1370  0.0238
  141OSM   H13G15495   2.531   4.087   8.060  2.0259 -2.5400 -1.8250
  141OSM   C14F15496   2.567   4.185   8.253 -0.2343  0.5493  0.5068
  141OSM   H14F15497   2.488   4.263   8.260 -2.1099 -0.8102 -3.0326
  141OSM   H14G15498   2.665   4.218   8.294 -0.1086  1.5723 -0.5433
  141OSM   C15F15499   2.519   4.055   8.320  0.9309  0.1584 -0.9287
  141OSM   H15F15500   2.589   3.972   8.294  1.1389 -0.6722  1.9410
  141OSM   H15G15501   2.422   4.030   8.272  1.4608  1.0269 -2.5475
  141OSM   C16F15502   2.514   4.071   8.475 -0.8925  0.1889 -0.1681
  141OSM   H16F15503   2.583   4.155   8.499 -2.2726  0.9724  1.2696
  141OSM   H16G15504   2.548   3.977   8.523 -3.9204 -1.9047 -1.7723
  141OSM   C17F15505   2.376   4.115   8.520  0.3075 -0.5144  0.6256
  141OSM   H17F15506   2.290   4.060   8.476 -0.2567  0.4387  0.4900
  141OSM   H17G15507   2.376   4.219   8.479  4.6724 -0.5813  0.0135
  141OSM   C18F15508   2.362   4.125   8.675  0.1417  1.0241  0.2297
  141OSM   H18F15509   2.462   4.153   8.715 -0.0252 -0.6562  1.9551
  141OSM   H18G15510   2.352   4.024   8.721 -1.9803  0.9282 -0.3186
  141OSM   H18H15511   2.277   4.191   8.702 -1.7313 -0.7556 -1.0026
  142OSM      N15512   2.915   5.606   6.291  0.1941  0.2468 -0.4307
  142OSM    C1515513   2.858   5.551   6.165 -0.2004 -0.5576 -0.3981
  142OSM   H15A15514   2.889   5.616   6.085 -1.2586  2.5318  1.5144
  142OSM   H15B15515   2.750   5.546   6.160 -0.3768  2.6459 -2.6618
  142OSM   H15C15516   2.896   5.451   6.150  2.2378  0.1266  0.7281
  142OSM    C1415517   2.887   5.516   6.404  0.0432  0.1210  0.3717
  142OSM   H14A15518   2.920   5.558   6.497 -1.9866 -0.0243  1.2119
  142OSM   H14B15519   2.936   5.421   6.388 -1.1316 -0.5797  0.7780
  142OSM   H14C15520   2.780   5.502   6.405  0.1607 -1.6070 -1.9919
  142OSM    C1315521   3.067   5.616   6.276 -0.8752  0.1118  0.0623
  142OSM   H13A15522   3.112   5.524   6.241 -1.9823 -0.6366  0.5439
  142OSM   H13B15523   3.111   5.660   6.364 -0.2964 -1.7511  0.7526
  142OSM   H13C15524   3.087   5.689   6.199 -0.4462 -0.8924 -0.8137
  142OSM    C1215525   2.851   5.739   6.311 -0.6933 -0.4308 -0.1863
  142OSM   H12A15526   2.873   5.775   6.411 -0.0476 -0.6147 -0.2574
  142OSM   H12B15527   2.748   5.709   6.304 -0.4120 -1.8584  1.0850
  142OSM    C1115528   2.875   5.844   6.209  0.1677  0.2263 -0.2758
  142OSM   H11A15529   2.815   5.938   6.211 -0.7002 -0.3191 -0.4098
  142OSM   H11B15530   2.850   5.797   6.112  0.8232  1.0395 -0.8509
  142OSM      P15531   3.065   5.998   6.297 -0.3833 -0.1633 -0.4711
  142OSM    O1315532   3.209   5.997   6.258 -0.1971  0.6774 -0.1079
  142OSM    O1415533   2.995   6.124   6.285 -0.0337 -0.4807  0.3403
  142OSM    O1115534   3.057   5.942   6.449 -0.0274 -0.8295 -0.1400
  142OSM    O1215535   3.014   5.880   6.205 -0.1099  0.1128 -0.1606
  142OSM    C1S15536   3.136   6.009   6.552  0.5211 -0.1399  0.1841
  142OSM    H1S15537   3.145   6.118   6.535 -0.1899 -0.5209 -3.6835
  142OSM    H1T15538   3.236   5.964   6.532 -1.5369 -4.7538 -1.2336
  142OSM     NF15539   3.143   6.069   6.788 -0.6848  0.6249  0.2951
  142OSM    HNF15540   3.189   6.016   6.859 -4.1862 -4.7095 -0.7714
  142OSM    C2S15541   3.074   5.982   6.690 -0.4184 -0.0904  0.4605
  142OSM    H2S15542   2.965   6.006   6.686 -0.7903 -1.8036 -0.5864
  142OSM    C3S15543   3.083   5.831   6.717 -0.2150 -0.8890 -0.5897
  142OSM    H3S15544   3.191   5.803   6.712  0.5547  1.3459  1.3904
  142OSM     O315545   3.019   5.754   6.622 -0.0395 -0.0041  0.5895
  142OSM    HO315546   3.034   5.805   6.542 -3.1152 -1.2328 -0.9458
  142OSM    C4S15547   3.030   5.802   6.852 -0.5843 -0.2868  0.3446
  142OSM    H4S15548   3.103   5.785   6.932 -0.3971  1.9411  0.7076
  142OSM    C5S15549   2.899   5.789   6.880 -0.4224 -0.0759  0.5135
  142OSM    H5S15550   2.836   5.799   6.791  0.6745 -1.5198 -0.4851
  142OSM    C6S15551   2.835   5.738   7.009  0.2201  0.6731 -0.4568
  142OSM    H6S15552   2.825   5.627   7.007 -0.7660  0.5433  3.4153
  142OSM    H6T15553   2.733   5.781   7.010 -0.1559 -0.1754  1.0399
  142OSM    C7S15554   2.922   5.768   7.133  0.5648 -0.1317 -0.6186
  142OSM    H7S15555   2.971   5.868   7.129 -0.6474  0.4509 -2.6704
  142OSM    H7T15556   3.011   5.702   7.125  1.0156  0.4621 -0.5674
  142OSM    C8S15557   2.857   5.732   7.266  0.3107  0.5345  0.1806
  142OSM    H8S15558   2.822   5.627   7.255  0.3345  0.6066 -0.5810
  142OSM    H8T15559   2.765   5.792   7.284 -0.0525  0.8616 -2.4702
  142OSM    C9S15560   2.962   5.724   7.377  0.4374  0.2652 -0.2292
  142OSM    H9S15561   3.015   5.821   7.380 -0.9595  1.0528  0.0403
  142OSM    H9T15562   3.043   5.649   7.367  2.0757  1.7231  1.3371
  142OSM   C10S15563   2.897   5.709   7.513 -0.5819 -0.5737  0.0547
  142OSM   H10S15564   2.867   5.603   7.526 -0.7252 -0.4465  0.8115
  142OSM   H10T15565   2.798   5.760   7.511  0.5114  1.6409  0.1135
  142OSM   C11S15566   2.995   5.747   7.629  1.0850 -0.3114  0.0101
  142OSM   H11S15567   2.930   5.756   7.718  1.1652  0.1008  0.0325
  142OSM   H11T15568   3.045   5.847   7.622  0.9021 -0.0141  2.2835
  142OSM   C12S15569   3.106   5.638   7.654 -0.0813 -0.0865  0.1901
  142OSM   H12S15570   3.158   5.606   7.561 -1.5303 -1.8489 -0.0767
  142OSM   H12T15571   3.049   5.550   7.691 -1.7879  0.6149 -0.6303
  142OSM   C13S15572   3.210   5.663   7.772 -0.0864  0.1676  0.1702
  142OSM   H13S15573   3.290   5.732   7.738 -0.5840 -0.0251 -1.4646
  142OSM   H13T15574   3.269   5.574   7.802 -1.3485 -0.7154  0.1238
  142OSM   C14S15575   3.140   5.731   7.896  0.0229  0.1685 -0.6795
  142OSM   H14S15576   3.039   5.689   7.921 -1.8084  1.9917 -4.2846
  142OSM   H14T15577   3.126   5.838   7.873 -1.2241  0.1029 -0.3187
  142OSM   C15S15578   3.220   5.714   8.031  0.2225  0.3917 -0.2138
  142OSM   H15S15579   3.175   5.787   8.101  0.9034  1.2020 -0.5898
  142OSM   H15T15580   3.327   5.739   8.012  0.1155 -0.4877 -2.1568
  142OSM   C16S15581   3.223   5.575   8.096  0.3464  0.6678 -0.1315
  142OSM   H16S15582   3.286   5.504   8.038 -2.3164  0.0786 -2.5155
  142OSM   H16T15583   3.121   5.530   8.098  1.9133 -3.3385 -1.0771
  142OSM   C17S15584   3.263   5.579   8.245 -0.0856  0.1898  0.1229
  142OSM   H17S15585   3.198   5.644   8.307 -1.3889  0.0097 -1.0206
  142OSM   H17T15586   3.362   5.628   8.249  0.1274 -0.1029 -1.1559
  142OSM   C18S15587   3.267   5.436   8.301  0.4962  1.0076 -0.5064
  142OSM   H18S15588   3.273   5.435   8.412  0.2887 -0.6990 -0.4804
  142OSM   H18T15589   3.364   5.388   8.274  0.6825  0.2306  1.3790
  142OSM   H18U15590   3.183   5.383   8.251  0.1820  1.3079 -0.3033
  142OSM    C1F15591   3.134   6.202   6.794 -0.1417  0.5459  0.1486
  142OSM     OF15592   3.055   6.264   6.728  0.3751 -0.1871  0.1285
  142OSM    C2F15593   3.237   6.268   6.884 -0.2486  0.7058  0.1366
  142OSM    H2F15594   3.276   6.358   6.832  0.4226  0.7924  0.7796
  142OSM    H2G15595   3.324   6.201   6.898  0.3649  1.2107 -1.1812
  142OSM    C3F15596   3.170   6.308   7.020 -0.0702  0.1433 -0.5193
  142OSM    H3F15597   3.124   6.217   7.064  0.2019  0.2787  0.0472
  142OSM    H3G15598   3.092   6.381   6.991  0.6194  0.6822 -1.0313
  142OSM    C4F15599   3.266   6.362   7.122  0.7654 -0.2633 -0.1967
  142OSM    H4F15600   3.314   6.457   7.091 -0.9238  0.5609 -0.3943
  142OSM    H4G15601   3.353   6.292   7.129  1.0239  0.0887  0.1318
  142OSM    C5F15602   3.198   6.374   7.261 -0.0668  0.5306  0.6891
  142OSM    H5F15603   3.102   6.429   7.247 -1.5493 -1.9446  0.4520
  142OSM    H5G15604   3.267   6.438   7.319  1.7352  1.7458 -2.5005
  142OSM    C6F15605   3.172   6.248   7.338  0.2768 -0.2838 -0.8509
  142OSM    H6F15606   3.269   6.195   7.342 -0.8530 -2.4395  2.8234
  142OSM    H6G15607   3.092   6.180   7.302  1.1014 -2.3960  1.1239
  142OSM    C7F15608   3.139   6.276   7.486 -0.7654  0.0488  0.7193
  142OSM    H7F15609   3.044   6.334   7.476 -0.7507 -0.0643 -0.1608
  142OSM    H7G15610   3.214   6.342   7.535  0.2159 -0.0581 -0.5871
  142OSM    C8F15611   3.113   6.139   7.561 -0.2984 -0.0332  0.3944
  142OSM    H8F15612   3.213   6.095   7.543  0.0015  0.0429  1.7789
  142OSM    H8G15613   3.046   6.074   7.500  0.0005 -0.3853  0.4413
  142OSM    C9F15614   3.072   6.164   7.703  0.2413  0.1517 -0.7721
  142OSM    H9F15615   2.964   6.172   7.722  0.3605  0.9353 -0.3739
  142OSM   C10F15616   3.148   6.173   7.808  0.7001  0.5496 -0.8046
  142OSM   H10F15617   3.097   6.186   7.904  1.3768  1.3509 -0.5389
  142OSM   C11F15618   3.298   6.148   7.812  0.0166  0.6719 -0.3949
  142OSM   H11F15619   3.346   6.201   7.727 -1.8513 -0.7159 -2.4503
  142OSM   H11G15620   3.317   6.041   7.790 -0.6057  0.1618  1.3833
  142OSM   C12F15621   3.351   6.188   7.951 -0.3918  0.1744  0.3086
  142OSM   H12F15622   3.314   6.293   7.961 -1.5738  0.0793 -2.2745
  142OSM   H12G15623   3.462   6.184   7.957 -0.3487  0.0654 -0.4316
  142OSM   C13F15624   3.292   6.110   8.069  0.3278 -0.1940 -0.0984
  142OSM   H13F15625   3.342   6.012   8.084  0.0586 -0.2305  0.6086
  142OSM   H13G15626   3.185   6.082   8.063  0.7996 -1.7684 -1.6053
  142OSM   C14F15627   3.286   6.190   8.194  0.3188 -0.1050  0.4044
  142OSM   H14F15628   3.227   6.282   8.172  1.8226  0.7747 -0.1627
  142OSM   H14G15629   3.390   6.226   8.210  0.5210  0.2294 -1.4334
  142OSM   C15F15630   3.246   6.109   8.315  0.1564 -0.3710 -0.1279
  142OSM   H15F15631   3.305   6.015   8.318 -0.1721 -0.5702  0.1556
  142OSM   H15G15632   3.139   6.083   8.307  0.0038 -0.6172  2.0222
  142OSM   C16F15633   3.281   6.167   8.452 -0.4529  0.1978  0.6200
  142OSM   H16F15634   3.184   6.201   8.494 -0.2525 -0.8797  2.0433
  142OSM   H16G15635   3.343   6.258   8.437  0.0671 -0.4288 -1.3325
  142OSM   C17F15636   3.345   6.061   8.545 -0.8430  0.1896  0.2498
  142OSM   H17F15637   3.396   6.108   8.632 -0.0706 -1.7672  0.8936
  142OSM   H17G15638   3.416   6.002   8.484  1.7940  1.7353  1.6625
  142OSM   C18F15639   3.239   5.960   8.590 -0.1062  0.8116 -0.4435
  142OSM   H18F15640   3.168   6.009   8.660 -1.3933 -0.9854 -0.4211
  142OSM   H18G15641   3.292   5.872   8.632 -1.1116 -0.8939 -2.5387
  142OSM   H18H15642   3.184   5.918   8.504  1.9761 -1.3453 -0.8353
  143OSM      N15643   3.715   0.458   6.119 -0.4060 -0.0170  0.0580
  143OSM    C1515644   3.684   0.312   6.129 -0.2760 -0.4531  0.2680
  143OSM   H15A15645   3.589   0.296   6.178 -1.0529 -1.2225 -1.3899
  143OSM   H15B15646   3.769   0.260   6.170  0.3673 -0.3234 -0.8473
  143OSM   H15C15647   3.662   0.267   6.033  2.1771 -0.8488 -0.1641
  143OSM    C1415648   3.834   0.463   6.027  0.4749  0.1516 -0.4835
  143OSM   H14A15649   3.927   0.426   6.066  0.2085  0.2839  0.2943
  143OSM   H14B15650   3.850   0.566   6.002  0.3770 -0.1737 -1.9714
  143OSM   H14C15651   3.809   0.416   5.933 -0.6520  0.7321 -0.4898
  143OSM    C1315652   3.603   0.543   6.059 -0.9319 -0.1690 -0.1145
  143OSM   H13A15653   3.631   0.648   6.063  1.2636 -0.7195  0.4318
  143OSM   H13B15654   3.507   0.528   6.107 -1.3738 -1.4296 -1.3347
  143OSM   H13C15655   3.594   0.536   5.952  0.8002  1.1098 -0.3895
  143OSM    C1215656   3.750   0.518   6.255 -0.4103 -0.1338 -0.4186
  143OSM   H12A15657   3.788   0.443   6.324  0.3550 -0.4848 -1.2016
  143OSM   H12B15658   3.657   0.548   6.301 -0.3775  0.7571 -0.9139
  143OSM    C1115659   3.830   0.645   6.272 -0.1750  0.1426  0.8037
  143OSM   H11A15660   3.935   0.634   6.237 -1.0431  1.0907 -2.4386
  143OSM   H11B15661   3.826   0.657   6.382 -0.3510  1.4061  0.6755
  143OSM      P15662   3.842   0.889   6.178 -0.4826  0.1268  0.1291
  143OSM    O1315663   3.976   0.870   6.116  0.1374 -0.0693  0.5859
  143OSM    O1415664   3.751   0.990   6.112  0.6673  0.5154 -0.3317
  143OSM    O1115665   3.865   0.945   6.325  0.7173  0.4016  0.5052
  143OSM    O1215666   3.761   0.748   6.195 -0.2969 -0.1595 -0.1109
  143OSM    C1S15667   3.757   0.957   6.417 -0.0582  0.1121  0.1061
  143OSM    H1S15668   3.740   0.858   6.464 -0.9497  1.2395  2.3236
  143OSM    H1T15669   3.657   0.979   6.374  0.6210 -0.1838 -1.7185
  143OSM     NF15670   3.680   1.046   6.645  0.2468 -0.7308 -0.4662
  143OSM    HNF15671   3.625   1.127   6.664  1.3571 -0.6241  3.0713
  143OSM    C2S15672   3.782   1.048   6.542 -0.3906 -0.6645 -0.3892
  143OSM    H2S15673   3.876   1.014   6.590 -0.7941  0.2506  1.1248
  143OSM    C3S15674   3.814   1.198   6.495  0.3503  0.1111  0.1905
  143OSM    H3S15675   3.734   1.234   6.427  1.6230  1.9496 -0.4219
  143OSM     O315676   3.924   1.207   6.405  0.5122 -0.1532  0.5647
  143OSM    HO315677   3.955   1.117   6.398  1.5225  0.1345  1.0892
  143OSM    C4S15678   3.837   1.286   6.614 -0.5747  0.0966 -0.3697
  143OSM    H4S15679   3.752   1.347   6.649  1.0289  0.9648  2.3451
  143OSM    C5S15680   3.950   1.295   6.685 -1.0512 -0.0915 -0.4003
  143OSM    H5S15681   4.030   1.221   6.677 -0.1544  0.8839 -0.5968
  143OSM    C6S15682   3.977   1.382   6.810  0.7077 -0.5173  0.3469
  143OSM    H6S15683   4.051   1.462   6.790 -2.4937  3.0940  1.6266
  143OSM    H6T15684   4.019   1.309   6.882  2.0108 -0.4497 -0.3312
  143OSM    C7S15685   3.852   1.453   6.867 -0.3052 -0.6981 -0.6312
  143OSM    H7S15686   3.788   1.364   6.886 -2.1642  0.4995 -1.0272
  143OSM    H7T15687   3.798   1.521   6.798 -1.1056  0.0284  0.6663
  143OSM    C8S15688   3.888   1.524   6.993  0.0641 -0.1501 -0.7756
  143OSM    H8S15689   3.966   1.600   6.968  1.0940 -2.1508 -4.4550
  143OSM    H8T15690   3.918   1.446   7.065 -3.2075 -0.9672 -0.1435
  143OSM    C9S15691   3.754   1.582   7.051  0.1460 -0.5559  0.2516
  143OSM    H9S15692   3.696   1.489   7.067 -0.6081  0.0132  0.8992
  143OSM    H9T15693   3.707   1.661   6.987 -1.0379 -0.6470  0.9844
  143OSM   C10S15694   3.777   1.659   7.184 -0.3454  0.0083 -0.1567
  143OSM   H10S15695   3.689   1.723   7.208 -0.4909  0.1864 -1.1265
  143OSM   H10T15696   3.856   1.730   7.151 -0.5743 -0.3001 -1.3988
  143OSM   C11S15697   3.816   1.585   7.313  0.4173 -0.0439 -0.8398
  143OSM   H11S15698   3.909   1.530   7.288  0.0457  0.3393 -3.3630
  143OSM   H11T15699   3.739   1.508   7.336  0.6570  0.3190  1.3892
  143OSM   C12S15700   3.829   1.677   7.432  0.1465 -0.1535 -0.5795
  143OSM   H12S15701   3.732   1.730   7.446  0.4319  0.9776 -2.5553
  143OSM   H12T15702   3.903   1.758   7.418 -0.0610  0.1076 -0.1728
  143OSM   C13S15703   3.867   1.617   7.568 -0.4105 -0.2362  0.1511
  143OSM   H13S15704   3.959   1.557   7.553 -1.7218 -2.2614 -0.1837
  143OSM   H13T15705   3.785   1.550   7.600 -0.7506  0.1828  0.1663
  143OSM   C14S15706   3.888   1.728   7.670  0.0234 -0.2296  0.2575
  143OSM   H14S15707   3.793   1.785   7.669  0.3008  0.2700 -1.5248
  143OSM   H14T15708   3.966   1.800   7.636 -0.3028 -0.0319 -0.0808
  143OSM   C15S15709   3.910   1.680   7.816 -0.3450 -0.7323 -0.0785
  143OSM   H15S15710   4.016   1.661   7.844 -0.0163  1.1358  0.1087
  143OSM   H15T15711   3.854   1.587   7.837  1.6497 -1.8329  0.6057
  143OSM   C16S15712   3.872   1.789   7.915 -0.1967  0.8318 -0.5030
  143OSM   H16S15713   3.764   1.810   7.903 -0.5896  0.4748  1.9155
  143OSM   H16T15714   3.931   1.879   7.887  2.6330 -0.2203  1.5028
  143OSM   C17S15715   3.902   1.745   8.057  0.2526  0.1359  0.5656
  143OSM   H17S15716   3.861   1.834   8.110  0.3749 -0.2870  1.3762
  143OSM   H17T15717   4.010   1.739   8.081  0.0965  1.4440  1.7794
  143OSM   C18S15718   3.832   1.617   8.121  0.1269  0.8009  0.4089
  143OSM   H18S15719   3.850   1.618   8.230  1.1794  0.2377  0.2483
  143OSM   H18T15720   3.876   1.524   8.078 -1.0764  0.7340 -0.7621
  143OSM   H18U15721   3.721   1.623   8.108 -0.3431 -3.2240  1.3554
  143OSM    C1F15722   3.649   0.939   6.720 -0.0775 -0.3937 -0.0276
  143OSM     OF15723   3.700   0.833   6.705 -0.4803  0.2322 -0.1861
  143OSM    C2F15724   3.540   0.953   6.835  0.6442  0.1259 -0.2514
  143OSM    H2F15725   3.468   0.880   6.792 -0.2272  0.4640  0.6082
  143OSM    H2G15726   3.495   1.054   6.847 -2.0169 -1.2039  1.9329
  143OSM    C3F15727   3.578   0.889   6.972  0.4642 -0.7317 -0.5142
  143OSM    H3F15728   3.613   0.788   6.942  0.9473 -0.4067 -1.0537
  143OSM    H3G15729   3.487   0.878   7.034 -0.8217  2.5810 -1.5795
  143OSM    C4F15730   3.695   0.960   7.050  0.2736 -0.2884  0.4319
  143OSM    H4F15731   3.693   1.068   7.021 -0.4545  0.4184  2.9048
  143OSM    H4G15732   3.796   0.926   7.017  0.7408  1.5923 -0.2346
  143OSM    C5F15733   3.674   0.946   7.206 -0.0783 -0.0482 -0.2634
  143OSM    H5F15734   3.646   0.844   7.241 -1.6260  0.9332  1.4576
  143OSM    H5G15735   3.587   1.015   7.208  0.5624  0.7722  1.9071
  143OSM    C6F15736   3.793   1.008   7.283  0.5608 -0.5815 -0.9043
  143OSM    H6F15737   3.855   1.074   7.219  1.0012  1.3144  1.3504
  143OSM    H6G15738   3.867   0.933   7.317  2.3357  1.6034  0.3357
  143OSM    C7F15739   3.743   1.095   7.407 -0.2804 -0.6226  0.5597
  143OSM    H7F15740   3.640   1.060   7.430 -0.1577 -2.2669 -1.1422
  143OSM    H7G15741   3.739   1.200   7.371  0.2068 -1.3131 -1.6686
  143OSM    C8F15742   3.831   1.077   7.531  0.2559  0.0070  0.3964
  143OSM    H8F15743   3.798   1.163   7.593  4.6617  1.5640  0.9330
  143OSM    H8G15744   3.929   1.096   7.483 -1.9064  3.6678 -3.1548
  143OSM    C9F15745   3.812   0.936   7.595 -0.4847 -0.3633 -0.4251
  143OSM    H9F15746   3.887   0.868   7.552 -0.7730 -0.6706 -0.4436
  143OSM   C10F15747   3.703   0.890   7.658 -0.3730 -0.0189  0.6658
  143OSM   H10F15748   3.719   0.792   7.705  1.3884 -0.7620 -1.3240
  143OSM   C11F15749   3.583   0.978   7.693 -0.7252 -0.0706  0.1361
  143OSM   H11F15750   3.491   0.925   7.663 -0.8163  0.5609 -0.7444
  143OSM   H11G15751   3.580   1.079   7.647 -2.4357  0.1023  0.5780
  143OSM   C12F15752   3.568   1.003   7.848 -0.1834  0.1910  0.3957
  143OSM   H12F15753   3.494   1.084   7.868  0.4813  0.0055  4.2840
  143OSM   H12G15754   3.662   1.041   7.892  0.9901 -1.4715 -0.5589
  143OSM   C13F15755   3.528   0.878   7.933 -0.7308  0.1069 -0.1132
  143OSM   H13F15756   3.621   0.827   7.967 -1.5329 -0.2802  1.5731
  143OSM   H13G15757   3.468   0.812   7.867 -0.5621  1.6204 -1.8621
  143OSM   C14F15758   3.458   0.920   8.060  0.4491 -0.4446 -1.3760
  143OSM   H14F15759   3.355   0.959   8.045  0.7395  0.4891 -0.9693
  143OSM   H14G15760   3.515   1.004   8.105 -2.3153  1.2075 -0.7219
  143OSM   C15F15761   3.454   0.809   8.168  0.1459  0.1882 -0.1300
  143OSM   H15F15762   3.436   0.716   8.108  1.4740  0.9800 -1.8549
  143OSM   H15G15763   3.374   0.841   8.237 -0.6737 -1.0786 -0.4456
  143OSM   C16F15764   3.589   0.791   8.244 -0.1769 -0.5038  0.1204
  143OSM   H16F15765   3.623   0.895   8.265 -1.0316  0.5482 -3.1212
  143OSM   H16G15766   3.655   0.751   8.164 -0.0113  1.6596 -0.8878
  143OSM   C17F15767   3.600   0.704   8.364  0.0035  0.5575 -0.4053
  143OSM   H17F15768   3.507   0.712   8.424  0.0006 -1.5933 -0.0428
  143OSM   H17G15769   3.685   0.738   8.428  1.5508 -0.3232 -1.9128
  143OSM   C18F15770   3.600   0.551   8.335  0.5062 -0.3198  0.5540
  143OSM   H18F15771   3.602   0.488   8.426 -0.5177 -0.9681  0.1405
  143OSM   H18G15772   3.702   0.539   8.291  1.2854  2.8041  1.2393
  143OSM   H18H15773   3.517   0.530   8.264  0.5261  3.7743 -0.9200
  144OSM      N15774   4.394   0.263   6.344  0.0292  0.1179 -0.3592
  144OSM    C1515775   4.381   0.349   6.221  0.2048 -0.2997 -0.3797
  144OSM   H15A15776   4.415   0.450   6.238 -0.5037 -0.1496  0.1600
  144OSM   H15B15777   4.280   0.351   6.183 -1.4753  1.0385  3.7010
  144OSM   H15C15778   4.454   0.318   6.148  0.3727  1.2986 -0.9335
  144OSM    C1415779   4.339   0.125   6.318 -0.5162 -0.1888 -0.1300
  144OSM   H14A15780   4.297   0.065   6.397 -0.9345  1.9469  1.3453
  144OSM   H14B15781   4.414   0.063   6.272  0.5938 -0.5363  1.9933
  144OSM   H14C15782   4.261   0.128   6.244  0.8249 -2.2989 -1.7379
  144OSM    C1315783   4.543   0.258   6.372  0.1665  0.1239 -0.4286
  144OSM   H13A15784   4.588   0.210   6.287 -1.7188 -1.0721 -0.7979
  144OSM   H13B15785   4.559   0.194   6.458  0.8912 -0.1066 -0.7271
  144OSM   H13C15786   4.584   0.358   6.382  1.4475 -0.4066 -0.0895
  144OSM    C1215787   4.329   0.332   6.465  0.1237  0.3058  0.0679
  144OSM   H12A15788   4.344   0.255   6.539  3.2891  0.4852 -0.2322
  144OSM   H12B15789   4.222   0.339   6.454  0.3666  1.3512 -2.0989
  144OSM    C1115790   4.365   0.467   6.523  0.6435  0.2718  0.1238
  144OSM   H11A15791   4.448   0.442   6.593 -0.3668  0.2688  1.3442
  144OSM   H11B15792   4.286   0.519   6.580  0.2976  0.3271 -0.4008
  144OSM      P15793   4.539   0.642   6.446  0.2316 -0.2272  0.1769
  144OSM    O1315794   4.665   0.566   6.425  0.0018  0.1590 -0.1984
  144OSM    O1415795   4.529   0.767   6.365 -0.3489 -0.6352  0.2092
  144OSM    O1115796   4.532   0.679   6.599 -0.1140 -0.2398  0.1232
  144OSM    O1215797   4.407   0.554   6.414 -0.1942  0.3619  0.6722
  144OSM    C1S15798   4.432   0.784   6.629 -0.6043  0.7408 -0.4113
  144OSM    H1S15799   4.331   0.747   6.601 -1.2237  1.3171  0.9797
  144OSM    H1T15800   4.461   0.883   6.588  0.6019  0.0926 -1.1810
  144OSM     NF15801   4.302   0.874   6.830 -0.8509  0.0553  0.1754
  144OSM    HNF15802   4.313   0.969   6.858 -0.1080 -0.1584  0.6374
  144OSM    C2S15803   4.419   0.800   6.784 -0.5196  0.2431 -0.0864
  144OSM    H2S15804   4.419   0.699   6.831  1.3990  1.0050  1.6864
  144OSM    C3S15805   4.548   0.850   6.843 -0.0033 -0.3336 -0.9644
  144OSM    H3S15806   4.573   0.954   6.814  1.1599 -0.4775 -0.5606
  144OSM     O315807   4.665   0.779   6.805  0.6185 -0.3163 -0.0787
  144OSM    HO315808   4.650   0.730   6.724  1.4700 -0.1980 -0.3160
  144OSM    C4S15809   4.533   0.852   6.998  0.3078  0.1173 -0.3871
  144OSM    H4S15810   4.526   0.956   7.031 -1.0743 -0.3395  0.9044
  144OSM    C5S15811   4.540   0.764   7.097 -0.3782  1.0251  0.2325
  144OSM    H5S15812   4.568   0.661   7.072 -1.8791 -0.1274  2.8525
  144OSM    C6S15813   4.527   0.792   7.248  0.0759 -1.0462  0.7515
  144OSM    H6S15814   4.442   0.732   7.287 -0.7428  0.7383  1.8598
  144OSM    H6T15815   4.507   0.899   7.270  0.0243 -1.1142  1.0504
  144OSM    C7S15816   4.648   0.744   7.329 -0.7015  0.3930 -0.7270
  144OSM    H7S15817   4.740   0.795   7.292 -0.8503  0.5077 -0.9367
  144OSM    H7T15818   4.665   0.634   7.324  2.2789  0.5757  1.7917
  144OSM    C8S15819   4.644   0.782   7.483  0.4120  0.3378 -0.0732
  144OSM    H8S15820   4.540   0.767   7.517  0.6579  0.1286  0.6125
  144OSM    H8T15821   4.663   0.892   7.488  0.8966  0.2621 -0.2065
  144OSM    C9S15822   4.742   0.695   7.559  0.7422 -0.3823 -0.9128
  144OSM    H9S15823   4.849   0.709   7.533  1.4374 -1.7559  1.0019
  144OSM    H9T15824   4.724   0.586   7.549  0.3782 -0.4033 -0.0948
  144OSM   C10S15825   4.735   0.716   7.709  0.2163 -0.3430 -0.4123
  144OSM   H10S15826   4.829   0.677   7.755  0.6622 -0.4988 -1.4321
  144OSM   H10T15827   4.653   0.659   7.757 -1.3813  1.0773 -1.3550
  144OSM   C11S15828   4.726   0.861   7.762 -0.0226 -0.0204 -0.1511
  144OSM   H11S15829   4.623   0.896   7.742 -0.3093  0.8404  2.4465
  144OSM   H11T15830   4.805   0.932   7.729  0.0534 -0.0077  0.0518
  144OSM   C12S15831   4.739   0.839   7.921  0.3801  0.3747  0.1387
  144OSM   H12S15832   4.704   0.737   7.948 -3.6788  0.9806 -1.9125
  144OSM   H12T15833   4.664   0.903   7.973 -3.4967 -1.1046 -3.0537
  144OSM   C13S15834   4.878   0.861   7.972 -0.1432 -0.5410 -0.7221
  144OSM   H13S15835   4.903   0.967   7.948  1.4018 -0.2219  1.8310
  144OSM   H13T15836   4.957   0.804   7.919 -0.8399 -1.2285 -1.0166
  144OSM   C14S15837   4.901   0.838   8.124  0.0423  0.0070  0.1914
  144OSM   H14S15838   4.878   0.737   8.161  0.9104 -0.2113  0.1676
  144OSM   H14T15839   4.849   0.916   8.183  0.5426  0.8537 -0.4541
  144OSM   C15S15840   5.039   0.886   8.169 -0.2953 -0.5583 -0.0738
  144OSM   H15S15841   5.045   0.990   8.132 -1.1538  0.4312  2.3781
  144OSM   H15T15842   5.110   0.813   8.125 -0.2414 -0.6571  0.1785
  144OSM   C16S15843   5.067   0.888   8.320 -0.7168 -0.0919  0.2845
  144OSM   H16S15844   5.009   0.810   8.375 -0.6107 -1.7677 -1.8350
  144OSM   H16T15845   5.016   0.982   8.349 -2.5958 -1.3689  1.3463
  144OSM   C17S15846   5.214   0.873   8.351 -0.4346  1.3242 -0.8614
  144OSM   H17S15847   5.275   0.943   8.288  3.0347  1.1492  2.0126
  144OSM   H17T15848   5.246   0.771   8.321 -0.2816  0.8140  0.9517
  144OSM   C18S15849   5.238   0.889   8.502 -0.5279  0.0787  0.0253
  144OSM   H18S15850   5.346   0.876   8.525 -0.5060  0.2524  0.0217
  144OSM   H18T15851   5.188   0.813   8.565 -1.1440  2.3857  2.5461
  144OSM   H18U15852   5.200   0.986   8.541 -1.9637  0.2101 -1.5927
  144OSM    C1F15853   4.183   0.815   6.848  0.7603 -0.4905  0.4590
  144OSM     OF15854   4.168   0.698   6.822  0.0622 -0.1545  0.2553
  144OSM    C2F15855   4.065   0.903   6.891  0.1275  0.0167  0.7462
  144OSM    H2F15856   3.977   0.837   6.907  0.6857 -0.1052  4.1576
  144OSM    H2G15857   4.034   0.979   6.817 -1.3210  0.7415  2.0360
  144OSM    C3F15858   4.088   0.964   7.031  0.2085  0.0536 -0.1780
  144OSM    H3F15859   3.995   1.021   7.052  0.8657  0.8320  0.7142
  144OSM    H3G15860   4.176   1.031   7.042  1.3244 -1.2145 -1.0698
  144OSM    C4F15861   4.111   0.862   7.151 -0.3338 -0.4121  0.5141
  144OSM    H4F15862   4.188   0.786   7.125 -0.9631 -1.2855  1.1274
  144OSM    H4G15863   4.022   0.801   7.176  1.7059 -3.0214  2.0282
  144OSM    C5F15864   4.158   0.932   7.280  0.3129 -0.4627  0.0331
  144OSM    H5F15865   4.087   1.012   7.311  1.1439 -0.0374  0.9042
  144OSM    H5G15866   4.259   0.978   7.273  0.5647 -0.8219  1.1944
  144OSM    C6F15867   4.165   0.827   7.395 -0.4129 -0.0727  0.4234
  144OSM    H6F15868   4.211   0.736   7.349 -0.5699  0.5864 -1.1154
  144OSM    H6G15869   4.058   0.813   7.422 -1.1856  1.2158 -1.6572
  144OSM    C7F15870   4.240   0.882   7.517 -0.0047 -0.6374 -0.1596
  144OSM    H7F15871   4.193   0.978   7.546 -1.6183 -1.6769  0.8233
  144OSM    H7G15872   4.344   0.896   7.480 -0.7558 -0.4857 -2.4016
  144OSM    C8F15873   4.234   0.790   7.646 -0.5289 -0.5572  0.1529
  144OSM    H8F15874   4.273   0.690   7.618 -0.3936 -0.4615 -0.0047
  144OSM    H8G15875   4.125   0.773   7.653 -0.7095 -0.2172 -1.4116
  144OSM    C9F15876   4.327   0.847   7.756 -0.0031 -0.1109 -0.2983
  144OSM    H9F15877   4.388   0.933   7.725  1.2031 -0.8324  0.0060
  144OSM   C10F15878   4.320   0.812   7.888 -0.2760 -0.1869 -0.0351
  144OSM   H10F15879   4.387   0.858   7.963  1.9545 -0.0865 -1.9680
  144OSM   C11F15880   4.220   0.707   7.943 -0.5426  0.1713 -0.1100
  144OSM   H11F15881   4.278   0.618   7.976  0.7847  0.5216 -1.3905
  144OSM   H11G15882   4.149   0.667   7.869  0.2295 -1.9403  0.2169
  144OSM   C12F15883   4.137   0.769   8.061  0.1081  0.4789  0.7453
  144OSM   H12F15884   4.191   0.798   8.154 -1.5112  3.3359  0.9176
  144OSM   H12G15885   4.085   0.676   8.091  0.0260  1.2696  3.2522
  144OSM   C13F15886   4.040   0.879   8.015 -0.1713 -0.2386 -0.4174
  144OSM   H13F15887   3.985   0.852   7.922 -1.9282  0.6078  0.3378
  144OSM   H13G15888   4.102   0.964   7.979  1.8429 -1.1990  0.6088
  144OSM   C14F15889   3.946   0.921   8.132 -0.3356 -0.5617  0.1177
  144OSM   H14F15890   3.993   0.913   8.232  1.9506  1.5459 -0.6898
  144OSM   H14G15891   3.871   0.841   8.147 -1.6899  0.7624  0.7029
  144OSM   C15F15892   3.866   1.052   8.128  0.0773 -0.4358  0.5181
  144OSM   H15F15893   3.776   1.046   8.063 -0.2700  3.1564  0.4674
  144OSM   H15G15894   3.919   1.131   8.071 -0.6408 -0.9952 -0.9632
  144OSM   C16F15895   3.857   1.126   8.261  0.7103 -0.0852 -0.7587
  144OSM   H16F15896   3.783   1.091   8.336 -0.1516 -2.0383 -2.4139
  144OSM   H16G15897   3.802   1.217   8.232 -0.1270 -1.0881 -2.4547
  144OSM   C17F15898   3.979   1.178   8.333 -0.4461  0.7145  0.4322
  144OSM   H17F15899   4.047   1.211   8.250 -1.6774  0.2920 -0.7786
  144OSM   H17G15900   4.030   1.091   8.380  1.0961  0.0955 -2.1809
  144OSM   C18F15901   3.961   1.293   8.434 -0.0773 -0.3194  0.0775
  144OSM   H18F15902   4.055   1.319   8.488 -0.4042  1.6431 -0.2082
  144OSM   H18G15903   3.885   1.261   8.509 -2.2394 -1.1535 -2.2943
  144OSM   H18H15904   3.911   1.378   8.384  0.7593 -0.1699 -0.5173
  145SAPE     N15905   0.567   0.586  10.901  0.5358  0.3379 -0.1741
  145SAPE   HN115906   0.480   0.584  10.957  0.5044 -1.9331 -0.2299
  145SAPE   HN215907   0.643   0.549  10.961  1.7513  1.8394 -0.6944
  145SAPE   HN315908   0.587   0.684  10.870 -2.0054  0.9094 -0.2091
  145SAPE   C1215909   0.546   0.501  10.780  0.3668 -0.0261 -0.0607
  145SAPE  H12A15910   0.448   0.532  10.737 -0.0700 -0.9287  0.2516
  145SAPE  H12B15911   0.544   0.395  10.816  0.0341 -0.4123 -1.1702
  145SAPE   C1115912   0.661   0.521  10.675 -0.5675  0.4324 -0.8307
  145SAPE  H11A15913   0.662   0.624  10.634  1.2020 -0.2212 -2.6272
  145SAPE  H11B15914   0.628   0.453  10.593  0.3653 -0.5718 -0.3946
  145SAPE     P15915   0.905   0.579  10.757 -0.0344 -0.5912 -0.0243
  145SAPE   O1315916   0.874   0.647  10.886  0.9196  0.1522 -0.1873
  145SAPE   O1415917   1.036   0.520  10.752 -0.6305 -0.0357 -0.3376
  145SAPE   O1215918   0.787   0.472  10.726 -0.3104  0.0333  0.3848
  145SAPE   O1115919   0.892   0.676  10.631  0.0388  0.5879  0.0917
  145SAPE    C115920   0.945   0.641  10.508 -0.5806  0.1123  0.1015
  145SAPE    HA15921   0.926   0.533  10.490  0.0287  0.1553 -0.8716
  145SAPE    HB15922   0.890   0.697  10.429 -1.2491 -0.0054  0.4723
  145SAPE    C215923   1.093   0.689  10.493  0.3416  0.0410 -0.1896
  145SAPE    HS15924   1.140   0.678  10.593 -1.2404 -1.1710  0.4612
  145SAPE   O2115925   1.099   0.830  10.449 -0.2140  0.4422 -0.0010
  145SAPE   C2115926   1.081   0.914  10.549 -0.3634  0.1581 -0.1866
  145SAPE   O2215927   1.065   0.882  10.666 -0.1442 -0.0333 -0.4385
  145SAPE   C2215928   1.084   1.061  10.488  0.0109 -0.2349  0.3224
  145SAPE   H2R15929   1.182   1.073  10.437 -0.4814  0.3539 -0.4995
  145SAPE   H2S15930   1.006   1.069  10.410  0.6527 -1.5222 -0.4889
  145SAPE    C315931   1.172   0.595  10.391 -0.4353 -0.1880  0.1663
  145SAPE    HX15932   1.191   0.496  10.436  0.8024 -0.1453 -0.2163
  145SAPE    HY15933   1.275   0.631  10.371 -1.2989  2.1958 -0.4389
  145SAPE   O3115934   1.085   0.578  10.269  0.2123  0.0523 -0.2254
  145SAPE   C3115935   1.111   0.653  10.166 -0.6339 -0.4580  0.0419
  145SAPE   O3215936   1.189   0.749  10.172 -0.5142  0.0416 -0.4789
  145SAPE   C3215937   1.015   0.632  10.047 -0.1826  0.4532 -0.1866
  145SAPE   H2X15938   0.960   0.728  10.040  0.7481  0.9849 -0.2263
  145SAPE   H2Y15939   0.941   0.550  10.064  3.0191 -2.4652  0.8329
  145SAPE   C2315940   1.056   1.172  10.589  0.3997  0.3030 -0.0188
  145SAPE   H3R15941   1.139   1.173  10.662 -0.0671  0.6967  0.5178
  145SAPE   H3S15942   0.963   1.146  10.645  1.8856 -3.3437  1.0356
  145SAPE   C2415943   1.047   1.305  10.522  0.0653 -0.3360  0.1357
  145SAPE   H4R15944   1.146   1.316  10.473  0.4515 -1.0934  0.7276
  145SAPE   H4S15945   1.055   1.391  10.592 -0.8860  0.1148 -0.2937
  145SAPE   C2515946   0.933   1.320  10.426 -0.6370 -0.1740 -0.1294
  145SAPE   H5R15947   0.845   1.265  10.461 -0.6997  0.7530  1.2474
  145SAPE   C2615948   0.936   1.408  10.315 -0.2189 -0.6659 -0.2965
  145SAPE   H6R15949   0.848   1.439  10.258  0.5712 -0.1902 -1.2801
  145SAPE   C2715950   1.060   1.496  10.289  0.5332 -0.8457 -0.8177
  145SAPE   H7R15951   1.142   1.434  10.249  1.0956 -0.9212  0.4030
  145SAPE   H7S15952   1.102   1.547  10.379  0.7677  0.7224 -1.7777
  145SAPE   C2815953   1.029   1.593  10.181  0.5772 -0.3310 -0.3451
  145SAPE   H8R15954   0.990   1.688  10.221  0.2689 -0.4786 -0.2900
  145SAPE   C2915955   1.021   1.567  10.051 -0.3935 -0.2646  0.8881
  145SAPE   H9R15956   0.990   1.648   9.983  0.5472 -0.3096  0.3982
  145SAPE  C21015957   1.041   1.434   9.983  0.4830  0.3974 -0.0657
  145SAPE  H10R15958   1.025   1.352  10.055  1.3484  0.5250  0.2861
  145SAPE  H10S15959   1.149   1.419   9.964  0.2344 -0.4112 -0.9377
  145SAPE  C21115960   0.953   1.406   9.860  0.2888  0.3432  0.2401
  145SAPE  H11R15961   0.870   1.338   9.881 -0.0270  0.9667  1.0644
  145SAPE  C21215962   0.989   1.427   9.731  0.0319  0.1755  0.0684
  145SAPE  H12R15963   0.919   1.395   9.651  0.8291 -0.3014 -0.4494
  145SAPE  C21315964   1.099   1.518   9.697 -0.3852  0.2050  0.4205
  145SAPE  H13R15965   1.142   1.550   9.794  0.7654 -1.0694  0.3599
  145SAPE  H13S15966   1.062   1.610   9.647 -2.9806  0.0547  1.9122
  145SAPE  C21415967   1.208   1.455   9.610  1.2395  0.2179 -0.8477
  145SAPE  H14R15968   1.300   1.433   9.665  1.8386  0.0579 -1.8864
  145SAPE  C21515969   1.199   1.441   9.479 -0.6171  0.5628 -0.6757
  145SAPE  H15R15970   1.281   1.401   9.418 -0.4423  2.5647 -1.8246
  145SAPE  C21615971   1.077   1.465   9.391 -0.0065 -0.1129 -0.5293
  145SAPE  H16R15972   0.996   1.526   9.435  1.8374  1.7266  0.4762
  145SAPE  H16S15973   1.026   1.368   9.373  3.1201 -1.5457 -2.6291
  145SAPE  C21715974   1.100   1.519   9.244 -0.6236  0.9413  0.4169
  145SAPE  H17R15975   1.160   1.612   9.252 -3.3343  2.8776 -0.2178
  145SAPE  H17S15976   0.998   1.550   9.213 -1.3525  1.8605  3.4157
  145SAPE  C21815977   1.161   1.421   9.142 -0.3139 -0.0175 -0.1186
  145SAPE  H18R15978   1.119   1.320   9.162 -0.0348 -0.5547 -2.0324
  145SAPE  H18S15979   1.271   1.415   9.159 -0.3963  1.8319  1.3636
  145SAPE  C21915980   1.140   1.449   8.998 -0.6250  0.0022 -0.0102
  145SAPE  H19R15981   1.188   1.365   8.943  3.4361  1.8283  0.3539
  145SAPE  H19S15982   1.183   1.544   8.958  1.5003 -1.6645 -1.9401
  145SAPE  C22015983   0.995   1.455   8.966 -0.1577 -0.3865  0.3148
  145SAPE  H20R15984   0.943   1.369   9.012  0.0046 -1.6896 -1.7845
  145SAPE  H20S15985   0.994   1.439   8.856  0.7966 -3.6085  0.6829
  145SAPE  H20T15986   0.951   1.557   8.971  0.9637  0.0612  1.6669
  145SAPE   C3315987   1.094   0.607   9.917  0.5091  0.4575 -0.9979
  145SAPE   H3X15988   1.115   0.499   9.904 -1.3754  0.0006 -0.5003
  145SAPE   H3Y15989   1.188   0.666   9.917  2.6675 -2.7381  0.1933
  145SAPE   C3415990   1.013   0.644   9.795 -0.3171 -0.6061 -1.0958
  145SAPE   H4X15991   0.979   0.750   9.793  0.0956 -0.4834 -2.0911
  145SAPE   H4Y15992   0.926   0.576   9.803 -0.7519  0.1711  3.1015
  145SAPE   C3515993   1.094   0.623   9.670 -0.1227  0.5883 -0.4391
  145SAPE   H5X15994   1.105   0.513   9.661  0.6783  0.8207 -3.2646
  145SAPE   H5Y15995   1.191   0.677   9.665  0.5981 -0.6841 -0.5152
  145SAPE   C3615996   1.023   0.668   9.539 -0.2131  0.1603 -0.3924
  145SAPE   H6X15997   1.078   0.611   9.461 -3.6443 -0.0780 -2.8176
  145SAPE   H6Y15998   1.012   0.778   9.535 -1.7665  0.0243 -0.2810
  145SAPE   C3715999   0.881   0.614   9.535  0.1765  0.0721  0.4074
  145SAPE   H7X16000   0.820   0.676   9.604 -0.8246 -2.9914  2.5170
  145SAPE   H7Y16001   0.863   0.513   9.578 -1.8824  0.0951 -0.2877
  145SAPE   C3816002   0.820   0.615   9.400 -0.5014 -0.5894 -0.1351
  145SAPE   H8X16003   0.895   0.579   9.327 -1.3495 -2.6098 -0.0884
  145SAPE   H8Y16004   0.789   0.719   9.377 -2.1751 -1.0701 -0.1218
  145SAPE   C3916005   0.702   0.514   9.391 -0.1024  0.1476  0.3128
  145SAPE   H9X16006   0.616   0.556   9.446  0.6045  1.7286  0.2525
  145SAPE   H9Y16007   0.720   0.406   9.410 -1.2645 -0.1266 -0.0662
  145SAPE  C31016008   0.642   0.501   9.252  0.4798 -0.0734  0.4151
  145SAPE  H10X16009   0.621   0.598   9.202  2.4693 -0.6581 -1.7096
  145SAPE  H10Y16010   0.544   0.451   9.267 -0.5673  1.7930  0.1266
  145SAPE  C31116011   0.726   0.420   9.147 -0.1741 -0.2525 -0.2911
  145SAPE  H11X16012   0.653   0.394   9.068 -0.0468  1.3134 -0.9546
  145SAPE  H11Y16013   0.759   0.332   9.206 -0.4834  0.6328  1.2638
  145SAPE  C31216014   0.842   0.494   9.094 -0.5610 -0.2334 -0.5581
  145SAPE  H12X16015   0.935   0.495   9.155  1.8502  1.2386 -3.9319
  145SAPE  H12Y16016   0.812   0.600   9.080  1.9031  1.0273  2.3964
  145SAPE  C31316017   0.893   0.422   8.961 -0.2178  0.3961 -0.2226
  145SAPE  H13X16018   0.992   0.451   8.922  0.8087  0.3100  2.1136
  145SAPE  H13Y16019   0.815   0.443   8.885  0.6441 -1.4192 -1.7084
  145SAPE  C31416020   0.907   0.273   8.979  0.3627 -0.0109  0.2138
  145SAPE  H14X16021   0.815   0.210   8.984  1.2767 -1.7580 -2.6782
  145SAPE  H14Y16022   0.958   0.256   9.076  1.6346  1.1016 -0.2367
  145SAPE  C31516023   0.984   0.213   8.857  0.2553 -0.6076  0.4934
  145SAPE  H15X16024   1.080   0.267   8.852 -0.3958  0.6578  1.2551
  145SAPE  H15Y16025   0.913   0.248   8.778  3.3807 -0.3420 -2.4250
  145SAPE  C31616026   0.998   0.061   8.867  0.6336  0.7737 -0.6024
  145SAPE  H16X16027   0.995   0.011   8.768  3.8162  2.4095 -1.6367
  145SAPE  H16Y16028   0.911   0.020   8.923  0.2120  1.8935 -0.4079
  145SAPE  C31716029   1.125   0.019   8.939 -0.7006 -0.5800  0.2215
  145SAPE  H17X16030   1.148   0.090   9.021  2.3591 -0.9806 -0.1917
  145SAPE  H17Y16031   1.207   0.032   8.865 -0.6021  1.7480  0.6567
  145SAPE  C31816032   1.132  -0.123   9.000 -0.2719 -0.3224 -0.0017
  145SAPE  H18X16033   1.235  -0.164   8.994  0.6660  2.0540 -2.5925
  145SAPE  H18Y16034   1.066  -0.195   8.947 -2.2993 -1.4602  3.7716
  145SAPE  H18Z16035   1.109  -0.118   9.108  1.2068  2.9957  0.2942
  146SAPE     N16036   6.546   3.943  10.790  0.2327  0.2866  0.6181
  146SAPE   HN116037   6.500   4.002  10.718  0.9467 -0.7550 -0.7359
  146SAPE   HN216038   6.604   4.006  10.849  1.8352  1.0328 -1.6273
  146SAPE   HN316039   6.602   3.874  10.736 -1.1895 -0.4872  0.0837
  146SAPE   C1216040   6.450   3.872  10.881 -0.2151  0.0733 -0.3629
  146SAPE  H12A16041   6.432   3.925  10.977 -0.4275  0.6343 -0.7102
  146SAPE  H12B16042   6.493   3.776  10.918 -0.6137  0.3937  0.9812
  146SAPE   C1116043   6.315   3.865  10.814 -0.1916 -0.4837  0.6998
  146SAPE  H11A16044   6.319   3.804  10.721 -0.2631  0.8829 -0.2293
  146SAPE  H11B16045   6.287   3.969  10.788 -0.3110 -0.1396  2.1543
  146SAPE     P16046   6.060   3.811  10.886 -0.0325 -0.0314  0.0990
  146SAPE   O1316047   6.005   3.759  11.017  0.2386 -0.0153  1.0670
  146SAPE   O1416048   6.022   3.947  10.848 -0.2209  0.0182  0.0526
  146SAPE   O1216049   6.222   3.806  10.904  0.0692 -0.0032 -0.4899
  146SAPE   O1116050   6.019   3.707  10.774 -0.1307  0.0295 -0.4846
  146SAPE    C116051   6.101   3.611  10.707  0.0704 -0.2869 -0.2375
  146SAPE    HA16052   6.200   3.596  10.756 -0.3568 -0.4083  0.5943
  146SAPE    HB16053   6.058   3.509  10.719  0.3790 -0.3740  0.1381
  146SAPE    C216054   6.111   3.639  10.555 -0.1374  0.3018 -0.1272
  146SAPE    HS16055   6.159   3.739  10.548 -0.6842  0.8168  2.4752
  146SAPE   O2116056   5.976   3.638  10.508 -0.9062  0.3316  0.3612
  146SAPE   C2116057   5.933   3.754  10.470 -0.3334 -0.7830  0.6380
  146SAPE   O2216058   6.002   3.851  10.440  0.1838  0.1626 -0.1217
  146SAPE   C2216059   5.788   3.752  10.500  0.6414  0.4718  1.0337
  146SAPE   H2R16060   5.746   3.668  10.440  0.2653 -0.0560  2.0117
  146SAPE   H2S16061   5.764   3.736  10.607  0.0892  1.3019  1.0349
  146SAPE    C316062   6.191   3.529  10.479  0.0608  0.5702 -0.2427
  146SAPE    HX16063   6.136   3.436  10.505  1.2052  0.0282  0.3004
  146SAPE    HY16064   6.295   3.538  10.517  0.8715 -0.6913 -2.0399
  146SAPE   O3116065   6.183   3.546  10.340  0.2509  0.3458  0.0468
  146SAPE   C3116066   6.192   3.438  10.262  0.3253  0.3991  0.0105
  146SAPE   O3216067   6.216   3.322  10.304  0.4674  0.2698 -0.2432
  146SAPE   C3216068   6.178   3.491  10.114 -0.4403  0.3791  0.3029
  146SAPE   H2X16069   6.264   3.558  10.094  0.5880 -1.1509 -0.6346
  146SAPE   H2Y16070   6.077   3.533  10.097 -0.5755 -0.7655 -2.2356
  146SAPE   C2316071   5.732   3.888  10.446  1.0077  0.0479  0.4812
  146SAPE   H3R16072   5.796   3.971  10.409 -0.7619  0.6074 -1.5755
  146SAPE   H3S16073   5.675   3.923  10.535  1.0197 -0.1017  0.5475
  146SAPE   C2416074   5.638   3.862  10.331 -0.1429  0.1117 -0.0250
  146SAPE   H4R16075   5.599   3.964  10.308 -1.6435 -0.4763 -0.2554
  146SAPE   H4S16076   5.542   3.811  10.354  0.6098 -2.2721 -1.7017
  146SAPE   C2516077   5.706   3.813  10.208  0.0073 -0.2955  0.1747
  146SAPE   H5R16078   5.809   3.851  10.201 -0.2955  0.2395 -2.7377
  146SAPE   C2616079   5.660   3.734  10.104 -0.6370 -0.2111  0.2923
  146SAPE   H6R16080   5.714   3.718  10.010 -0.2857 -0.1872  0.4876
  146SAPE   C2716081   5.523   3.676  10.113  0.9466 -0.5246 -0.5376
  146SAPE   H7R16082   5.490   3.666  10.218 -1.3959  1.2909 -1.0175
  146SAPE   H7S16083   5.530   3.568  10.086  0.1287 -0.5956 -0.5040
  146SAPE   C2816084   5.422   3.742  10.018  0.9865  0.0419  0.8483
  146SAPE   H8R16085   5.363   3.824  10.063 -0.0634  1.4385 -2.6716
  146SAPE   C2916086   5.407   3.719   9.884 -0.1796 -0.0486  0.0354
  146SAPE   H9R16087   5.344   3.785   9.822 -1.2571 -0.1138  1.0226
  146SAPE  C21016088   5.487   3.622   9.792  0.1122 -0.1139 -0.0888
  146SAPE  H10R16089   5.423   3.551   9.734 -0.4072 -0.0070  0.3473
  146SAPE  H10S16090   5.551   3.553   9.851  1.6463  0.4478 -1.0368
  146SAPE  C21116091   5.568   3.699   9.698 -0.1175 -0.0040  0.2730
  146SAPE  H11R16092   5.666   3.729   9.739  0.0668  1.1215 -0.9200
  146SAPE  C21216093   5.530   3.737   9.570 -0.4391 -0.1959  0.7243
  146SAPE  H12R16094   5.594   3.811   9.519  1.1606 -2.0215 -0.0452
  146SAPE  C21316095   5.415   3.706   9.487  0.5476 -0.2798  0.4064
  146SAPE  H13R16096   5.375   3.784   9.419 -0.6056 -0.9627  0.2703
  146SAPE  H13S16097   5.331   3.696   9.560 -0.2443 -0.2902 -0.4870
  146SAPE  C21416098   5.425   3.576   9.414 -0.8474  0.0262  0.0216
  146SAPE  H14R16099   5.462   3.494   9.478 -1.4645 -0.4378 -0.2072
  146SAPE  C21516100   5.382   3.553   9.287  0.0361 -0.4304 -0.3730
  146SAPE  H15R16101   5.409   3.453   9.248  1.7445 -0.1182 -0.0724
  146SAPE  C21616102   5.330   3.645   9.183  0.5776  0.3480  0.9618
  146SAPE  H16R16103   5.362   3.751   9.196 -0.6586  0.9161 -0.3693
  146SAPE  H16S16104   5.219   3.646   9.191  0.3041 -2.7048 -0.8251
  146SAPE  C21716105   5.362   3.602   9.037 -0.8106  0.1083  0.0589
  146SAPE  H17R16106   5.299   3.661   8.967 -1.3423 -0.8391 -0.2751
  146SAPE  H17S16107   5.336   3.495   9.026  1.3695 -0.5812  0.9841
  146SAPE  C21816108   5.511   3.609   9.008 -0.4608 -0.2228 -0.0022
  146SAPE  H18R16109   5.567   3.539   9.072 -0.2734 -1.4857 -1.4800
  146SAPE  H18S16110   5.558   3.709   9.014  1.0705 -0.9991  1.8069
  146SAPE  C21916111   5.547   3.557   8.870 -0.6870  0.1976 -0.1523
  146SAPE  H19R16112   5.494   3.615   8.791 -1.3709  1.0458  0.9091
  146SAPE  H19S16113   5.517   3.450   8.871  0.6571 -0.1987 -0.0496
  146SAPE  C22016114   5.699   3.564   8.842 -0.4549  0.2478  0.3879
  146SAPE  H20R16115   5.725   3.672   8.850 -0.0008  0.1029  0.9291
  146SAPE  H20S16116   5.711   3.519   8.741 -0.7538  0.4146  0.2776
  146SAPE  H20T16117   5.751   3.509   8.923  0.5058  0.6819  0.0843
  146SAPE   C3316118   6.205   3.378  10.013 -0.7456 -0.1017 -0.4721
  146SAPE   H3X16119   6.123   3.302  10.013 -1.0716  0.2355  0.4373
  146SAPE   H3Y16120   6.303   3.328  10.024  0.3027  2.1086  0.8117
  146SAPE   C3416121   6.209   3.438   9.868 -0.3741  0.3177 -0.0029
  146SAPE   H4X16122   6.272   3.529   9.871 -1.2896  0.9990 -0.7366
  146SAPE   H4Y16123   6.104   3.463   9.843 -0.3517  0.6975  0.2652
  146SAPE   C3516124   6.252   3.332   9.768 -0.9025  0.0490  0.2580
  146SAPE   H5X16125   6.170   3.258   9.770 -0.4136 -0.5762 -1.3757
  146SAPE   H5Y16126   6.346   3.283   9.799  1.4260  3.1959 -1.1713
  146SAPE   C3616127   6.252   3.373   9.621 -0.3136 -0.2532  0.0305
  146SAPE   H6X16128   6.153   3.423   9.606 -0.2864  0.2396  1.3898
  146SAPE   H6Y16129   6.269   3.285   9.556  0.6204 -2.9480  3.6578
  146SAPE   C3716130   6.371   3.462   9.596  0.1396 -0.6655  0.2607
  146SAPE   H7X16131   6.467   3.411   9.619  0.4169  0.9066  2.9908
  146SAPE   H7Y16132   6.354   3.545   9.668  0.8407 -1.3982  1.2994
  146SAPE   C3816133   6.374   3.527   9.453  0.1161  0.6691  0.4004
  146SAPE   H8X16134   6.451   3.607   9.447  0.7884 -0.0369 -0.5158
  146SAPE   H8Y16135   6.272   3.565   9.434  0.5107  1.2395 -0.6450
  146SAPE   C3916136   6.406   3.424   9.336 -0.6591  0.6792  0.4795
  146SAPE   H9X16137   6.340   3.336   9.349  0.0040 -0.0502 -0.8653
  146SAPE   H9Y16138   6.506   3.376   9.339 -0.8950  0.2322  2.5774
  146SAPE  C31016139   6.375   3.495   9.195  0.2666 -0.1639 -0.3058
  146SAPE  H10X16140   6.452   3.573   9.177  1.0205 -0.2261  2.2527
  146SAPE  H10Y16141   6.272   3.537   9.191 -0.0895 -0.9722  0.1818
  146SAPE  C31116142   6.387   3.403   9.069  0.2143  0.0521 -0.1678
  146SAPE  H11X16143   6.476   3.337   9.066 -1.4160 -2.3082 -2.8939
  146SAPE  H11Y16144   6.402   3.472   8.982 -2.9211  1.4547  0.2324
  146SAPE  C31216145   6.252   3.337   9.051 -0.5528  0.0293 -0.1171
  146SAPE  H12X16146   6.163   3.401   9.032 -0.6388  0.8424  2.6574
  146SAPE  H12Y16147   6.219   3.296   9.149  1.2062 -0.6327  0.2450
  146SAPE  C31316148   6.256   3.221   8.944 -0.1030  0.1737  0.0444
  146SAPE  H13X16149   6.159   3.172   8.964 -0.2956 -0.2993 -1.9001
  146SAPE  H13Y16150   6.343   3.168   8.989  0.1583  0.6455  0.1121
  146SAPE  C31416151   6.269   3.273   8.801 -0.2157  0.6789  0.2785
  146SAPE  H14X16152   6.350   3.350   8.805  0.9398 -0.5060  0.4050
  146SAPE  H14Y16153   6.180   3.330   8.769 -1.4792 -0.5217  1.5127
  146SAPE  C31516154   6.302   3.152   8.711  0.1725  0.7880  0.2478
  146SAPE  H15X16155   6.218   3.080   8.715  1.0765 -0.2918  0.2226
  146SAPE  H15Y16156   6.395   3.103   8.747  1.0232  0.8344 -1.7452
  146SAPE  C31616157   6.333   3.205   8.565 -0.2956 -0.4533  0.3856
  146SAPE  H16X16158   6.244   3.265   8.539 -0.3452 -0.7150 -0.0567
  146SAPE  H16Y16159   6.337   3.128   8.485  0.2594 -0.8271  0.7616
  146SAPE  C31716160   6.456   3.290   8.553  0.9066  0.0829 -0.3381
  146SAPE  H17X16161   6.550   3.248   8.595  1.3661  2.0542  0.6836
  146SAPE  H17Y16162   6.438   3.380   8.615 -1.7579 -0.4441 -0.2140
  146SAPE  C31816163   6.494   3.341   8.412  0.5652 -0.2993  0.4616
  146SAPE  H18X16164   6.542   3.441   8.418 -1.2220  0.7111 -1.1534
  146SAPE  H18Y16165   6.409   3.355   8.342  3.8133  0.8443 -3.6785
  146SAPE  H18Z16166   6.571   3.268   8.378 -0.4354 -0.9086 -0.5839
  147SAPE     N16167   2.335   6.320  10.779 -0.0506  0.4371  0.0472
  147SAPE   HN116168   2.238   6.327  10.744  0.3048 -0.6470 -1.2615
  147SAPE   HN216169   2.334   6.345  10.880 -2.1163  0.2985  0.0922
  147SAPE   HN316170   2.396   6.391  10.734  0.2965 -0.0188 -0.2211
  147SAPE   C1216171   2.389   6.177  10.745 -0.4516 -0.3260 -0.7502
  147SAPE  H12A16172   2.496   6.173  10.773  0.1378  0.7483 -2.6986
  147SAPE  H12B16173   2.390   6.167  10.634 -1.2232  0.4371 -0.8353
  147SAPE   C1116174   2.313   6.059  10.797  0.1138  0.2532 -0.4101
  147SAPE  H11A16175   2.206   6.059  10.769 -0.8426  2.5549  2.6813
  147SAPE  H11B16176   2.310   6.056  10.908  5.3932 -2.5294 -0.0044
  147SAPE     P16177   2.474   5.857  10.803 -0.2370 -0.1880  0.2134
  147SAPE   O1316178   2.499   5.910  10.938  0.0235 -0.4477 -0.0523
  147SAPE   O1416179   2.443   5.714  10.798  0.6738 -0.0219 -0.1705
  147SAPE   O1216180   2.359   5.937  10.742  0.9560 -0.0558  0.0316
  147SAPE   O1116181   2.595   5.879  10.703 -0.0066  0.1718 -0.4912
  147SAPE    C116182   2.603   5.886  10.566  0.5333 -0.2594 -0.6936
  147SAPE    HA16183   2.501   5.898  10.523  0.7605 -0.3056 -1.2526
  147SAPE    HB16184   2.665   5.967  10.525  0.8550 -0.0992  0.0919
  147SAPE    C216185   2.664   5.752  10.515  0.5173  0.6030 -0.6644
  147SAPE    HS16186   2.720   5.781  10.423 -1.0961  3.9007 -0.7369
  147SAPE   O2116187   2.558   5.656  10.486 -0.4265 -0.0951 -0.2103
  147SAPE   C2116188   2.484   5.682  10.379  0.4507 -0.3523  0.3455
  147SAPE   O2216189   2.490   5.784  10.316  0.1991 -0.1276 -0.2771
  147SAPE   C2216190   2.394   5.560  10.348 -0.4899  0.4645 -0.2044
  147SAPE   H2R16191   2.355   5.531  10.448 -2.6668  1.6755 -0.6397
  147SAPE   H2S16192   2.312   5.596  10.281 -1.6112 -2.1702 -0.3813
  147SAPE    C316193   2.770   5.699  10.621  1.0839 -0.1941 -0.0141
  147SAPE    HX16194   2.715   5.638  10.696  1.1070 -1.9380 -1.3542
  147SAPE    HY16195   2.810   5.786  10.678  1.4003 -0.4005  0.0841
  147SAPE   O3116196   2.871   5.626  10.549  0.2251  0.1083 -0.0020
  147SAPE   C3116197   2.869   5.497  10.546  0.1915  0.2302  0.6434
  147SAPE   O3216198   2.782   5.431  10.603  0.3040  0.3984  0.0713
  147SAPE   C3216199   2.978   5.447  10.450 -0.0661 -0.3596 -0.0085
  147SAPE   H2X16200   2.974   5.339  10.422  0.6413 -0.1546 -0.9693
  147SAPE   H2Y16201   3.071   5.461  10.508  0.5742 -1.5591 -0.7086
  147SAPE   C2316202   2.471   5.443  10.277 -0.1555 -0.9987 -0.9794
  147SAPE   H3R16203   2.524   5.390  10.359  0.3358  0.9842  0.0435
  147SAPE   H3S16204   2.544   5.496  10.212  0.9877 -0.9215  0.3183
  147SAPE   C2416205   2.381   5.330  10.229 -0.0414 -0.2331  0.1390
  147SAPE   H4R16206   2.348   5.271  10.317 -0.2514 -0.9617 -0.4114
  147SAPE   H4S16207   2.445   5.258  10.173 -0.8208 -1.0141  0.2233
  147SAPE   C2516208   2.265   5.382  10.156  0.2157  0.1219 -0.2722
  147SAPE   H5R16209   2.176   5.416  10.212 -0.1465  0.5372 -1.0745
  147SAPE   C2616210   2.262   5.392  10.022 -0.2549  0.3182 -0.0014
  147SAPE   H6R16211   2.174   5.427   9.967  1.2017  1.1736 -1.9356
  147SAPE   C2716212   2.370   5.340   9.927 -0.1108 -0.0855  0.2644
  147SAPE   H7R16213   2.437   5.270   9.981 -0.6963  0.4856  1.7814
  147SAPE   H7S16214   2.430   5.430   9.899 -1.6643  0.0618 -3.2112
  147SAPE   C2816215   2.303   5.287   9.802 -0.5695  0.2690  0.1507
  147SAPE   H8R16216   2.307   5.177   9.795  0.1439  0.3914 -2.0971
  147SAPE   C2916217   2.249   5.361   9.702  0.3249  0.1130  0.0899
  147SAPE   H9R16218   2.212   5.298   9.620 -1.5635  0.6936  0.4417
  147SAPE  C21016219   2.239   5.505   9.684 -0.2269 -0.1451 -0.3730
  147SAPE  H10R16220   2.236   5.547   9.787  1.4783 -1.9024  0.4592
  147SAPE  H10S16221   2.148   5.551   9.639 -0.2479  0.8992  0.6925
  147SAPE  C21116222   2.363   5.556   9.616 -0.1612  0.5276 -0.1271
  147SAPE  H11R16223   2.440   5.593   9.685  1.3366 -3.8500  0.8991
  147SAPE  C21216224   2.389   5.562   9.485 -0.0487 -1.1236  0.2883
  147SAPE  H12R16225   2.493   5.579   9.452 -0.4250  1.3894  0.2110
  147SAPE  C21316226   2.298   5.516   9.373 -0.7530 -0.0409  0.1259
  147SAPE  H13R16227   2.219   5.447   9.411 -0.4106  0.6889  2.2375
  147SAPE  H13S16228   2.358   5.456   9.300 -1.4954 -0.7198  0.0527
  147SAPE  C21416229   2.241   5.628   9.289 -0.3195 -0.7576 -0.8415
  147SAPE  H14R16230   2.186   5.699   9.353 -1.9679 -1.1067 -1.8223
  147SAPE  C21516231   2.259   5.660   9.159 -0.1545 -0.4449 -0.5169
  147SAPE  H15R16232   2.212   5.755   9.131  0.4921 -0.0893 -0.4364
  147SAPE  C21616233   2.338   5.588   9.054  0.0345  0.0708 -0.2636
  147SAPE  H16R16234   2.375   5.489   9.090 -0.6924 -0.1138 -0.0119
  147SAPE  H16S16235   2.433   5.643   9.036 -0.7194  1.1011 -1.2051
  147SAPE  C21716236   2.277   5.569   8.912  0.1962  0.5680 -0.2811
  147SAPE  H17R16237   2.213   5.658   8.890 -1.2294 -0.3618 -0.0402
  147SAPE  H17S16238   2.215   5.477   8.910  3.3496 -1.7279 -2.6534
  147SAPE  C21816239   2.386   5.542   8.814 -0.1583 -0.4809  0.4321
  147SAPE  H18R16240   2.430   5.445   8.845 -2.0881 -1.3162  0.6754
  147SAPE  H18S16241   2.467   5.618   8.824 -1.3981  0.7337  1.8057
  147SAPE  C21916242   2.349   5.533   8.669 -0.0574 -0.0104 -0.1804
  147SAPE  H19R16243   2.309   5.632   8.638  2.6416  1.2911  0.1953
  147SAPE  H19S16244   2.264   5.462   8.658  0.0584 -0.2040  0.1743
  147SAPE  C22016245   2.470   5.502   8.574 -0.2527  0.2274 -0.5202
  147SAPE  H20R16246   2.552   5.567   8.611 -0.5225 -1.1419  2.8959
  147SAPE  H20S16247   2.445   5.523   8.468  0.6129  0.1610 -0.7460
  147SAPE  H20T16248   2.505   5.397   8.579  2.5016  0.9246 -2.8639
  147SAPE   C3316249   2.977   5.515  10.307 -0.8195  0.3712 -0.0099
  147SAPE   H3X16250   3.058   5.467  10.247 -0.7297  1.2583 -0.6118
  147SAPE   H3Y16251   2.999   5.624  10.309  0.6442  0.1060 -0.1511
  147SAPE   C3416252   2.845   5.499  10.228 -0.3363 -0.4172  0.6859
  147SAPE   H4X16253   2.761   5.503  10.301 -0.3547 -2.7870  0.8526
  147SAPE   H4Y16254   2.862   5.398  10.185  0.5675  0.6777 -1.6922
  147SAPE   C3516255   2.829   5.602  10.114  0.6255 -0.4054 -0.0012
  147SAPE   H5X16256   2.823   5.700  10.167 -0.2062 -1.2875  1.6021
  147SAPE   H5Y16257   2.733   5.597  10.058  0.5477  0.8698 -0.0163
  147SAPE   C3616258   2.946   5.612  10.008 -0.1898 -0.3776 -0.2252
  147SAPE   H6X16259   3.046   5.599  10.054  0.6226 -0.1101 -1.8448
  147SAPE   H6Y16260   2.934   5.716   9.970  0.1042 -0.0363  0.5803
  147SAPE   C3716261   2.958   5.512   9.889 -0.7978  0.4578  0.1583
  147SAPE   H7X16262   2.952   5.410   9.933 -2.2708  0.0873 -0.7957
  147SAPE   H7Y16263   3.052   5.528   9.833 -1.6314  1.8563 -0.9189
  147SAPE   C3816264   2.843   5.540   9.786 -0.1083 -0.1775 -0.2741
  147SAPE   H8X16265   2.866   5.644   9.753 -3.9994  0.2572 -2.3163
  147SAPE   H8Y16266   2.742   5.529   9.833 -0.0823  0.3636 -0.0812
  147SAPE   C3916267   2.857   5.445   9.665 -0.0239  0.1196 -0.0853
  147SAPE   H9X16268   2.861   5.340   9.703  0.0171  0.3058  0.4318
  147SAPE   H9Y16269   2.948   5.453   9.602 -0.9877 -0.1159 -1.5594
  147SAPE  C31016270   2.740   5.466   9.559 -0.1628 -0.0885 -0.0469
  147SAPE  H10X16271   2.734   5.576   9.544 -1.0037 -0.1979 -0.5795
  147SAPE  H10Y16272   2.640   5.431   9.590 -0.3847 -0.2859 -0.9399
  147SAPE  C31116273   2.777   5.397   9.422 -0.3414  0.2794 -0.4607
  147SAPE  H11X16274   2.794   5.288   9.434  0.8213  0.4511 -0.4020
  147SAPE  H11Y16275   2.874   5.448   9.401  0.4286 -0.2398  1.5985
  147SAPE  C31216276   2.685   5.411   9.300 -0.1047 -0.3434 -0.1919
  147SAPE  H12X16277   2.651   5.516   9.284 -1.7075 -1.0463 -1.8814
  147SAPE  H12Y16278   2.594   5.351   9.322 -0.1143 -0.5614 -0.7892
  147SAPE  C31316279   2.750   5.383   9.163  0.2127 -0.3080  0.2053
  147SAPE  H13X16280   2.774   5.274   9.170 -0.3281 -0.6129 -2.0449
  147SAPE  H13Y16281   2.845   5.440   9.166  1.1760 -1.8199 -0.4388
  147SAPE  C31416282   2.667   5.405   9.036 -0.2796  0.6095 -0.3276
  147SAPE  H14X16283   2.628   5.509   9.033 -0.7131  0.6146  2.7099
  147SAPE  H14Y16284   2.584   5.332   9.034 -0.3975  0.7417 -0.2731
  147SAPE  C31516285   2.745   5.374   8.914 -0.2569  0.3191 -0.0018
  147SAPE  H15X16286   2.682   5.333   8.832  1.7062 -0.9784 -0.9520
  147SAPE  H15Y16287   2.816   5.292   8.939 -0.8734  0.0654  0.9784
  147SAPE  C31616288   2.818   5.498   8.855  0.3942 -0.1922 -1.3760
  147SAPE  H16X16289   2.886   5.540   8.932 -0.0902  0.6300 -1.3900
  147SAPE  H16Y16290   2.734   5.568   8.835 -0.7206 -1.3548 -0.9024
  147SAPE  C31716291   2.896   5.474   8.725 -0.1509 -0.2426 -0.0800
  147SAPE  H17X16292   2.825   5.486   8.640  0.6985  0.7969 -0.6736
  147SAPE  H17Y16293   2.922   5.366   8.720 -1.7946 -0.8424  2.4607
  147SAPE  C31816294   3.026   5.557   8.703  1.2872 -0.4910 -0.5331
  147SAPE  H18X16295   3.074   5.543   8.604 -0.3314 -0.0561 -1.4131
  147SAPE  H18Y16296   3.093   5.567   8.791  1.6684  4.6375 -1.0830
  147SAPE  H18Z16297   2.990   5.663   8.700  2.0760 -0.2117 -0.4076
  148SAPE     N16298   3.927   0.239  10.535 -0.0264 -0.1904 -0.2190
  148SAPE   HN116299   4.029   0.253  10.550 -0.2661  2.4717 -0.4746
  148SAPE   HN216300   3.880   0.329  10.512 -2.1327 -1.4206 -1.0436
  148SAPE   HN316301   3.877   0.210  10.621 -1.2194  3.0939  0.3761
  148SAPE   C1216302   3.931   0.140  10.422 -0.2078 -0.6200 -0.1205
  148SAPE  H12A16303   3.946   0.038  10.464 -1.6196 -0.0663  1.8443
  148SAPE  H12B16304   4.017   0.163  10.355  0.7176 -2.6422  0.3084
  148SAPE   C1116305   3.795   0.144  10.357  0.1413 -0.3650  0.0622
  148SAPE  H11A16306   3.776   0.071  10.276 -0.9205  1.1914 -1.1525
  148SAPE  H11B16307   3.797   0.240  10.301  1.2232 -0.3638  0.0894
  148SAPE     P16308   3.645  -0.011  10.509  0.0476 -0.5783  0.2452
  148SAPE   O1316309   3.743  -0.048  10.613  0.2685  0.6922  0.4401
  148SAPE   O1416310   3.500   0.001  10.544 -0.4117 -0.0113  0.6127
  148SAPE   O1216311   3.688   0.133  10.453 -0.6220 -0.2761  0.0800
  148SAPE   O1116312   3.665  -0.104  10.387 -0.6317  0.1929 -0.2968
  148SAPE    C116313   3.568  -0.215  10.373 -0.1616 -0.6325  0.1908
  148SAPE    HA16314   3.463  -0.183  10.395 -0.1996 -2.5342  3.4525
  148SAPE    HB16315   3.576  -0.258  10.271  3.6639 -0.5065  0.3152
  148SAPE    C216316   3.604  -0.339  10.460 -0.7290 -0.9114 -0.7824
  148SAPE    HS16317   3.570  -0.314  10.562 -0.2806 -0.4267 -0.7499
  148SAPE   O2116318   3.744  -0.366  10.445 -0.3333 -0.3699 -0.0621
  148SAPE   C2116319   3.793  -0.440  10.542  0.3765  0.1123  0.1941
  148SAPE   O2216320   3.729  -0.496  10.627 -0.0920 -0.4582  0.4222
  148SAPE   C2216321   3.947  -0.440  10.545  0.1784  0.8456 -0.1035
  148SAPE   H2R16322   3.978  -0.337  10.571  0.1418  1.2320 -1.5113
  148SAPE   H2S16323   3.966  -0.511  10.629  3.0837  1.3697 -0.2154
  148SAPE    C316324   3.510  -0.455  10.409 -0.0315  0.6861 -0.2184
  148SAPE    HX16325   3.411  -0.412  10.433  0.1373  0.4245  1.0089
  148SAPE    HY16326   3.521  -0.551  10.464 -1.7808  1.5758  1.8261
  148SAPE   O3116327   3.525  -0.473  10.261 -0.4602  0.4578 -0.3605
  148SAPE   C3116328   3.631  -0.562  10.228  0.5190 -0.0662  0.5718
  148SAPE   O3216329   3.689  -0.629  10.307 -0.4581 -0.5663 -0.4490
  148SAPE   C3216330   3.653  -0.562  10.074  0.8032  0.2540 -0.5681
  148SAPE   H2X16331   3.582  -0.631  10.025  0.9408 -0.8525  0.7403
  148SAPE   H2Y16332   3.756  -0.596  10.053  0.6588 -0.6552  0.1481
  148SAPE   C2316333   4.008  -0.500  10.408 -0.3352  0.1380 -0.7389
  148SAPE   H3R16334   3.951  -0.592  10.385  1.9146 -2.9192  4.2017
  148SAPE   H3S16335   4.112  -0.536  10.427  0.8394  2.3893 -2.3889
  148SAPE   C2416336   4.024  -0.386  10.300 -0.6194 -0.5485  0.5087
  148SAPE   H4R16337   3.918  -0.358  10.280 -1.2394 -3.0013 -0.0148
  148SAPE   H4S16338   4.065  -0.436  10.210  0.3595  3.1220 -1.2710
  148SAPE   C2516339   4.119  -0.270  10.332 -0.4293 -0.2461  0.3649
  148SAPE   H5R16340   4.177  -0.276  10.425 -2.3471 -0.1620  1.6273
  148SAPE   C2616341   4.131  -0.161  10.251  0.6642 -0.6332 -0.1691
  148SAPE   H6R16342   4.186  -0.073  10.287  1.4811 -0.7398 -1.1060
  148SAPE   C2716343   4.069  -0.133  10.117 -0.5303  0.2289  0.4016
  148SAPE   H7R16344   4.083  -0.226  10.057  0.5010 -0.4094  1.5731
  148SAPE   H7S16345   4.121  -0.045  10.074 -1.9556  1.0281  0.2602
  148SAPE   C2816346   3.917  -0.112  10.116  0.0315 -0.4408 -0.1924
  148SAPE   H8R16347   3.867  -0.144  10.209  1.3614  0.1266  0.7548
  148SAPE   C2916348   3.844  -0.058  10.026  0.1115  0.3673 -0.1625
  148SAPE   H9R16349   3.736  -0.045  10.044  0.7077  3.3775  1.9075
  148SAPE  C21016350   3.901   0.001   9.898  0.2574 -0.1309  0.0792
  148SAPE  H10R16351   3.902  -0.080   9.822 -1.4453 -0.7791  0.7013
  148SAPE  H10S16352   3.995   0.058   9.915  0.2594  0.0986 -0.6615
  148SAPE  C21116353   3.798   0.108   9.847 -0.6664 -0.2242 -0.5391
  148SAPE  H11R16354   3.724   0.138   9.923 -1.9649 -1.9204 -1.0673
  148SAPE  C21216355   3.762   0.129   9.724 -0.5291 -0.1256  0.0068
  148SAPE  H12R16356   3.676   0.197   9.714 -0.5991  0.1077  1.7742
  148SAPE  C21316357   3.822   0.071   9.597  0.0779  0.0764 -0.0586
  148SAPE  H13R16358   3.750   0.113   9.523  0.2766  0.8010  0.1539
  148SAPE  H13S16359   3.806  -0.039   9.605 -3.1360  0.5000  0.9690
  148SAPE  C21416360   3.963   0.104   9.570 -0.8001  0.5874 -0.4265
  148SAPE  H14R16361   4.025   0.115   9.661 -0.8866 -0.9221 -0.1551
  148SAPE  C21516362   4.016   0.118   9.451 -0.6728  0.4664 -0.9021
  148SAPE  H15R16363   4.121   0.143   9.434 -1.0217  2.6431 -0.2806
  148SAPE  C21616364   3.953   0.122   9.319 -0.6366 -0.2717  1.0256
  148SAPE  H16R16365   3.985   0.213   9.264  1.3488 -0.7450  1.3447
  148SAPE  H16S16366   3.843   0.129   9.337 -0.9707  0.4184 -1.0047
  148SAPE  C21716367   3.956  -0.010   9.235 -0.1459  0.6573 -0.0497
  148SAPE  H17R16368   3.949  -0.106   9.289  0.9385 -0.1617 -1.2897
  148SAPE  H17S16369   4.054  -0.003   9.184  0.4003 -1.0810  0.6959
  148SAPE  C21816370   3.843  -0.022   9.131  0.1201 -0.1362  0.2363
  148SAPE  H18R16371   3.859   0.049   9.048  0.6347  0.9659  1.2406
  148SAPE  H18S16372   3.748   0.005   9.182  1.0162  2.3103  0.7425
  148SAPE  C21916373   3.841  -0.161   9.069  0.6898  0.4111  0.0889
  148SAPE  H19R16374   3.740  -0.178   9.026  0.3381  1.6528  0.3781
  148SAPE  H19S16375   3.859  -0.238   9.147 -0.5916 -0.2157 -0.2031
  148SAPE  C22016376   3.958  -0.174   8.971  0.1575 -0.1917 -0.2101
  148SAPE  H20R16377   4.061  -0.173   9.012  1.2462 -0.3324 -2.7508
  148SAPE  H20S16378   3.956  -0.093   8.895  1.5493 -1.1036 -1.2780
  148SAPE  H20T16379   3.950  -0.265   8.908  1.3483  1.2281 -2.5446
  148SAPE   C3316380   3.638  -0.417  10.016 -0.0903  1.0680 -0.4434
  148SAPE   H3X16381   3.709  -0.351  10.070  2.6792 -1.7857 -0.3107
  148SAPE   H3Y16382   3.540  -0.370  10.039 -0.2081  1.2841 -1.3409
  148SAPE   C3416383   3.662  -0.407   9.866 -0.5010  0.7792  1.1498
  148SAPE   H4X16384   3.609  -0.317   9.826 -0.8847 -0.0639 -0.3484
  148SAPE   H4Y16385   3.610  -0.490   9.812 -1.6838  1.1853  1.6257
  148SAPE   C3516386   3.808  -0.414   9.812  0.1742  0.0351 -0.4338
  148SAPE   H5X16387   3.834  -0.521   9.801  0.6208  0.0297  0.6443
  148SAPE   H5Y16388   3.877  -0.377   9.890 -0.8603  0.5502  0.2494
  148SAPE   C3616389   3.829  -0.322   9.685  0.8476  1.1428 -0.1821
  148SAPE   H6X16390   3.785  -0.224   9.714 -1.4597  0.3763 -0.8415
  148SAPE   H6Y16391   3.752  -0.359   9.614  0.0594  0.6010  0.9327
  148SAPE   C3716392   3.967  -0.331   9.622 -0.1898  0.4521  0.9168
  148SAPE   H7X16393   4.026  -0.317   9.716 -0.7473 -0.3478  1.3942
  148SAPE   H7Y16394   3.977  -0.252   9.545  1.5830 -1.8626 -1.4428
  148SAPE   C3816395   4.013  -0.480   9.582 -0.4632 -0.2826 -0.2104
  148SAPE   H8X16396   3.951  -0.508   9.494 -1.7734 -0.5508  0.7695
  148SAPE   H8Y16397   3.995  -0.536   9.677  1.4199  1.1103  1.0232
  148SAPE   C3916398   4.166  -0.479   9.535  0.8008 -0.2363  0.2386
  148SAPE   H9X16399   4.210  -0.581   9.526 -0.4274 -0.9420  1.6953
  148SAPE   H9Y16400   4.209  -0.435   9.627 -2.9037 -0.1160  2.1002
  148SAPE  C31016401   4.195  -0.395   9.412  0.2562 -0.3217 -0.0799
  148SAPE  H10X16402   4.284  -0.330   9.424 -0.7525  0.8048  1.6649
  148SAPE  H10Y16403   4.120  -0.317   9.386  0.8594  0.6108  0.9238
  148SAPE  C31116404   4.199  -0.491   9.287 -0.3518 -0.6483 -0.0668
  148SAPE  H11X16405   4.093  -0.522   9.269 -0.6338  1.3100 -2.2961
  148SAPE  H11Y16406   4.261  -0.583   9.291  0.8049  0.1355  0.3636
  148SAPE  C31216407   4.240  -0.411   9.165  0.0956  0.1275  0.7442
  148SAPE  H12X16408   4.324  -0.341   9.184 -2.2019  3.0314  0.7345
  148SAPE  H12Y16409   4.155  -0.361   9.115  0.6075  0.6747  0.4032
  148SAPE  C31316410   4.298  -0.515   9.060  0.7598  0.2685  0.2620
  148SAPE  H13X16411   4.291  -0.482   8.954 -0.5226 -1.4550 -0.2477
  148SAPE  H13Y16412   4.246  -0.613   9.060  0.7568  0.1995 -2.3576
  148SAPE  C31416413   4.444  -0.553   9.075  0.2292 -0.6111 -0.3508
  148SAPE  H14X16414   4.469  -0.601   9.172 -0.5379 -1.5503 -0.5893
  148SAPE  H14Y16415   4.512  -0.466   9.081 -0.8624  0.1533  1.3882
  148SAPE  C31516416   4.487  -0.641   8.958 -0.0680 -0.2581 -0.6169
  148SAPE  H15X16417   4.597  -0.654   8.970 -0.5549 -1.8451  3.3936
  148SAPE  H15Y16418   4.476  -0.578   8.867  0.9392  1.6203  0.5008
  148SAPE  C31616419   4.406  -0.773   8.932  0.0858  0.2825  0.1963
  148SAPE  H16X16420   4.317  -0.741   8.875  0.2114 -0.7483 -0.6135
  148SAPE  H16Y16421   4.382  -0.835   9.021 -2.5079  0.8920  0.0039
  148SAPE  C31716422   4.495  -0.871   8.844  0.3074  0.6002  0.0570
  148SAPE  H17X16423   4.436  -0.964   8.829 -1.3939  0.6661  4.8504
  148SAPE  H17Y16424   4.580  -0.906   8.905 -0.0006  0.8886  0.6548
  148SAPE  C31816425   4.538  -0.816   8.704 -0.4652 -1.0219 -0.3447
  148SAPE  H18X16426   4.564  -0.907   8.645 -0.0766 -1.5516  0.6271
  148SAPE  H18Y16427   4.627  -0.757   8.737 -1.1970 -0.2721  0.3253
  148SAPE  H18Z16428   4.467  -0.751   8.649 -0.0576  0.0394  0.3651
  149SAPE     N16429   4.374   3.046  11.233 -0.1208  0.0103 -0.4084
  149SAPE   HN116430   4.306   3.013  11.162  0.7495 -0.1144 -1.2143
  149SAPE   HN216431   4.326   3.077  11.320  0.5056 -0.0290 -0.0406
  149SAPE   HN316432   4.423   3.121  11.180 -0.6316  0.0394 -0.8477
  149SAPE   C1216433   4.469   2.925  11.258  0.4200 -0.8373 -0.3826
  149SAPE  H12A16434   4.404   2.841  11.291  0.9109 -0.9693  0.2673
  149SAPE  H12B16435   4.534   2.953  11.343 -2.5995  0.0117  1.8314
  149SAPE   C1116436   4.535   2.881  11.120 -0.5369 -0.8415 -0.1136
  149SAPE  H11A16437   4.585   2.784  11.140  0.4013 -0.2036  0.7686
  149SAPE  H11B16438   4.621   2.950  11.102 -1.1278  0.8966  2.9450
  149SAPE     P16439   4.379   2.745  10.965  0.1696  0.1772 -0.2336
  149SAPE   O1316440   4.354   2.652  11.082  0.0516  0.1098 -0.0870
  149SAPE   O1416441   4.269   2.764  10.864  0.0412 -0.5957  0.2177
  149SAPE   O1216442   4.433   2.879  11.020 -0.1914 -0.4426  0.5713
  149SAPE   O1116443   4.509   2.690  10.886  0.2488 -0.0041  0.4570
  149SAPE    C116444   4.612   2.765  10.821  0.3847 -0.5235  0.2061
  149SAPE    HA16445   4.598   2.874  10.838  0.9480 -0.1093 -1.7076
  149SAPE    HB16446   4.713   2.744  10.863  0.7979  0.4356 -0.2607
  149SAPE    C216447   4.615   2.750  10.666 -0.5696  0.9056 -0.1456
  149SAPE    HS16448   4.686   2.826  10.628  0.8484 -0.4512 -0.3063
  149SAPE   O2116449   4.490   2.774  10.608  0.4167 -0.0023  0.1526
  149SAPE   C2116450   4.442   2.903  10.607 -0.1637  0.1491  0.3483
  149SAPE   O2216451   4.512   2.996  10.649  0.5402 -0.5606  0.2959
  149SAPE   C2216452   4.325   2.920  10.511 -0.0797  0.0946  0.1228
  149SAPE   H2R16453   4.351   2.906  10.404  0.8227 -1.3120  0.4988
  149SAPE   H2S16454   4.259   2.844  10.558  2.1072 -1.4950  0.7769
  149SAPE    C316455   4.671   2.615  10.609  0.3789 -0.0825  0.4658
  149SAPE    HX16456   4.608   2.534  10.653 -0.0897 -0.9697 -1.6945
  149SAPE    HY16457   4.771   2.610  10.658  0.6253  0.5917  0.0378
  149SAPE   O3116458   4.691   2.617  10.468 -0.0783 -0.1612  0.1800
  149SAPE   C3116459   4.602   2.555  10.393 -0.0893  0.0690  0.6100
  149SAPE   O3216460   4.512   2.491  10.435  0.4294 -0.2349  0.2432
  149SAPE   C3216461   4.637   2.587  10.247  0.2879 -0.3033  0.8711
  149SAPE   H2X16462   4.589   2.507  10.187 -1.1711  0.7882  0.5452
  149SAPE   H2Y16463   4.747   2.600  10.247  0.1428  1.0206 -0.0064
  149SAPE   C2316464   4.259   3.058  10.530 -0.6056  0.2407 -0.0646
  149SAPE   H3R16465   4.345   3.129  10.525  1.3780 -2.1244 -2.9971
  149SAPE   H3S16466   4.211   3.062  10.630 -0.3900  1.2075  0.0186
  149SAPE   C2416467   4.149   3.098  10.423 -0.5341  0.0093  0.4324
  149SAPE   H4R16468   4.205   3.121  10.330 -1.0701  1.7105  0.4879
  149SAPE   H4S16469   4.112   3.202  10.435 -0.5351  0.3349 -1.8719
  149SAPE   C2516470   4.039   2.992  10.405 -0.1384  0.0668  0.1695
  149SAPE   H5R16471   3.993   2.955  10.497  2.6326 -2.9739  0.4897
  149SAPE   C2616472   3.992   2.949  10.289 -0.0704 -0.3433  0.2917
  149SAPE   H6R16473   3.914   2.872  10.280  0.6195 -1.1443  1.0724
  149SAPE   C2716474   4.027   2.992  10.141  0.0415 -0.0665  0.1452
  149SAPE   H7R16475   4.034   2.905  10.073 -0.4698 -0.0186  0.0282
  149SAPE   H7S16476   4.125   3.044  10.139 -0.1403  0.2815  0.1245
  149SAPE   C2816477   3.918   3.083  10.089  0.1913 -0.4436 -0.1487
  149SAPE   H8R16478   3.890   3.160  10.162  2.0733  0.6798 -0.5416
  149SAPE   C2916479   3.869   3.084   9.961 -0.9377  0.0262 -0.1743
  149SAPE   H9R16480   3.811   3.171   9.928  0.0927  0.4561 -0.8917
  149SAPE  C21016481   3.908   2.997   9.843  0.2818 -0.1042 -0.4569
  149SAPE  H10R16482   3.814   2.984   9.786  0.5010 -1.3473 -0.5654
  149SAPE  H10S16483   3.954   2.902   9.877  1.7924  1.2823  1.6818
  149SAPE  C21116484   4.015   3.068   9.761  0.0639  0.3824  0.8169
  149SAPE  H11R16485   4.110   3.083   9.814  0.0574  0.5113  0.7909
  149SAPE  C21216486   3.996   3.135   9.644  0.2180  0.4896 -0.1500
  149SAPE  H12R16487   4.085   3.166   9.587  0.0030 -0.0802 -0.8211
  149SAPE  C21316488   3.868   3.148   9.562 -0.3892 -0.2801 -0.6713
  149SAPE  H13R16489   3.778   3.131   9.623 -1.3598  0.9696 -1.6891
  149SAPE  H13S16490   3.877   3.056   9.500 -2.2610 -2.2122  1.7491
  149SAPE  C21416491   3.857   3.267   9.471 -0.2513  0.1941  0.2531
  149SAPE  H14R16492   3.942   3.335   9.455  0.0330 -0.0958  0.5262
  149SAPE  C21516493   3.752   3.291   9.385  0.4738 -0.2129 -0.6758
  149SAPE  H15R16494   3.759   3.382   9.325 -1.0570  0.5451  0.2491
  149SAPE  C21616495   3.625   3.204   9.374 -0.6044  0.6487 -0.2981
  149SAPE  H16R16496   3.545   3.282   9.374  1.3196  2.7439  1.2711
  149SAPE  H16S16497   3.600   3.136   9.458 -0.3325 -0.3439 -1.0014
  149SAPE  C21716498   3.625   3.114   9.247 -0.0098  0.4804 -0.5604
  149SAPE  H17R16499   3.702   3.034   9.248  1.0628  1.4511 -1.4860
  149SAPE  H17S16500   3.662   3.174   9.160  2.8427 -0.2774  0.0200
  149SAPE  C21816501   3.481   3.068   9.216  0.3713  0.3945  0.7500
  149SAPE  H18R16502   3.416   3.157   9.204 -0.9919 -0.8094 -1.6589
  149SAPE  H18S16503   3.446   2.992   9.289 -1.1426 -0.0852 -0.4134
  149SAPE  C21916504   3.473   3.016   9.069 -0.0004 -0.1391  0.1716
  149SAPE  H19R16505   3.553   2.945   9.038  2.2490  2.8555 -1.3336
  149SAPE  H19S16506   3.480   3.100   8.997 -1.6345 -1.0267 -1.0732
  149SAPE  C22016507   3.338   2.944   9.060  0.7517  0.0055 -0.1663
  149SAPE  H20R16508   3.331   2.863   9.135 -1.2638  1.0729  0.8771
  149SAPE  H20S16509   3.332   2.891   8.963 -2.8542 -1.8212  0.8701
  149SAPE  H20T16510   3.256   3.018   9.075 -1.2440 -2.0454 -0.3594
  149SAPE   C3316511   4.572   2.723  10.204  0.4960  0.9080 -0.4861
  149SAPE   H3X16512   4.606   2.742  10.100  1.7183  0.1301 -0.2442
  149SAPE   H3Y16513   4.595   2.809  10.271 -1.1097  2.2281 -1.5229
  149SAPE   C3416514   4.422   2.702  10.192 -0.3535  0.8361  0.6941
  149SAPE   H4X16515   4.357   2.701  10.283 -2.3814 -1.9848 -0.6395
  149SAPE   H4Y16516   4.406   2.606  10.139  2.5949  2.2561 -3.2098
  149SAPE   C3516517   4.366   2.821  10.096  0.2816  0.0556  0.5882
  149SAPE   H5X16518   4.414   2.920  10.099 -0.9509  0.6570  1.1263
  149SAPE   H5Y16519   4.259   2.846  10.111  0.0300  0.8529 -1.9986
  149SAPE   C3616520   4.355   2.769   9.948  0.0077 -0.6210 -0.1652
  149SAPE   H6X16521   4.294   2.677   9.936 -0.6933  0.1210 -3.1994
  149SAPE   H6Y16522   4.460   2.764   9.912  0.6146 -0.7467  1.5038
  149SAPE   C3716523   4.302   2.878   9.848 -0.3692 -0.4942  0.5236
  149SAPE   H7X16524   4.363   2.970   9.839 -2.0107  0.4301 -2.4400
  149SAPE   H7Y16525   4.196   2.901   9.873 -0.6843 -1.4877  0.1597
  149SAPE   C3816526   4.296   2.821   9.705  0.2306  0.5310 -0.3766
  149SAPE   H8X16527   4.257   2.905   9.643  0.2700  2.3474  1.9354
  149SAPE   H8Y16528   4.235   2.728   9.706 -1.6247  1.6894  1.4220
  149SAPE   C3916529   4.427   2.779   9.644 -0.4836 -0.3634  0.4128
  149SAPE   H9X16530   4.483   2.725   9.723 -0.8793 -0.5648  0.5599
  149SAPE   H9Y16531   4.481   2.875   9.627  0.2145 -0.4735  1.7914
  149SAPE  C31016532   4.422   2.712   9.508 -0.4924 -0.2741 -0.8690
  149SAPE  H10X16533   4.365   2.619   9.528 -2.6303  0.4888 -2.9825
  149SAPE  H10Y16534   4.517   2.690   9.456  0.1022  1.6999 -0.6936
  149SAPE  C31116535   4.316   2.771   9.411 -0.0870 -0.0612 -0.8301
  149SAPE  H11X16536   4.334   2.881   9.403  1.5659  0.2005  3.4881
  149SAPE  H11Y16537   4.214   2.758   9.454 -0.7564  1.9128 -1.7143
  149SAPE  C31216538   4.327   2.699   9.278  0.3041  0.1403  1.1101
  149SAPE  H12X16539   4.284   2.597   9.288 -1.7057  0.6148 -1.5569
  149SAPE  H12Y16540   4.429   2.682   9.238  0.1687  0.3446  0.6669
  149SAPE  C31316541   4.247   2.775   9.165 -0.2281 -0.8567 -0.3808
  149SAPE  H13X16542   4.207   2.875   9.192 -1.4208 -0.9967 -1.5753
  149SAPE  H13Y16543   4.164   2.712   9.127 -0.8624 -1.0924  1.2827
  149SAPE  C31416544   4.339   2.799   9.040 -0.4360  0.0237 -0.0439
  149SAPE  H14X16545   4.386   2.707   8.999 -1.9976 -0.9421  0.2879
  149SAPE  H14Y16546   4.410   2.883   9.052 -0.1735 -0.1232 -0.5093
  149SAPE  C31516547   4.250   2.835   8.914 -0.5587 -0.1233  0.6043
  149SAPE  H15X16548   4.189   2.926   8.932  2.2082  1.8297  0.8676
  149SAPE  H15Y16549   4.181   2.751   8.893 -1.6064  1.2723 -2.0143
  149SAPE  C31616550   4.337   2.850   8.784  0.0092  0.6249 -0.1818
  149SAPE  H16X16551   4.366   2.747   8.755  0.2178 -0.6737  4.0017
  149SAPE  H16Y16552   4.420   2.921   8.801 -0.1970  1.3747 -2.0227
  149SAPE  C31716553   4.239   2.910   8.676 -0.2294 -0.0956  0.1665
  149SAPE  H17X16554   4.210   3.013   8.706 -0.8899 -0.1936 -0.1315
  149SAPE  H17Y16555   4.149   2.847   8.669  0.9691 -1.6736 -2.1978
  149SAPE  C31816556   4.303   2.911   8.539  0.7526 -0.0068  0.5150
  149SAPE  H18X16557   4.405   2.953   8.549  0.9195 -0.4188  0.5942
  149SAPE  H18Y16558   4.246   2.971   8.465 -0.9639  0.9784  2.5028
  149SAPE  H18Z16559   4.313   2.810   8.494  1.6710  0.7604 -1.0795
  150SAPE     N16560   0.919   3.118  10.880 -0.5223  0.1854  0.3881
  150SAPE   HN116561   1.008   3.161  10.848  0.0606 -0.6896  0.7907
  150SAPE   HN216562   0.861   3.190  10.927 -0.8374  0.4355 -0.3761
  150SAPE   HN316563   0.943   3.050  10.956  0.3845 -1.7380 -1.4968
  150SAPE   C1216564   0.843   3.060  10.765 -0.1325  1.2911  0.3230
  150SAPE  H12A16565   0.779   3.139  10.720  0.9557  0.3165 -3.2404
  150SAPE  H12B16566   0.779   2.980  10.808  1.0329 -1.1217 -2.1460
  150SAPE   C1116567   0.944   3.015  10.652 -0.5711  0.1918 -0.1139
  150SAPE  H11A16568   1.017   3.094  10.627  0.2571 -0.3809  0.4377
  150SAPE  H11B16569   0.879   2.995  10.564 -0.6077  2.0998 -0.5633
  150SAPE     P16570   0.942   2.752  10.700 -0.3404 -0.3489  0.0824
  150SAPE   O1316571   1.006   2.675  10.809  0.2740 -0.1113 -0.0831
  150SAPE   O1416572   0.793   2.758  10.694  0.2900 -0.4774 -0.0057
  150SAPE   O1216573   1.018   2.899  10.694 -0.4134  0.5234 -0.1067
  150SAPE   O1116574   0.991   2.686  10.565  1.1009 -0.4273 -0.4361
  150SAPE    C116575   1.100   2.724  10.489  0.0995 -0.0187  0.5744
  150SAPE    HA16576   1.115   2.833  10.481  0.5327 -0.1766 -1.0357
  150SAPE    HB16577   1.198   2.691  10.530 -0.2738 -0.3174  1.2367
  150SAPE    C216578   1.084   2.690  10.338  0.2587  0.0940 -0.4858
  150SAPE    HS16579   1.136   2.776  10.291 -0.5663  2.2247  2.3094
  150SAPE   O2116580   0.941   2.684  10.318  0.2764  0.0753 -0.0547
  150SAPE   C2116581   0.881   2.796  10.317 -0.7313 -0.8486 -0.0938
  150SAPE   O2216582   0.937   2.906  10.323 -0.6091 -0.0406  0.8851
  150SAPE   C2216583   0.727   2.778  10.316  0.9475 -0.1141  0.6886
  150SAPE   H2R16584   0.695   2.687  10.372  0.0251  0.0774  0.4740
  150SAPE   H2S16585   0.678   2.864  10.367 -0.3075 -1.1530  1.3026
  150SAPE    C316586   1.156   2.551  10.292 -0.3060  0.1255  0.2719
  150SAPE    HX16587   1.121   2.534  10.188  0.3624  0.9806 -0.1077
  150SAPE    HY16588   1.115   2.465  10.349  2.1573 -0.9465  0.5658
  150SAPE   O3116589   1.301   2.556  10.305 -0.1027  1.3758  0.3752
  150SAPE   C3116590   1.353   2.436  10.277  0.5436 -0.3959  0.1583
  150SAPE   O3216591   1.292   2.341  10.240  0.2369 -0.2731 -0.2439
  150SAPE   C3216592   1.505   2.439  10.281  0.3200 -0.0068  0.8924
  150SAPE   H2X16593   1.537   2.381  10.371  0.9662 -1.6993 -0.3720
  150SAPE   H2Y16594   1.539   2.544  10.291  0.0807  0.4911 -2.3944
  150SAPE   C2316595   0.661   2.762  10.173 -0.1867  0.4913 -0.0308
  150SAPE   H3R16596   0.686   2.842  10.101  4.2508 -2.1351 -1.8328
  150SAPE   H3S16597   0.554   2.750  10.202 -0.5135  1.8306 -0.6337
  150SAPE   C2416598   0.707   2.644  10.095 -0.5805  0.0585 -0.1763
  150SAPE   H4R16599   0.693   2.555  10.161  0.3814  2.9807  4.4338
  150SAPE   H4S16600   0.816   2.655  10.077  0.2084 -1.9504  2.6283
  150SAPE   C2516601   0.629   2.611   9.970  0.6528 -0.5575  0.0962
  150SAPE   H5R16602   0.548   2.538   9.978  1.2093 -1.0326  1.9143
  150SAPE   C2616603   0.648   2.654   9.844  0.7532 -0.8164  0.1153
  150SAPE   H6R16604   0.559   2.641   9.780 -0.5236 -2.7004  2.1379
  150SAPE   C2716605   0.756   2.753   9.799 -0.6562 -0.8600  0.5930
  150SAPE   H7R16606   0.844   2.704   9.752 -0.7595  0.4745 -1.1084
  150SAPE   H7S16607   0.789   2.818   9.883  0.0554  0.7378 -0.8518
  150SAPE   C2816608   0.696   2.854   9.694  0.4980  0.8533 -0.7038
  150SAPE   H8R16609   0.616   2.915   9.737 -0.0242  0.8136 -1.5894
  150SAPE   C2916610   0.729   2.883   9.570 -0.1590  0.9177  0.2081
  150SAPE   H9R16611   0.657   2.933   9.503 -0.2881  0.5779  0.0889
  150SAPE  C21016612   0.848   2.826   9.496  0.6173  0.1885  0.3633
  150SAPE  H10R16613   0.808   2.749   9.427  1.2721 -0.2636  0.4708
  150SAPE  H10S16614   0.907   2.766   9.570 -0.6700 -2.0048 -0.2994
  150SAPE  C21116615   0.920   2.933   9.413  0.5723  0.5789  0.4938
  150SAPE  H11R16616   1.017   2.969   9.450 -0.2360  1.6081  1.6982
  150SAPE  C21216617   0.877   2.989   9.300 -0.5708 -0.1342  0.3585
  150SAPE  H12R16618   0.932   3.071   9.252 -0.9782  0.3237  0.6710
  150SAPE  C21316619   0.750   2.960   9.225 -0.2984 -0.7116 -0.1958
  150SAPE  H13R16620   0.676   3.039   9.250  0.6722  0.1900 -0.1034
  150SAPE  H13S16621   0.701   2.864   9.253 -4.6020  1.0676 -0.7561
  150SAPE  C21416622   0.772   2.955   9.080  0.2254  0.4092  0.6749
  150SAPE  H14R16623   0.879   2.957   9.053  0.6359 -0.0703  2.1587
  150SAPE  C21516624   0.684   2.928   8.982  0.6462 -0.5023 -0.0856
  150SAPE  H15R16625   0.721   2.916   8.879  1.1503 -0.7231  0.1172
  150SAPE  C21616626   0.533   2.925   8.999  0.1576  0.4810  0.2615
  150SAPE  H16R16627   0.496   2.980   9.088 -0.5466 -1.5934  1.3441
  150SAPE  H16S16628   0.506   2.821   9.029 -0.0403  0.7649  1.0787
  150SAPE  C21716629   0.454   2.978   8.875 -0.0908  0.0258 -0.5377
  150SAPE  H17R16630   0.491   3.079   8.847  0.6694  0.5325  2.0140
  150SAPE  H17S16631   0.349   2.983   8.910 -0.0427 -0.8970 -0.2506
  150SAPE  C21816632   0.467   2.893   8.746  0.0846  0.1792 -0.0279
  150SAPE  H18R16633   0.448   2.785   8.764 -0.3442  0.0837 -0.9467
  150SAPE  H18S16634   0.576   2.902   8.726  0.2423 -0.7240  0.3595
  150SAPE  C21916635   0.389   2.941   8.624  0.4569  0.0508  0.5122
  150SAPE  H19R16636   0.432   3.041   8.603  0.2494 -0.2180 -1.4621
  150SAPE  H19S16637   0.282   2.957   8.650  0.1315 -0.3444 -0.5004
  150SAPE  C22016638   0.406   2.844   8.504  0.0109  0.1253 -0.6630
  150SAPE  H20R16639   0.512   2.829   8.475 -0.0205 -1.3713 -0.0624
  150SAPE  H20S16640   0.359   2.881   8.410 -0.8388 -1.0324 -0.7093
  150SAPE  H20T16641   0.371   2.744   8.536  0.0055 -0.7491 -3.1968
  150SAPE   C3316642   1.566   2.380  10.147  0.2162  0.9319 -0.6534
  150SAPE   H3X16643   1.520   2.279  10.145  0.7931  0.5775  1.4450
  150SAPE   H3Y16644   1.676   2.369  10.152  0.5992  2.2550 -4.0380
  150SAPE   C3416645   1.512   2.447  10.016 -0.0112  0.2891 -0.1267
  150SAPE   H4X16646   1.415   2.501  10.025 -0.6746 -0.4064 -2.3896
  150SAPE   H4Y16647   1.507   2.361   9.946 -0.7410  0.0259  0.2393
  150SAPE   C3516648   1.603   2.549   9.952 -0.1499 -0.0424  0.5116
  150SAPE   H5X16649   1.703   2.501   9.955  0.5069  1.1885 -0.4632
  150SAPE   H5Y16650   1.622   2.644  10.007 -1.9861 -1.0809  3.1194
  150SAPE   C3616651   1.566   2.570   9.804 -0.1488  0.1080  0.3787
  150SAPE   H6X16652   1.479   2.635   9.781 -0.6487 -0.7448 -0.2295
  150SAPE   H6Y16653   1.539   2.469   9.765 -0.6956  1.6500 -3.6417
  150SAPE   C3716654   1.678   2.631   9.721 -0.9562 -0.0726  0.5687
  150SAPE   H7X16655   1.752   2.549   9.708 -0.8113  0.4802 -3.8768
  150SAPE   H7Y16656   1.714   2.716   9.782  0.2429  0.3835 -0.7083
  150SAPE   C3816657   1.655   2.690   9.583  0.6008  0.2849 -0.4989
  150SAPE   H8X16658   1.748   2.743   9.554  1.1979 -0.8759 -0.7327
  150SAPE   H8Y16659   1.568   2.759   9.579 -2.0518 -2.8402 -0.9465
  150SAPE   C3916660   1.631   2.584   9.484 -0.0255 -0.5086  0.1228
  150SAPE   H9X16661   1.545   2.520   9.513  0.7131 -1.0583  1.1783
  150SAPE   H9Y16662   1.717   2.514   9.472 -0.2684 -0.7161 -0.4806
  150SAPE  C31016663   1.606   2.645   9.342 -0.1852  0.1470  0.0596
  150SAPE  H10X16664   1.697   2.704   9.317  0.1277 -0.9656 -1.5973
  150SAPE  H10Y16665   1.531   2.725   9.357 -0.3349 -0.1162  0.7679
  150SAPE  C31116666   1.566   2.554   9.232 -0.2085 -0.1924 -0.2737
  150SAPE  H11X16667   1.475   2.500   9.268 -0.1376 -0.1217  0.0138
  150SAPE  H11Y16668   1.640   2.475   9.208  1.0688  1.7939 -3.4940
  150SAPE  C31216669   1.514   2.627   9.111 -0.3758  0.3413  0.0853
  150SAPE  H12X16670   1.589   2.696   9.068 -0.1022  0.3326  0.5413
  150SAPE  H12Y16671   1.432   2.698   9.133  0.4428  1.7327 -1.2273
  150SAPE  C31316672   1.481   2.525   9.005  0.0857  0.3513 -0.3877
  150SAPE  H13X16673   1.407   2.446   9.031 -2.0579  2.8169  1.4755
  150SAPE  H13Y16674   1.576   2.469   8.985  1.2814  2.4997 -1.0077
  150SAPE  C31416675   1.448   2.590   8.868  0.2287 -0.3468  0.6779
  150SAPE  H14X16676   1.537   2.646   8.833  0.2500 -1.6557 -1.5503
  150SAPE  H14Y16677   1.353   2.648   8.876 -0.1770 -0.6784 -1.1949
  150SAPE  C31516678   1.424   2.489   8.754  0.4351 -0.1974  0.2259
  150SAPE  H15X16679   1.342   2.422   8.787 -0.6761  1.2217  0.4349
  150SAPE  H15Y16680   1.513   2.431   8.721 -0.8801 -1.7704 -0.7289
  150SAPE  C31616681   1.382   2.564   8.627  0.2147 -0.1550 -0.3579
  150SAPE  H16X16682   1.473   2.599   8.574 -0.6468  1.4822 -0.8539
  150SAPE  H16Y16683   1.331   2.653   8.671 -2.8380 -2.2457  0.6183
  150SAPE  C31716684   1.287   2.473   8.553  0.9509 -0.0638  0.6138
  150SAPE  H17X16685   1.206   2.448   8.625 -0.6274 -2.7891 -1.8728
  150SAPE  H17Y16686   1.336   2.377   8.527 -2.2562 -1.4077 -1.1697
  150SAPE  C31816687   1.229   2.547   8.429 -0.4188  0.2462 -0.6817
  150SAPE  H18X16688   1.177   2.481   8.356  0.0541 -0.8012 -0.1119
  150SAPE  H18Y16689   1.305   2.606   8.374  1.3111 -0.7707  0.5195
  150SAPE  H18Z16690   1.155   2.617   8.475 -1.0557 -0.4077 -0.6769
  151SAPE     N16691   4.680   5.903  10.995  0.1082 -0.4348 -0.4571
  151SAPE   HN116692   4.634   5.814  11.022 -0.8113  0.3794  0.7797
  151SAPE   HN216693   4.772   5.912  11.044 -0.4114  1.3469  0.2731
  151SAPE   HN316694   4.626   5.985  11.029  0.4253 -0.9109  1.3019
  151SAPE   C1216695   4.666   5.928  10.844 -0.7473 -0.6369  0.2124
  151SAPE  H12A16696   4.691   5.836  10.787 -1.7372 -1.0620  0.4449
  151SAPE  H12B16697   4.740   6.007  10.820 -1.3907  0.2708  1.0970
  151SAPE   C1116698   4.523   5.970  10.800  0.1747 -0.3116  0.5524
  151SAPE  H11A16699   4.438   5.900  10.817 -1.2210  0.7145 -1.7407
  151SAPE  H11B16700   4.527   5.980  10.690  0.4799 -0.8681  0.5091
  151SAPE     P16701   4.574   6.229  10.854  0.0744 -0.2907  0.2130
  151SAPE   O1316702   4.479   6.339  10.875  0.1676 -0.1522 -0.4054
  151SAPE   O1416703   4.697   6.229  10.933 -0.2976  0.3887 -0.3663
  151SAPE   O1216704   4.487   6.090  10.870  0.3166 -0.5516  0.0591
  151SAPE   O1116705   4.615   6.227  10.701  0.9538 -0.5782  0.3679
  151SAPE    C116706   4.746   6.253  10.654 -0.8225 -0.0051 -0.0786
  151SAPE    HA16707   4.824   6.195  10.707 -2.1437 -1.4586  0.3692
  151SAPE    HB16708   4.751   6.222  10.548  0.6386 -1.7346  0.4445
  151SAPE    C216709   4.786   6.402  10.647  0.4796 -0.8098  0.5099
  151SAPE    HS16710   4.776   6.440  10.751  0.9892 -2.8068  1.3540
  151SAPE   O2116711   4.689   6.463  10.568 -0.4783  0.2603 -0.1286
  151SAPE   C2116712   4.698   6.594  10.558  0.1174 -0.3211 -0.6607
  151SAPE   O2216713   4.766   6.667  10.636  1.1035 -0.0685  0.0598
  151SAPE   C2216714   4.615   6.638  10.434  0.4292  0.1228  0.4886
  151SAPE   H2R16715   4.688   6.671  10.357 -0.2238 -2.8604 -1.6036
  151SAPE   H2S16716   4.580   6.548  10.379  0.0448 -0.4776  1.6669
  151SAPE    C316717   4.926   6.422  10.588  0.0751  0.0136  0.0979
  151SAPE    HX16718   4.993   6.381  10.666 -1.9837 -1.3118  1.2952
  151SAPE    HY16719   4.954   6.529  10.579 -2.1370  0.6698  0.2787
  151SAPE   O3116720   4.934   6.355  10.456  0.0927 -0.1112 -0.6666
  151SAPE   C3116721   5.025   6.259  10.455  0.6439 -0.2307  0.4025
  151SAPE   O3216722   5.082   6.217  10.553 -0.3219 -0.3687 -0.7418
  151SAPE   C3216723   5.047   6.224  10.310 -0.0047  0.9123 -0.9644
  151SAPE   H2X16724   5.082   6.318  10.263  0.5536  0.8459 -0.6881
  151SAPE   H2Y16725   4.958   6.174  10.267  0.5218 -0.6925 -0.2653
  151SAPE   C2316726   4.519   6.756  10.461 -0.1704  0.1510 -0.4843
  151SAPE   H3R16727   4.569   6.835  10.520  2.1953  0.1613 -2.3566
  151SAPE   H3S16728   4.431   6.727  10.522 -0.3590 -0.0359 -0.8406
  151SAPE   C2416729   4.462   6.825  10.343 -0.1513 -0.9562 -0.3441
  151SAPE   H4R16730   4.403   6.914  10.374 -1.8565 -2.3131  0.4595
  151SAPE   H4S16731   4.393   6.757  10.290  0.3124 -0.0689 -2.1807
  151SAPE   C2516732   4.562   6.869  10.239  0.3183  0.6272 -1.1579
  151SAPE   H5R16733   4.651   6.918  10.282 -1.4826  1.6631  1.6882
  151SAPE   C2616734   4.573   6.820  10.118 -0.7510  0.3639  0.5633
  151SAPE   H6R16735   4.652   6.859  10.053  0.3574 -1.8734  0.4780
  151SAPE   C2716736   4.480   6.725  10.048 -0.5298  0.2434  0.1117
  151SAPE   H7R16737   4.435   6.663  10.128  0.4121  0.5946  0.9336
  151SAPE   H7S16738   4.532   6.663   9.972  0.1939  1.4627 -0.4163
  151SAPE   C2816739   4.368   6.803   9.979  0.1641  0.2600  0.1529
  151SAPE   H8R16740   4.346   6.901  10.024  0.0012  1.1173 -1.6974
  151SAPE   C2916741   4.327   6.780   9.852  0.0759  0.1050 -0.3777
  151SAPE   H9R16742   4.239   6.834   9.813 -0.3893 -1.5638 -1.7541
  151SAPE  C21016743   4.373   6.674   9.757  0.4126 -0.2251  0.5721
  151SAPE  H10R16744   4.292   6.646   9.687  0.3064  0.0937  0.5704
  151SAPE  H10S16745   4.404   6.585   9.817  1.6193  1.6922  2.9698
  151SAPE  C21116746   4.486   6.710   9.662  0.0728 -0.1302  0.0208
  151SAPE  H11R16747   4.588   6.701   9.704  0.0853 -0.4435 -0.0759
  151SAPE  C21216748   4.483   6.735   9.536  0.0543 -0.2694  0.2373
  151SAPE  H12R16749   4.579   6.738   9.481 -0.7443 -2.0772 -1.3809
  151SAPE  C21316750   4.368   6.737   9.437 -1.2067  0.5285  0.3091
  151SAPE  H13R16751   4.274   6.704   9.487 -1.3634  1.6889  0.8229
  151SAPE  H13S16752   4.389   6.678   9.346 -3.4846 -2.4808  1.5543
  151SAPE  C21416753   4.354   6.880   9.404  0.5701 -0.1149 -0.0931
  151SAPE  H14R16754   4.368   6.952   9.486  0.0698 -0.7353  0.5484
  151SAPE  C21516755   4.348   6.923   9.276  0.0883 -0.4958  0.2592
  151SAPE  H15R16756   4.351   7.031   9.253 -0.0795 -0.6387 -0.4557
  151SAPE  C21616757   4.353   6.835   9.156  0.0736 -0.0421  0.2639
  151SAPE  H16R16758   4.274   6.757   9.169 -0.9621  0.9862  0.3205
  151SAPE  H16S16759   4.453   6.790   9.140 -0.1809 -0.1546 -1.1649
  151SAPE  C21716760   4.314   6.915   9.032 -0.0972 -0.0047 -0.5272
  151SAPE  H17R16761   4.205   6.936   9.030 -0.3860 -1.3925 -0.2692
  151SAPE  H17S16762   4.326   6.832   8.959  0.4319  0.4623 -0.9832
  151SAPE  C21816763   4.406   7.034   8.999  0.2673  0.4042  0.1004
  151SAPE  H18R16764   4.510   7.006   9.024  0.0081 -0.5155  0.2131
  151SAPE  H18S16765   4.380   7.104   9.081 -1.9878  0.1537 -0.3353
  151SAPE  C21916766   4.385   7.104   8.864  0.0262 -1.5730  0.0750
  151SAPE  H19R16767   4.415   7.209   8.883 -1.5076 -1.2842  1.0591
  151SAPE  H19S16768   4.277   7.117   8.839  0.4197 -0.4428 -1.1973
  151SAPE  C22016769   4.452   7.046   8.736 -0.1349  0.1350 -0.4587
  151SAPE  H20R16770   4.563   7.052   8.738  0.3456 -2.9178 -4.4299
  151SAPE  H20S16771   4.428   7.118   8.654 -0.4290 -0.4207 -0.8680
  151SAPE  H20T16772   4.434   6.938   8.720  2.3948 -0.5369  0.7024
  151SAPE   C3316773   5.175   6.139  10.308  0.6829 -0.1696 -0.7524
  151SAPE   H3X16774   5.168   6.044  10.364  0.1275 -0.2954 -1.0270
  151SAPE   H3Y16775   5.268   6.187  10.346 -0.2524 -0.2143  1.7373
  151SAPE   C3416776   5.209   6.097  10.165  0.2399  0.3326  0.5011
  151SAPE   H4X16777   5.295   6.027  10.164 -0.8660 -1.0650  0.1864
  151SAPE   H4Y16778   5.241   6.183  10.102 -2.0601 -0.4855 -1.9779
  151SAPE   C3516779   5.094   6.018  10.090 -0.5848  0.3526 -1.1297
  151SAPE   H5X16780   5.008   6.081  10.059 -0.7101  0.9458  0.3756
  151SAPE   H5Y16781   5.044   5.958  10.169  0.0193  3.4780  1.8166
  151SAPE   C3616782   5.154   5.944   9.971  0.0430  0.2975  1.0938
  151SAPE   H6X16783   5.075   5.871   9.942  0.4529 -0.1765  1.1633
  151SAPE   H6Y16784   5.254   5.899   9.988  0.5109  0.9651  0.2252
  151SAPE   C3716785   5.167   6.045   9.853  0.9405  0.4616  0.3176
  151SAPE   H7X16786   5.259   6.105   9.873  2.3238 -1.8282  1.2049
  151SAPE   H7Y16787   5.076   6.109   9.850 -1.2517 -2.3758  1.5306
  151SAPE   C3816788   5.195   5.967   9.723  0.4789  1.2061  0.3374
  151SAPE   H8X16789   5.109   5.981   9.653  1.5141 -1.3526 -1.6345
  151SAPE   H8Y16790   5.222   5.866   9.760 -0.3146  1.6507  2.2031
  151SAPE   C3916791   5.315   6.025   9.642  0.8813  0.6656 -0.1558
  151SAPE   H9X16792   5.380   6.053   9.728  0.1007 -0.6983  0.9239
  151SAPE   H9Y16793   5.285   6.116   9.585 -1.3199 -0.3541 -0.7193
  151SAPE  C31016794   5.389   5.925   9.557  0.0174 -0.0979 -0.7363
  151SAPE  H10X16795   5.308   5.894   9.488  0.2847 -0.2304 -0.9887
  151SAPE  H10Y16796   5.430   5.841   9.617  0.2039  0.1434 -0.5198
  151SAPE  C31116797   5.503   5.996   9.480 -0.0349  0.0817 -0.3260
  151SAPE  H11X16798   5.574   6.038   9.554 -1.8275 -1.3872  2.4691
  151SAPE  H11Y16799   5.463   6.079   9.418  0.5179  1.2736  0.8617
  151SAPE  C31216800   5.574   5.906   9.378 -0.2101 -0.4410  0.0682
  151SAPE  H12X16801   5.568   5.804   9.421  1.0846  0.1800  1.8466
  151SAPE  H12Y16802   5.680   5.936   9.369  0.2287 -2.1282 -0.6903
  151SAPE  C31316803   5.509   5.899   9.236 -0.7379 -0.3528  0.4794
  151SAPE  H13X16804   5.399   5.903   9.253 -0.7825 -1.4519  0.5525
  151SAPE  H13Y16805   5.544   5.802   9.195  0.4053 -0.5020  1.7168
  151SAPE  C31416806   5.562   6.016   9.155  0.4985  0.2761  0.0641
  151SAPE  H14X16807   5.669   6.032   9.181  1.7804 -1.7510 -3.3524
  151SAPE  H14Y16808   5.502   6.107   9.179 -0.9455 -0.0687 -1.9534
  151SAPE  C31516809   5.538   5.980   9.002 -0.7413 -0.1136  0.0323
  151SAPE  H15X16810   5.430   5.953   8.994 -0.1989 -1.7441 -3.0850
  151SAPE  H15Y16811   5.584   5.883   8.974 -2.7916 -1.0036 -0.4479
  151SAPE  C31616812   5.564   6.089   8.895  0.5892 -0.4102 -0.1070
  151SAPE  H16X16813   5.664   6.137   8.903 -0.0422  0.8745  0.1982
  151SAPE  H16Y16814   5.481   6.160   8.913 -0.4871 -1.0708 -2.1104
  151SAPE  C31716815   5.546   6.033   8.751 -0.6354 -0.1792 -0.1825
  151SAPE  H17X16816   5.572   5.925   8.750  2.3803  0.4653 -0.5721
  151SAPE  H17Y16817   5.618   6.094   8.692 -0.8172  0.6059  0.4008
  151SAPE  C31816818   5.405   6.033   8.698 -0.1095 -0.1006 -0.0884
  151SAPE  H18X16819   5.370   6.139   8.695 -0.0155 -0.0797 -0.6005
  151SAPE  H18Y16820   5.333   5.965   8.747  0.3778 -0.4378  0.1581
  151SAPE  H18Z16821   5.403   5.991   8.595 -1.1513 -1.9026  0.6282
  152SAPE     N16822   6.634   0.826  11.002  0.6566 -0.8447 -0.6728
  152SAPE   HN116823   6.733   0.855  11.011 -0.0134  1.5863 -0.4492
  152SAPE   HN216824   6.576   0.891  11.059  0.9396 -0.6096 -0.6520
  152SAPE   HN316825   6.630   0.732  11.047  0.6745 -0.5808 -0.1000
  152SAPE   C1216826   6.572   0.821  10.857 -0.5096 -0.0279 -0.7407
  152SAPE  H12A16827   6.652   0.767  10.803  1.4887 -0.0715  2.0610
  152SAPE  H12B16828   6.548   0.926  10.826  0.3736 -0.3255 -2.5791
  152SAPE   C1116829   6.438   0.738  10.852  0.1163  0.0782 -0.5010
  152SAPE  H11A16830   6.402   0.726  10.747  0.3101 -1.9823 -0.3618
  152SAPE  H11B16831   6.359   0.804  10.893  0.5648 -0.0227  0.5533
  152SAPE     P16832   6.476   0.477  10.879  0.1491 -0.2955  0.1763
  152SAPE   O1316833   6.614   0.441  10.891  0.4356  0.4659  0.2462
  152SAPE   O1416834   6.377   0.379  10.936 -0.0216 -0.7318  0.5559
  152SAPE   O1216835   6.443   0.623  10.934  0.3600  0.1416  0.1770
  152SAPE   O1116836   6.452   0.491  10.724  0.1679 -0.2120  0.1095
  152SAPE    C116837   6.340   0.448  10.649  0.3889 -0.0153 -0.0384
  152SAPE    HA16838   6.318   0.339  10.656 -0.6315  0.1930  0.0535
  152SAPE    HB16839   6.256   0.504  10.694  0.2877  0.8892 -1.2883
  152SAPE    C216840   6.359   0.496  10.501 -0.2682 -0.3306  0.0893
  152SAPE    HS16841   6.439   0.573  10.495 -1.7358  1.1501 -1.4875
  152SAPE   O2116842   6.231   0.544  10.446 -0.1174  0.4511 -0.4135
  152SAPE   C2116843   6.199   0.664  10.458  0.5256  0.1740  0.0911
  152SAPE   O2216844   6.253   0.755  10.515  0.2007  0.6064  0.8434
  152SAPE   C2216845   6.069   0.685  10.385  0.2948 -0.7629 -0.3170
  152SAPE   H2R16846   6.070   0.642  10.283  0.3141 -0.3912 -0.4771
  152SAPE   H2S16847   5.998   0.637  10.455  0.0079  1.4136  0.9776
  152SAPE    C316848   6.418   0.380  10.415  0.2341 -0.2398 -0.4831
  152SAPE    HX16849   6.346   0.295  10.423 -2.0573  1.7565  1.7305
  152SAPE    HY16850   6.514   0.344  10.456 -0.9535 -0.8443  1.9594
  152SAPE   O3116851   6.432   0.412  10.278  0.5564 -0.8156 -0.3145
  152SAPE   C3116852   6.336   0.367  10.183  0.0831  0.9442 -0.2559
  152SAPE   O3216853   6.244   0.288  10.215 -0.3168 -0.0628 -0.3561
  152SAPE   C3216854   6.368   0.416  10.043  0.4927 -0.3989  0.5682
  152SAPE   H2X16855   6.398   0.334   9.974  0.2204  1.1293 -1.4449
  152SAPE   H2Y16856   6.451   0.490  10.049  0.9410 -0.5941 -2.0364
  152SAPE   C2316857   6.027   0.841  10.378  0.1172  0.2445  0.9383
  152SAPE   H3R16858   6.044   0.887  10.477  1.9449  2.5807 -0.3615
  152SAPE   H3S16859   5.916   0.842  10.368  0.2530 -2.0740 -3.0010
  152SAPE   C2416860   6.083   0.923  10.261  0.6784  0.6246  0.1350
  152SAPE   H4R16861   6.048   1.028  10.268 -1.3138 -0.1246  3.2673
  152SAPE   H4S16862   6.040   0.881  10.168 -0.6279 -1.0357  1.4246
  152SAPE   C2516863   6.231   0.933  10.248 -1.3850  0.5157  0.3067
  152SAPE   H5R16864   6.283   0.967  10.339 -0.6008 -0.8025  0.3873
  152SAPE   C2616865   6.312   0.907  10.145 -0.2389  0.0405  0.0261
  152SAPE   H6R16866   6.416   0.939  10.156 -0.5821  1.1833  0.0140
  152SAPE   C2716867   6.281   0.854  10.007 -0.1001  0.3650 -0.0952
  152SAPE   H7R16868   6.175   0.822  10.015  0.0045  0.4859  2.7043
  152SAPE   H7S16869   6.325   0.757   9.976 -1.0581 -0.3241  0.6396
  152SAPE   C2816870   6.298   0.968   9.907 -0.3773  0.1535  0.4895
  152SAPE   H8R16871   6.236   1.053   9.939 -1.9760 -1.0173  0.6782
  152SAPE   C2916872   6.372   0.971   9.791 -0.0231  0.1311 -0.2988
  152SAPE   H9R16873   6.370   1.067   9.739  1.6935  0.9210  1.0159
  152SAPE  C21016874   6.455   0.852   9.743 -0.8929 -0.2508  0.0195
  152SAPE  H10R16875   6.489   0.795   9.832 -0.9788 -1.2272 -0.5623
  152SAPE  H10S16876   6.550   0.878   9.692 -0.0371 -1.2978  1.0303
  152SAPE  C21116877   6.373   0.758   9.661  0.0772  0.3638  0.1050
  152SAPE  H11R16878   6.265   0.776   9.674 -0.1528  0.6772 -1.8834
  152SAPE  C21216879   6.423   0.668   9.576 -0.1436  0.0281  0.4347
  152SAPE  H12R16880   6.366   0.602   9.509 -0.6730  1.0206 -0.1092
  152SAPE  C21316881   6.568   0.645   9.544  0.8994  0.4813 -0.1618
  152SAPE  H13R16882   6.635   0.703   9.610  0.5819 -0.2995  0.8640
  152SAPE  H13S16883   6.588   0.685   9.442  1.7679  0.7818  0.1140
  152SAPE  C21416884   6.621   0.502   9.528  0.4913  0.4159 -0.1795
  152SAPE  H14R16885   6.552   0.419   9.505  1.0205 -0.0006 -0.2932
  152SAPE  C21516886   6.748   0.463   9.531 -0.0243  0.5388 -0.4481
  152SAPE  H15R16887   6.782   0.371   9.482  2.7098  0.0895  2.0024
  152SAPE  C21616888   6.866   0.546   9.558  0.0225  0.5381 -0.1859
  152SAPE  H16R16889   6.924   0.496   9.639 -1.9416 -1.2415  0.2069
  152SAPE  H16S16890   6.837   0.644   9.601 -0.7380  0.5521 -0.7193
  152SAPE  C21716891   6.953   0.578   9.438 -0.4387 -0.3673 -0.3968
  152SAPE  H17R16892   6.894   0.614   9.351 -1.3563 -2.4013 -0.6991
  152SAPE  H17S16893   6.974   0.473   9.406 -4.5098 -2.2021  2.2127
  152SAPE  C21816894   7.071   0.672   9.458 -0.4063 -0.0920 -0.7819
  152SAPE  H18R16895   7.152   0.614   9.507 -1.5105  0.8822  2.4290
  152SAPE  H18S16896   7.047   0.760   9.522  0.2850 -0.7186  0.3769
  152SAPE  C21916897   7.126   0.727   9.321  0.6308 -0.4186 -0.5372
  152SAPE  H19R16898   7.043   0.780   9.270  0.5140 -0.2801 -0.2019
  152SAPE  H19S16899   7.144   0.634   9.263 -1.4232 -0.8700 -0.5207
  152SAPE  C22016900   7.248   0.820   9.331  0.7376  0.6292 -0.1085
  152SAPE  H20R16901   7.323   0.766   9.393 -0.9127 -0.1299  1.3545
  152SAPE  H20S16902   7.226   0.921   9.372  2.6336  1.2413 -0.5120
  152SAPE  H20T16903   7.295   0.832   9.231  1.4310 -0.5306  0.0537
  152SAPE   C3316904   6.244   0.495   9.991  0.1401 -0.1296  0.6832
  152SAPE   H3X16905   6.287   0.566   9.917 -0.4692  0.0830  0.5254
  152SAPE   H3Y16906   6.204   0.552  10.078  0.9047 -1.4142  1.9115
  152SAPE   C3416907   6.131   0.418   9.924  0.0799  0.5418 -0.3722
  152SAPE   H4X16908   6.055   0.490   9.886 -0.6858 -0.3561 -0.5850
  152SAPE   H4Y16909   6.082   0.362  10.007 -1.4914  3.1646  0.6012
  152SAPE   C3516910   6.162   0.298   9.824 -0.2602 -0.7015 -0.1089
  152SAPE   H5X16911   6.067   0.240   9.816 -2.5726  2.3290  2.6882
  152SAPE   H5Y16912   6.242   0.232   9.865  1.9988  1.2212 -1.1562
  152SAPE   C3616913   6.196   0.354   9.682 -1.2676  0.0833  0.4409
  152SAPE   H6X16914   6.284   0.421   9.695 -0.7691 -0.2938 -0.8097
  152SAPE   H6Y16915   6.111   0.416   9.643 -0.6665 -0.1056 -1.2838
  152SAPE   C3716916   6.230   0.244   9.573  1.0492 -0.2129 -0.8647
  152SAPE   H7X16917   6.138   0.182   9.565 -0.7344  2.1840 -0.5289
  152SAPE   H7Y16918   6.303   0.168   9.607 -1.0652 -2.1873 -0.5052
  152SAPE   C3816919   6.267   0.315   9.444 -0.1166 -0.1210  0.7962
  152SAPE   H8X16920   6.336   0.399   9.468  1.1306 -0.3345 -1.7356
  152SAPE   H8Y16921   6.185   0.371   9.394  0.8473 -1.1190 -2.1080
  152SAPE   C3916922   6.321   0.227   9.332  0.2149 -0.0942  0.5813
  152SAPE   H9X16923   6.243   0.156   9.297  1.4531 -1.6544  0.9098
  152SAPE   H9Y16924   6.415   0.175   9.360  0.6995  1.9750  3.2140
  152SAPE  C31016925   6.351   0.325   9.217  0.3734  0.4346  0.7943
  152SAPE  H10X16926   6.371   0.432   9.242 -2.5796  1.0134  1.0628
  152SAPE  H10Y16927   6.273   0.329   9.138  1.9354  0.5991 -0.8149
  152SAPE  C31116928   6.477   0.273   9.136 -0.2807  0.2080 -0.4985
  152SAPE  H11X16929   6.457   0.164   9.125 -2.2551  0.5092 -0.3333
  152SAPE  H11Y16930   6.568   0.286   9.199 -1.0110 -0.3694  0.7298
  152SAPE  C31216931   6.499   0.339   8.996 -0.6034  0.5043  0.0226
  152SAPE  H12X16932   6.409   0.313   8.936  0.3198 -0.5371 -0.9491
  152SAPE  H12Y16933   6.588   0.306   8.939 -1.1139 -3.4368  1.1852
  152SAPE  C31316934   6.503   0.489   9.005  0.5597 -0.7293 -0.6238
  152SAPE  H13X16935   6.401   0.524   9.030 -0.2422 -0.9466 -3.2335
  152SAPE  H13Y16936   6.530   0.523   8.903 -1.7533  2.7514 -0.2239
  152SAPE  C31416937   6.606   0.544   9.107 -0.3666 -0.3474 -0.0367
  152SAPE  H14X16938   6.683   0.464   9.117  0.2257  0.2656  0.3822
  152SAPE  H14Y16939   6.566   0.561   9.209 -0.2223 -1.1431  0.1614
  152SAPE  C31516940   6.677   0.670   9.046  0.6054 -0.0139  0.1324
  152SAPE  H15X16941   6.700   0.657   8.938 -0.6842 -1.6232  0.0173
  152SAPE  H15Y16942   6.769   0.698   9.102 -0.4130  2.0475  0.8767
  152SAPE  C31616943   6.580   0.797   9.042 -0.5807 -0.1531  0.1520
  152SAPE  H16X16944   6.492   0.769   8.980 -0.4836 -1.2458  0.4843
  152SAPE  H16Y16945   6.636   0.870   8.979  1.4287 -0.9746  0.9118
  152SAPE  C31716946   6.552   0.868   9.180 -0.0560  0.9112 -0.2822
  152SAPE  H17X16947   6.650   0.886   9.229  0.2136  0.5320 -0.6746
  152SAPE  H17Y16948   6.491   0.795   9.239 -0.8071  1.7927  0.0617
  152SAPE  C31816949   6.485   1.002   9.181  0.7222 -0.4649 -0.0609
  152SAPE  H18X16950   6.540   1.077   9.120 -1.2260 -0.2061 -1.6086
  152SAPE  H18Y16951   6.468   1.044   9.282  0.9172  0.7740 -0.5196
  152SAPE  H18Z16952   6.381   0.989   9.142  0.7609 -0.0607 -0.3055
  153SAPE     N16953   6.515   6.282  10.847 -0.1186  0.0241  0.0086
  153SAPE   HN116954   6.532   6.188  10.887  4.7428  0.4947 -0.3896
  153SAPE   HN216955   6.606   6.331  10.849  0.3777 -0.9131  1.1846
  153SAPE   HN316956   6.440   6.335  10.896  0.0696 -1.4763  2.0161
  153SAPE   C1216957   6.467   6.265  10.711  0.1864  0.3101  0.4965
  153SAPE  H12A16958   6.532   6.184  10.671 -1.1750  0.4852 -2.2866
  153SAPE  H12B16959   6.479   6.357  10.651  0.8319 -0.0141  0.1131
  153SAPE   C1116960   6.328   6.214  10.706  0.4901 -0.3886  0.8640
  153SAPE  H11A16961   6.288   6.247  10.608  2.1531 -0.6764  0.0582
  153SAPE  H11B16962   6.264   6.267  10.780 -1.6523  2.0994 -2.5138
  153SAPE     P16963   6.330   6.012  10.864 -0.3454 -0.2956  0.0696
  153SAPE   O1316964   6.474   6.023  10.895  0.1807 -0.2318 -0.3518
  153SAPE   O1416965   6.233   6.079  10.954  1.0108 -0.1031  0.8880
  153SAPE   O1216966   6.312   6.074  10.719  0.2255 -0.5120  0.4565
  153SAPE   O1116967   6.292   5.862  10.849  0.1627  0.3271  0.8496
  153SAPE    C116968   6.346   5.773  10.753  0.0052  0.4227 -0.7270
  153SAPE    HA16969   6.392   5.831  10.669  2.8400 -0.6488 -0.0290
  153SAPE    HB16970   6.420   5.706  10.801 -1.6366  0.2878  1.8046
  153SAPE    C216971   6.231   5.698  10.685 -0.3088  0.0035  0.2114
  153SAPE    HS16972   6.173   5.649  10.766 -2.2976  0.0727 -1.1124
  153SAPE   O2116973   6.272   5.605  10.586  0.2020  0.6162  0.1474
  153SAPE   C2116974   6.206   5.492  10.580  0.0555 -0.2253 -0.1867
  153SAPE   O2216975   6.130   5.441  10.659  0.2740 -0.5998 -0.1766
  153SAPE   C2216976   6.245   5.432  10.445 -0.5078  0.0166 -0.5421
  153SAPE   H2R16977   6.196   5.333  10.431  1.0297 -0.9332  0.5417
  153SAPE   H2S16978   6.197   5.492  10.365 -1.6006 -0.3202 -0.1690
  153SAPE    C316979   6.128   5.791  10.608  0.7479 -0.0331  0.2999
  153SAPE    HX16980   6.073   5.853  10.681 -0.0831 -0.3499 -0.0421
  153SAPE    HY16981   6.046   5.729  10.565 -1.0268  2.0838  0.4367
  153SAPE   O3116982   6.189   5.869  10.508  0.2026 -0.2827 -0.2802
  153SAPE   C3116983   6.134   5.987  10.491 -0.2949  0.4254  0.5019
  153SAPE   O3216984   6.043   6.039  10.551  0.5140 -0.2142  0.3337
  153SAPE   C3216985   6.201   6.050  10.366  0.2866  0.3263 -0.2359
  153SAPE   H2X16986   6.276   5.978  10.327  0.4688  0.3691  0.0317
  153SAPE   H2Y16987   6.255   6.143  10.393 -1.0036  1.2157 -0.6057
  153SAPE   C2316988   6.393   5.416  10.410 -1.0295  0.3487 -0.1997
  153SAPE   H3R16989   6.434   5.328  10.464 -0.8383  0.7992  0.3974
  153SAPE   H3S16990   6.451   5.505  10.442  1.9951 -0.9816 -1.6395
  153SAPE   C2416991   6.423   5.384  10.263  0.0811 -0.3369 -0.7753
  153SAPE   H4R16992   6.534   5.384  10.262  0.0921 -0.6176 -0.1083
  153SAPE   H4S16993   6.388   5.467  10.198 -0.6815 -0.5248 -0.6171
  153SAPE   C2516994   6.346   5.260  10.218 -0.1601  0.4272 -0.7663
  153SAPE   H5R16995   6.346   5.179  10.293  0.0886  1.1406  0.0234
  153SAPE   C2616996   6.269   5.255  10.115  0.8665  0.4962  0.5311
  153SAPE   H6R16997   6.219   5.161  10.087  2.7865 -0.2007 -0.8169
  153SAPE   C2716998   6.233   5.371  10.018  0.0490  0.3940  0.3946
  153SAPE   H7R16999   6.233   5.471  10.067  2.7355  0.5385  0.2734
  153SAPE   H7S17000   6.129   5.349   9.988 -0.5104  0.4822  2.1434
  153SAPE   C2817001   6.327   5.381   9.897 -0.2032  0.5126 -0.1345
  153SAPE   H8R17002   6.434   5.360   9.916 -0.6670 -2.7971 -0.7287
  153SAPE   C2917003   6.286   5.394   9.770 -0.1658 -0.1800  0.4754
  153SAPE   H9R17004   6.363   5.393   9.691  0.0990 -2.5410  0.6839
  153SAPE  C21017005   6.148   5.405   9.713 -0.4160  0.0416 -0.1931
  153SAPE  H10R17006   6.132   5.514   9.701  0.1606  0.2559  0.8701
  153SAPE  H10S17007   6.062   5.392   9.782  0.3776  2.2113  1.3097
  153SAPE  C21117008   6.124   5.322   9.588 -1.0545 -0.2140  0.1553
  153SAPE  H11R17009   6.125   5.213   9.604 -3.1080 -0.3881 -0.6109
  153SAPE  C21217010   6.129   5.343   9.456  0.4982 -0.4065  0.1642
  153SAPE  H12R17011   6.082   5.265   9.394  0.3395 -1.3963  1.4999
  153SAPE  C21317012   6.141   5.468   9.375 -0.5985 -0.1791 -0.3536
  153SAPE  H13R17013   6.143   5.441   9.267  0.1204 -1.3117 -0.0805
  153SAPE  H13S17014   6.238   5.520   9.393 -1.4266  0.6945  1.8400
  153SAPE  C21417015   6.042   5.584   9.386 -0.1179  0.9535 -0.4760
  153SAPE  H14R17016   6.047   5.656   9.468 -1.9548 -0.1076  0.6630
  153SAPE  C21517017   5.934   5.596   9.315 -0.5239 -1.1191  0.7677
  153SAPE  H15R17018   5.871   5.683   9.337 -1.6375 -2.1112  1.6510
  153SAPE  C21617019   5.884   5.512   9.198 -0.3736  0.9682 -0.5701
  153SAPE  H16R17020   5.774   5.501   9.209  0.0072 -2.2266  1.2002
  153SAPE  H16S17021   5.926   5.410   9.191  0.6163  1.2705  0.6226
  153SAPE  C21717022   5.911   5.573   9.061  0.1301 -0.0735 -0.2608
  153SAPE  H17R17023   6.019   5.592   9.048  1.3149 -2.2938  4.4113
  153SAPE  H17S17024   5.869   5.676   9.056 -0.5111 -0.2341  1.0956
  153SAPE  C21817025   5.856   5.479   8.951  0.2470  0.9828 -0.4722
  153SAPE  H18R17026   5.745   5.467   8.959  0.4609 -1.6953 -0.7846
  153SAPE  H18S17027   5.897   5.379   8.973 -0.5661  0.6510 -0.4195
  153SAPE  C21917028   5.877   5.514   8.800  0.1777  0.0243  0.7372
  153SAPE  H19R17029   5.839   5.435   8.733  0.7135 -0.5668  1.1180
  153SAPE  H19S17030   5.983   5.512   8.765 -0.5711  3.7678 -2.4311
  153SAPE  C22017031   5.811   5.646   8.770  0.2204  0.3578 -0.1324
  153SAPE  H20R17032   5.706   5.646   8.806  1.3670  2.0506  3.8091
  153SAPE  H20S17033   5.811   5.669   8.661  1.2204  1.7300  0.1269
  153SAPE  H20T17034   5.861   5.729   8.825 -0.4061  2.9223 -3.1574
  153SAPE   C3317035   6.094   6.081  10.268  0.5067  0.6762  0.0454
  153SAPE   H3X17036   6.016   6.127  10.333 -1.4205 -2.0350 -0.1723
  153SAPE   H3Y17037   6.046   5.993  10.221 -0.2934 -0.0599  2.1152
  153SAPE   C3417038   6.154   6.184  10.173 -0.6082 -0.7108 -0.1293
  153SAPE   H4X17039   6.256   6.212  10.206 -1.6758  2.0430  1.1321
  153SAPE   H4Y17040   6.093   6.275  10.190  1.7552  0.7858  0.7757
  153SAPE   C3517041   6.153   6.143  10.024  0.1772  0.0964 -0.1857
  153SAPE   H5X17042   6.045   6.123  10.003 -0.0412 -0.2100  1.1263
  153SAPE   H5Y17043   6.204   6.046  10.006  0.1633  0.1443 -0.4967
  153SAPE   C3617044   6.198   6.251   9.927 -0.0867  0.1125 -0.4382
  153SAPE   H6X17045   6.288   6.293   9.977  0.1931 -1.8518  0.8125
  153SAPE   H6Y17046   6.127   6.336   9.915  2.2969  2.0496 -1.8133
  153SAPE   C3717047   6.238   6.190   9.793  1.0800  0.3196  0.2084
  153SAPE   H7X17048   6.162   6.219   9.718  0.3046 -1.1935  0.3659
  153SAPE   H7Y17049   6.229   6.080   9.802 -3.1702  0.3977 -0.7319
  153SAPE   C3817050   6.379   6.241   9.757  0.3082 -0.2111 -0.5353
  153SAPE   H8X17051   6.441   6.220   9.846 -1.6172 -0.9700  0.6864
  153SAPE   H8Y17052   6.393   6.350   9.740 -1.4216 -0.0964 -1.5151
  153SAPE   C3917053   6.436   6.175   9.635  0.5054 -0.9353  0.5351
  153SAPE   H9X17054   6.392   6.074   9.620  2.3962 -1.8550  0.9884
  153SAPE   H9Y17055   6.544   6.155   9.652 -0.0636 -3.8315  1.3767
  153SAPE  C31017056   6.399   6.250   9.504 -0.2522  0.0564 -0.2662
  153SAPE  H10X17057   6.431   6.355   9.523 -3.5606  0.8888  1.4717
  153SAPE  H10Y17058   6.289   6.243   9.495 -0.7130 -0.4347  3.7032
  153SAPE  C31117059   6.456   6.187   9.375  0.3170 -0.2713 -0.5456
  153SAPE  H11X17060   6.422   6.083   9.361  1.7250 -0.6373 -1.5649
  153SAPE  H11Y17061   6.567   6.179   9.384  0.5798  1.5171 -1.5778
  153SAPE  C31217062   6.422   6.274   9.252 -0.0574 -0.2810 -0.1231
  153SAPE  H12X17063   6.450   6.379   9.271  2.3610 -0.9007  0.0612
  153SAPE  H12Y17064   6.311   6.263   9.249 -0.2875  1.8939 -0.9753
  153SAPE  C31317065   6.497   6.225   9.121 -0.1436 -0.1420  0.3459
  153SAPE  H13X17066   6.465   6.124   9.087 -0.7295  0.3816 -0.7061
  153SAPE  H13Y17067   6.604   6.239   9.146  0.2572 -0.4186 -1.1351
  153SAPE  C31417068   6.467   6.311   8.998  0.0657  0.1880 -0.5319
  153SAPE  H14X17069   6.507   6.411   9.026  3.5565 -1.3242  0.5090
  153SAPE  H14Y17070   6.357   6.309   8.988  0.0943  1.7473 -1.5220
  153SAPE  C31517071   6.543   6.280   8.873 -0.5313 -0.3463 -0.1674
  153SAPE  H15X17072   6.524   6.177   8.836 -0.2655  0.0928 -1.6033
  153SAPE  H15Y17073   6.652   6.297   8.882 -0.3296 -0.5150 -1.9977
  153SAPE  C31617074   6.499   6.374   8.759  0.2354 -0.4551 -0.4153
  153SAPE  H16X17075   6.523   6.480   8.785  0.2387 -0.6972  0.6179
  153SAPE  H16Y17076   6.388   6.368   8.749 -0.0181 -0.5182  1.8070
  153SAPE  C31717077   6.570   6.327   8.636 -0.1233  0.3527  0.3688
  153SAPE  H17X17078   6.542   6.221   8.615  0.1999  0.3419 -0.0066
  153SAPE  H17Y17079   6.678   6.329   8.662  0.1033 -0.2069 -0.4751
  153SAPE  C31817080   6.539   6.421   8.517 -0.1495  0.9760 -0.3002
  153SAPE  H18X17081   6.502   6.521   8.550  1.0725  1.1454  0.6004
  153SAPE  H18Y17082   6.468   6.378   8.443 -0.4123 -0.6139  0.8304
  153SAPE  H18Z17083   6.632   6.433   8.458 -0.5008 -3.0608 -2.0294
  154SAPE     N17084   0.267   1.071  10.982 -0.1565 -0.7792  0.6138
  154SAPE   HN117085   0.220   0.981  10.958  1.2668 -1.8221  1.6061
  154SAPE   HN217086   0.226   1.151  10.930  0.7477 -1.8919 -1.9160
  154SAPE   HN317087   0.365   1.074  10.950 -0.5116 -0.6006 -0.5120
  154SAPE   C1217088   0.235   1.099  11.125  0.0501 -0.5275  0.2605
  154SAPE  H12A17089   0.313   1.161  11.175  1.3888 -0.4261 -1.8193
  154SAPE  H12B17090   0.219   1.001  11.174 -0.1512 -1.6281 -1.9092
  154SAPE   C1117091   0.109   1.188  11.136  0.4283 -0.6616  0.9532
  154SAPE  H11A17092   0.128   1.284  11.085  0.4841 -1.0922  0.1508
  154SAPE  H11B17093   0.087   1.206  11.244  1.2565 -0.7749  1.1482
  154SAPE     P17094  -0.149   1.164  11.103 -0.0128  0.1011 -0.2986
  154SAPE   O1317095  -0.226   1.039  11.092 -0.7429  0.3572 -0.1687
  154SAPE   O1417096  -0.155   1.246  11.223  0.1120  0.2520 -0.3370
  154SAPE   O1217097  -0.002   1.128  11.072  0.0359  0.7418  0.3197
  154SAPE   O1117098  -0.186   1.265  10.980  0.2062 -0.1513 -0.2085
  154SAPE    C117099  -0.109   1.284  10.858  0.2867  0.3507  0.1948
  154SAPE    HA17100   0.000   1.274  10.878 -0.0613 -1.8220  1.2740
  154SAPE    HB17101  -0.137   1.215  10.775 -0.5619 -0.0465  0.8019
  154SAPE    C217102  -0.109   1.433  10.813  0.6146 -0.0026  0.1186
  154SAPE    HS17103  -0.217   1.457  10.824  0.6002 -0.6394  1.4916
  154SAPE   O2117104  -0.060   1.430  10.679 -0.4266  0.2582  0.6607
  154SAPE   C2117105  -0.149   1.421  10.588  0.4036  0.2128 -1.3729
  154SAPE   O2217106  -0.272   1.407  10.609 -0.0932  0.4483 -0.3309
  154SAPE   C2217107  -0.096   1.459  10.448 -0.3005  0.0224  0.2353
  154SAPE   H2R17108  -0.187   1.454  10.386  0.8729 -3.1888 -1.4514
  154SAPE   H2S17109  -0.050   1.560  10.444  2.9603 -1.3344  0.3146
  154SAPE    C317110  -0.041   1.525  10.911 -0.4711  0.3483 -0.6256
  154SAPE    HX17111   0.047   1.470  10.950 -1.7129 -0.9604  0.4045
  154SAPE    HY17112  -0.107   1.532  11.000  0.7959 -2.6250  0.6530
  154SAPE   O3117113  -0.002   1.650  10.856 -0.2925  0.0316 -0.2120
  154SAPE   C3117114   0.116   1.662  10.808  0.4411  0.0277  1.1995
  154SAPE   O3217115   0.202   1.577  10.807  0.1294 -0.4593  0.1068
  154SAPE   C3217116   0.123   1.798  10.733 -0.1835  0.1876 -0.3783
  154SAPE   H2X17117   0.124   1.865  10.822  2.3759 -1.3325  0.8462
  154SAPE   H2Y17118   0.036   1.806  10.664 -0.0646  3.1375 -0.3064
  154SAPE   C2317119   0.012   1.358  10.393  0.3820 -0.1359 -0.3676
  154SAPE   H3R17120  -0.004   1.254  10.427 -0.1912  0.4959  1.4429
  154SAPE   H3S17121   0.113   1.388  10.429  0.9378  1.8900 -3.2154
  154SAPE   C2417122   0.015   1.368  10.240  0.1316  0.1006  0.7273
  154SAPE   H4R17123   0.109   1.327  10.197 -0.2969 -1.1529  0.9444
  154SAPE   H4S17124   0.013   1.473  10.202  0.5808 -0.5303 -1.1459
  154SAPE   C2517125  -0.107   1.303  10.173 -0.0661 -0.0690  0.4952
  154SAPE   H5R17126  -0.192   1.373  10.175  1.1706  1.5537 -1.1375
  154SAPE   C2617127  -0.118   1.185  10.114  0.3539 -0.1198  0.7136
  154SAPE   H6R17128  -0.214   1.148  10.075  0.2127  0.9352  0.0168
  154SAPE   C2717129  -0.014   1.073  10.098 -0.3799 -0.3526 -0.5680
  154SAPE   H7R17130   0.083   1.121  10.073  1.4209 -2.3991  1.9693
  154SAPE   H7S17131  -0.040   1.008  10.012 -1.6996  0.5150 -0.8566
  154SAPE   C2817132   0.010   1.002  10.224 -0.4921 -0.2166 -0.3337
  154SAPE   H8R17133  -0.018   1.057  10.315 -2.4953  0.1049 -1.1128
  154SAPE   C2917134   0.083   0.890  10.243  0.1166 -0.4465  0.4031
  154SAPE   H9R17135   0.107   0.850  10.342  5.0700  0.7339 -0.0573
  154SAPE  C21017136   0.153   0.800  10.139  0.0681 -0.2074  0.3227
  154SAPE  H10R17137   0.233   0.739  10.187  1.2024  1.2578  0.3692
  154SAPE  H10S17138   0.211   0.866  10.072 -3.2412  2.0136 -0.5881
  154SAPE  C21117139   0.046   0.712  10.068 -0.3842 -0.6188  0.4051
  154SAPE  H11R17140  -0.028   0.657  10.129 -1.4410  1.5211  1.1498
  154SAPE  C21217141   0.033   0.723   9.933 -0.2391 -0.2238 -0.2447
  154SAPE  H12R17142  -0.034   0.648   9.889  0.9926 -1.9542  0.7091
  154SAPE  C21317143   0.105   0.812   9.835 -0.5109 -0.8772  0.8815
  154SAPE  H13R17144   0.121   0.919   9.860  0.1551 -0.7246 -0.1252
  154SAPE  H13S17145   0.068   0.817   9.730  1.5024  0.5979  0.1643
  154SAPE  C21417146   0.244   0.750   9.811  0.0571  0.3362  0.0473
  154SAPE  H14R17147   0.257   0.643   9.791 -1.8412  0.0918 -0.0803
  154SAPE  C21517148   0.368   0.810   9.817 -0.0939  0.3646 -0.4404
  154SAPE  H15R17149   0.457   0.746   9.813 -0.4597 -0.4998  2.6217
  154SAPE  C21617150   0.404   0.952   9.847 -0.3940  0.0108  0.0062
  154SAPE  H16R17151   0.483   0.960   9.926 -1.1121  0.4768  0.6969
  154SAPE  H16S17152   0.320   1.013   9.886  0.5345  0.3393  1.6090
  154SAPE  C21717153   0.463   1.031   9.727 -0.3250 -0.0791  0.0721
  154SAPE  H17R17154   0.452   1.134   9.766 -1.8209 -0.3989  0.5749
  154SAPE  H17S17155   0.398   1.020   9.637  0.8005  0.6452 -0.8556
  154SAPE  C21817156   0.603   0.980   9.680  0.6967 -0.4175  0.5293
  154SAPE  H18R17157   0.621   1.030   9.582  2.4833  0.7552  1.3885
  154SAPE  H18S17158   0.596   0.871   9.663 -0.0040 -0.5804  1.8015
  154SAPE  C21917159   0.713   1.008   9.782 -0.6957  0.0473 -0.7601
  154SAPE  H19R17160   0.681   0.947   9.870 -0.4000 -1.0433 -1.3872
  154SAPE  H19S17161   0.697   1.113   9.816  0.0990 -0.9495  3.3153
  154SAPE  C22017162   0.859   0.968   9.734  1.0112  0.2733  0.6027
  154SAPE  H20R17163   0.843   0.884   9.663  0.6361 -1.0550  2.1829
  154SAPE  H20S17164   0.909   0.944   9.830 -2.1840 -1.6787  1.9329
  154SAPE  H20T17165   0.899   1.057   9.681 -1.3646  0.8007 -0.4637
  154SAPE   C3317166   0.256   1.811  10.657  0.2339  0.1243 -0.7057
  154SAPE   H3X17167   0.328   1.783  10.737  0.3694  0.7084 -0.6134
  154SAPE   H3Y17168   0.269   1.920  10.636 -1.5324  0.4898 -0.0753
  154SAPE   C3417169   0.276   1.742  10.524 -0.1836  0.4973 -0.1873
  154SAPE   H4X17170   0.274   1.634  10.547  0.7593  0.1667 -1.5554
  154SAPE   H4Y17171   0.378   1.759  10.484  0.5605 -1.2263  0.9173
  154SAPE   C3517172   0.176   1.779  10.415 -0.7487 -0.3800  0.3221
  154SAPE   H5X17173   0.178   1.890  10.409  0.5922 -0.4551 -1.0707
  154SAPE   H5Y17174   0.075   1.750  10.452 -0.5957 -1.7777 -0.2843
  154SAPE   C3617175   0.206   1.725  10.276  1.4359  0.2480 -0.1342
  154SAPE   H6X17176   0.162   1.624  10.260 -1.6418  1.0164  2.3271
  154SAPE   H6Y17177   0.317   1.722  10.264  1.6039 -0.5804  1.3556
  154SAPE   C3717178   0.129   1.823  10.179  0.0405 -0.0515  0.6481
  154SAPE   H7X17179   0.166   1.928  10.181  1.5259 -0.5227 -0.5472
  154SAPE   H7Y17180   0.023   1.817  10.211  0.4010 -1.6209  1.6082
  154SAPE   C3817181   0.140   1.768  10.034 -0.4967 -0.3827 -0.6580
  154SAPE   H8X17182   0.072   1.680  10.036 -0.4649 -0.4027  1.2560
  154SAPE   H8Y17183   0.247   1.746  10.012 -0.1318  0.6902 -0.0339
  154SAPE   C3917184   0.101   1.875   9.929  0.6535  0.6624  0.6188
  154SAPE   H9X17185   0.184   1.944   9.907 -1.1890  1.8587 -3.7341
  154SAPE   H9Y17186   0.006   1.921   9.965 -0.5315  1.9840 -3.6726
  154SAPE  C31017187   0.070   1.813   9.791 -0.5302 -0.2990  0.5179
  154SAPE  H10X17188  -0.017   1.871   9.756  0.5501 -0.0639 -1.9373
  154SAPE  H10Y17189   0.057   1.702   9.792  3.4263 -1.0059 -1.9840
  154SAPE  C31117190   0.193   1.824   9.693 -0.2085  0.6837  0.3601
  154SAPE  H11X17191   0.276   1.768   9.741 -1.7506 -0.2260  2.1390
  154SAPE  H11Y17192   0.224   1.931   9.695 -0.0606  0.7228 -1.9936
  154SAPE  C31217193   0.145   1.789   9.552  0.0186 -0.5629 -0.4686
  154SAPE  H12X17194   0.091   1.880   9.518 -1.0799 -0.1800  2.0710
  154SAPE  H12Y17195   0.089   1.694   9.542 -0.4250 -0.1660 -2.0293
  154SAPE  C31317196   0.269   1.804   9.457  0.3009 -0.1240  0.2065
  154SAPE  H13X17197   0.344   1.738   9.506  0.4957 -0.1204 -0.0890
  154SAPE  H13Y17198   0.290   1.912   9.437 -2.9659  0.7917  1.1388
  154SAPE  C31417199   0.258   1.736   9.322  0.5068  0.6543 -0.2339
  154SAPE  H14X17200   0.163   1.769   9.274 -1.5545 -1.1270  2.3187
  154SAPE  H14Y17201   0.224   1.633   9.348  1.8326  0.5365  1.2145
  154SAPE  C31517202   0.382   1.730   9.243 -0.3071 -0.0640 -0.2223
  154SAPE  H15X17203   0.452   1.674   9.308 -0.3170 -1.4530 -1.3514
  154SAPE  H15Y17204   0.424   1.832   9.229  2.3801 -1.4638 -3.9789
  154SAPE  C31617205   0.365   1.655   9.106 -0.3815 -0.0893 -0.5407
  154SAPE  H16X17206   0.291   1.713   9.046 -0.6776 -2.3980 -2.5721
  154SAPE  H16Y17207   0.310   1.560   9.124 -0.5449 -0.4112 -2.4614
  154SAPE  C31717208   0.496   1.616   9.039 -0.7814  0.3821  1.2809
  154SAPE  H17X17209   0.552   1.546   9.105  0.7405  1.4581  1.2015
  154SAPE  H17Y17210   0.553   1.711   9.026  0.2388 -0.4576 -0.8297
  154SAPE  C31817211   0.458   1.547   8.906 -0.0713  0.4772 -0.4807
  154SAPE  H18X17212   0.371   1.479   8.920  0.6685 -0.8389 -1.9390
  154SAPE  H18Y17213   0.538   1.475   8.876  0.0624  0.7821 -0.8652
  154SAPE  H18Z17214   0.442   1.614   8.819 -0.5624 -0.4800 -1.1432
  155SAPE     N17215   1.026   0.855  10.932 -0.2895  0.5539 -0.0081
  155SAPE   HN117216   0.966   0.771  10.917  2.3428 -1.4018 -0.3671
  155SAPE   HN217217   1.042   0.889  10.836  0.4051  0.3747  0.0346
  155SAPE   HN317218   1.119   0.825  10.968 -0.2582  0.0559 -0.4913
  155SAPE   C1217219   0.955   0.961  11.011 -0.1028 -0.2711  0.2368
  155SAPE  H12A17220   1.026   1.044  11.032  3.2130 -2.5273 -1.1225
  155SAPE  H12B17221   0.921   0.925  11.110  0.0758  1.8846  1.1442
  155SAPE   C1117222   0.846   1.017  10.926 -0.0983 -0.2012  0.1607
  155SAPE  H11A17223   0.878   1.066  10.832 -0.4180 -1.3555 -0.5710
  155SAPE  H11B17224   0.800   1.097  10.988  1.5897  1.5741 -0.7702
  155SAPE     P17225   0.619   0.946  10.822  0.0739 -0.0460 -0.2528
  155SAPE   O1317226   0.570   0.819  10.764  0.0247  0.1866 -0.2767
  155SAPE   O1417227   0.516   1.003  10.910  0.1697  0.5298  0.4098
  155SAPE   O1217228   0.743   0.921  10.915 -0.0870  0.4571  0.3944
  155SAPE   O1117229   0.677   1.044  10.709  0.0083 -0.0221  0.3648
  155SAPE    C117230   0.676   1.187  10.707 -0.7863  0.4353 -0.2614
  155SAPE    HA17231   0.679   1.214  10.815  0.1112 -0.6714  0.0148
  155SAPE    HB17232   0.769   1.232  10.667 -0.3482  0.4884  0.7783
  155SAPE    C217233   0.553   1.248  10.631 -0.1216  0.0264 -0.0280
  155SAPE    HS17234   0.474   1.211  10.699  1.6455 -0.2527  1.9613
  155SAPE   O2117235   0.531   1.191  10.496 -0.0045 -0.1815 -0.4881
  155SAPE   C2117236   0.414   1.225  10.443  0.1363 -0.4618  0.0782
  155SAPE   O2217237   0.329   1.290  10.506 -0.2184 -0.2711 -0.2820
  155SAPE   C2217238   0.398   1.179  10.299 -0.5085 -0.1493 -0.2562
  155SAPE   H2R17239   0.460   1.087  10.304 -1.2863 -0.8235 -2.1196
  155SAPE   H2S17240   0.302   1.130  10.270 -1.0937  0.2755  0.8982
  155SAPE    C317241   0.565   1.405  10.636  0.4659 -0.0790 -0.1045
  155SAPE    HX17242   0.635   1.421  10.720  0.1070  0.2805  0.1293
  155SAPE    HY17243   0.464   1.449  10.653 -0.3341 -1.7352 -0.3270
  155SAPE   O3117244   0.623   1.458  10.515  0.2416  0.4061  0.2901
  155SAPE   C3117245   0.637   1.586  10.529  0.5535  0.1731  1.0993
  155SAPE   O3217246   0.594   1.657  10.617  0.1385 -0.4271  0.1776
  155SAPE   C3217247   0.700   1.643  10.411  0.5816  0.1148 -0.3506
  155SAPE   H2X17248   0.691   1.578  10.322 -0.7853 -1.2025  0.6892
  155SAPE   H2Y17249   0.806   1.659  10.438  0.4463 -1.1849  1.1010
  155SAPE   C2317250   0.459   1.278  10.201  0.2833  0.6637  0.1660
  155SAPE   H3R17251   0.455   1.232  10.100 -1.9263  0.1145  0.4661
  155SAPE   H3S17252   0.566   1.287  10.231  0.0793  0.4059  1.0098
  155SAPE   C2417253   0.399   1.416  10.193  0.4123 -0.7470 -0.0136
  155SAPE   H4R17254   0.386   1.457  10.296 -0.0323 -1.1614  0.0997
  155SAPE   H4S17255   0.296   1.411  10.150  0.2596  2.6993 -0.3346
  155SAPE   C2517256   0.476   1.513  10.109 -0.2841  0.6712 -0.2834
  155SAPE   H5R17257   0.526   1.591  10.168 -0.8868  1.2558 -0.5294
  155SAPE   C2617258   0.482   1.525   9.975  0.8445  0.5062  0.1862
  155SAPE   H6R17259   0.542   1.598   9.919  0.9063 -1.5247 -2.6221
  155SAPE   C2717260   0.386   1.440   9.885 -0.4930  0.5438 -0.4969
  155SAPE   H7R17261   0.290   1.428   9.939  0.4167  1.3478  1.3842
  155SAPE   H7S17262   0.432   1.340   9.871 -2.9413 -1.0193  1.6351
  155SAPE   C2817263   0.346   1.501   9.749 -0.2881  0.6234  0.2940
  155SAPE   H8R17264   0.260   1.567   9.767 -0.1520  1.2818 -1.3114
  155SAPE   C2917265   0.389   1.472   9.624 -0.2720  0.2010 -0.1949
  155SAPE   H9R17266   0.345   1.531   9.542 -1.1050  0.9336  0.7575
  155SAPE  C21017267   0.486   1.368   9.585  0.2353 -0.2475 -0.4485
  155SAPE  H10R17268   0.437   1.303   9.509 -0.3194 -0.2947 -0.0580
  155SAPE  H10S17269   0.504   1.308   9.677 -0.3184  2.3509  1.4648
  155SAPE  C21117270   0.615   1.423   9.539 -0.3945  0.5179  0.3731
  155SAPE  H11R17271   0.656   1.510   9.592  1.7658 -0.6340  0.6779
  155SAPE  C21217272   0.694   1.361   9.444 -0.3690 -0.0968  0.9261
  155SAPE  H12R17273   0.794   1.400   9.420 -0.7942  0.6797  0.3281
  155SAPE  C21317274   0.672   1.234   9.363 -0.8416 -0.1557 -0.1854
  155SAPE  H13R17275   0.664   1.267   9.258  0.5559 -1.3686 -0.7085
  155SAPE  H13S17276   0.572   1.203   9.398 -0.7304  1.4350  1.7423
  155SAPE  C21417277   0.770   1.117   9.370  0.4596  0.1037 -0.1162
  155SAPE  H14R17278   0.811   1.083   9.466 -2.0583  0.9356  1.3475
  155SAPE  C21517279   0.832   1.068   9.265  0.1031 -0.9958 -0.1299
  155SAPE  H15R17280   0.893   0.980   9.289  0.7257 -0.4935  0.1708
  155SAPE  C21617281   0.818   1.108   9.116 -0.0499  0.1034  0.8366
  155SAPE  H16R17282   0.907   1.166   9.081 -1.9458  3.2998  0.9082
  155SAPE  H16S17283   0.740   1.181   9.086  1.4384  1.1483 -0.7339
  155SAPE  C21717284   0.817   0.986   9.023  0.1951  0.9307  0.0486
  155SAPE  H17R17285   0.741   0.913   9.059  1.5816  0.2732  1.7792
  155SAPE  H17S17286   0.915   0.937   9.038  0.1181  0.9236  0.5405
  155SAPE  C21817287   0.802   1.016   8.876  0.1521 -0.4876 -0.6111
  155SAPE  H18R17288   0.865   1.103   8.848  0.3611 -0.5301 -0.2901
  155SAPE  H18S17289   0.697   1.036   8.847 -0.2096  0.3639  1.1361
  155SAPE  C21917290   0.855   0.899   8.789  0.0308  0.4470  0.7151
  155SAPE  H19R17291   0.825   0.803   8.836 -1.8467  0.2508 -0.7983
  155SAPE  H19S17292   0.966   0.903   8.795 -0.0265  0.9098  1.9727
  155SAPE  C22017293   0.823   0.905   8.644  0.5794 -0.4864  0.1036
  155SAPE  H20R17294   0.720   0.946   8.635  0.7401 -0.2293 -0.6334
  155SAPE  H20S17295   0.840   0.809   8.591 -2.7350 -1.5219  0.7159
  155SAPE  H20T17296   0.881   0.993   8.606  0.7190 -0.7675 -0.3417
  155SAPE   C3317297   0.654   1.787  10.372  0.2823  0.4051 -0.4779
  155SAPE   H3X17298   0.670   1.859  10.456 -1.8212  3.9961 -2.8616
  155SAPE   H3Y17299   0.549   1.790  10.335 -0.7077 -0.9564  1.9702
  155SAPE   C3417300   0.729   1.843  10.249 -0.1116  0.1510  0.4362
  155SAPE   H4X17301   0.836   1.830  10.276 -0.3264 -1.4571  0.6514
  155SAPE   H4Y17302   0.709   1.952  10.253 -0.2145  0.1636 -0.3618
  155SAPE   C3517303   0.701   1.786  10.107  0.6235 -0.0970 -0.0744
  155SAPE   H5X17304   0.594   1.805  10.084  0.7351  1.0714  0.3183
  155SAPE   H5Y17305   0.726   1.678  10.118  1.2763  0.2726  2.4398
  155SAPE   C3617306   0.794   1.856  10.005  0.1373 -0.3949  0.0778
  155SAPE   H6X17307   0.901   1.842  10.034  0.5724  0.2444 -1.1396
  155SAPE   H6Y17308   0.769   1.964  10.009 -1.1902 -0.6219 -1.3623
  155SAPE   C3717309   0.774   1.799   9.859  0.7664  0.3037  0.7896
  155SAPE   H7X17310   0.684   1.849   9.816 -0.3366 -2.5462 -0.4869
  155SAPE   H7Y17311   0.749   1.691   9.848 -0.3927  0.4842  1.4433
  155SAPE   C3817312   0.899   1.834   9.767  0.5371 -0.0821 -0.7442
  155SAPE   H8X17313   0.979   1.763   9.797  1.8212  0.8195 -1.9029
  155SAPE   H8Y17314   0.950   1.929   9.797  2.5042 -2.0003  2.5855
  155SAPE   C3917315   0.883   1.811   9.615 -0.6443 -0.2069  0.9623
  155SAPE   H9X17316   0.849   1.706   9.604  1.7438 -0.8681 -0.9977
  155SAPE   H9Y17317   0.977   1.807   9.556 -0.1355  0.0379  1.7429
  155SAPE  C31017318   0.782   1.908   9.550 -0.3408 -0.5384 -0.0983
  155SAPE  H10X17319   0.787   2.008   9.598  1.8324  0.5674 -2.3954
  155SAPE  H10Y17320   0.675   1.879   9.558 -0.7663  0.0986 -2.5744
  155SAPE  C31117321   0.809   1.936   9.399  0.2528  0.5678  0.9679
  155SAPE  H11X17322   0.916   1.961   9.383 -0.2993  1.6436 -1.4511
  155SAPE  H11Y17323   0.747   2.020   9.361  1.9641  0.0371 -3.5290
  155SAPE  C31217324   0.777   1.803   9.329 -0.0881  0.5087  0.2713
  155SAPE  H12X17325   0.675   1.766   9.347 -0.4333  1.4548  0.3411
  155SAPE  H12Y17326   0.836   1.712   9.354 -0.1794  0.0720 -1.0356
  155SAPE  C31317327   0.784   1.806   9.177 -0.3854 -0.0746 -0.3364
  155SAPE  H13X17328   0.698   1.865   9.138 -0.9201  1.1985  2.5431
  155SAPE  H13Y17329   0.759   1.708   9.132  1.6884 -0.1137 -1.5455
  155SAPE  C31417330   0.913   1.859   9.112  0.9118  0.6614 -0.5858
  155SAPE  H14X17331   0.992   1.787   9.141  0.7043  0.3348 -0.8220
  155SAPE  H14Y17332   0.943   1.964   9.133  0.9755  1.0757 -2.5485
  155SAPE  C31517333   0.894   1.854   8.962 -0.4420  0.0117  0.8719
  155SAPE  H15X17334   0.799   1.901   8.930 -0.1150  0.8358  1.0576
  155SAPE  H15Y17335   0.881   1.747   8.938  0.3448  0.0841  0.0510
  155SAPE  C31617336   1.017   1.902   8.884 -0.6220 -0.0894 -0.2639
  155SAPE  H16X17337   1.102   1.846   8.927 -0.4073 -2.3297 -3.2905
  155SAPE  H16Y17338   1.028   2.009   8.912  0.3828  0.3096 -2.0149
  155SAPE  C31717339   1.005   1.868   8.732 -0.0773  0.3293 -0.3228
  155SAPE  H17X17340   0.914   1.910   8.683 -0.0535 -0.0350 -0.6844
  155SAPE  H17Y17341   0.993   1.758   8.722 -1.2602  0.3414  0.6732
  155SAPE  C31817342   1.129   1.905   8.656 -0.0570  0.6273  0.0881
  155SAPE  H18X17343   1.127   2.014   8.635 -1.0722  0.3002 -1.6847
  155SAPE  H18Y17344   1.141   1.857   8.557  1.9772 -1.1202  1.0873
  155SAPE  H18Z17345   1.219   1.877   8.715 -0.2398 -2.1212 -0.7740
  156SAPE     N17346   0.138   4.550  10.589 -0.1440 -0.4036 -0.1275
  156SAPE   HN117347   0.228   4.580  10.632  0.0581 -2.1002  0.6889
  156SAPE   HN217348   0.136   4.448  10.569 -0.1256 -0.9530  2.4040
  156SAPE   HN317349   0.125   4.594  10.495 -0.2350 -0.3435 -0.0863
  156SAPE   C1217350   0.010   4.569  10.685 -0.8246  0.4300  0.3348
  156SAPE  H12A17351   0.006   4.678  10.707  0.1498  0.0324  2.8149
  156SAPE  H12B17352   0.037   4.527  10.784 -2.7675  0.6620  1.0024
  156SAPE   C1117353  -0.128   4.516  10.642 -0.0727  0.7366 -0.0146
  156SAPE  H11A17354  -0.160   4.571  10.551 -0.9817  2.9489  1.5263
  156SAPE  H11B17355  -0.196   4.546  10.725  1.5644  0.1920  1.6023
  156SAPE     P17356  -0.235   4.285  10.623 -0.1236 -0.3805 -0.0902
  156SAPE   O1317357  -0.193   4.148  10.616  0.4120  0.1247 -0.1081
  156SAPE   O1417358  -0.306   4.317  10.747 -1.0314 -0.1178  0.0976
  156SAPE   O1217359  -0.112   4.376  10.620  0.0107  0.1771  0.4659
  156SAPE   O1117360  -0.317   4.323  10.499 -0.3203  0.2790 -0.1050
  156SAPE    C117361  -0.275   4.290  10.367  0.6432  0.4060  0.0743
  156SAPE    HA17362  -0.165   4.306  10.358  0.9463 -0.7512  1.4010
  156SAPE    HB17363  -0.295   4.182  10.352  0.5861  0.2702  1.0830
  156SAPE    C217364  -0.338   4.382  10.259 -0.2443  0.7202 -0.2069
  156SAPE    HS17365  -0.300   4.486  10.269 -0.1563  0.7437 -0.7841
  156SAPE   O2117366  -0.482   4.363  10.269  0.9791 -0.5175 -0.1447
  156SAPE   C2117367  -0.550   4.471  10.235 -0.0299 -0.0700  0.7941
  156SAPE   O2217368  -0.504   4.572  10.183  0.4913 -0.1286 -0.4355
  156SAPE   C2217369  -0.697   4.449  10.280  0.1481  0.5273 -0.6444
  156SAPE   H2R17370  -0.695   4.378  10.365  1.6994  2.7885  1.3603
  156SAPE   H2S17371  -0.731   4.549  10.315 -1.5359  0.2559 -1.3828
  156SAPE    C317372  -0.281   4.335  10.122  0.1151 -0.1377  0.1079
  156SAPE    HX17373  -0.294   4.226  10.102  0.2575 -0.0439 -0.4954
  156SAPE    HY17374  -0.173   4.356  10.123 -0.4996  3.7238  1.8903
  156SAPE   O3117375  -0.342   4.410  10.004  0.0338  0.5594 -0.0724
  156SAPE   C3117376  -0.289   4.524   9.976  0.4730 -0.2255 -0.7038
  156SAPE   O3217377  -0.193   4.573  10.028 -0.3211 -0.0374 -0.5634
  156SAPE   C3217378  -0.375   4.596   9.867 -0.5567  0.3476  0.2402
  156SAPE   H2X17379  -0.346   4.703   9.869  1.3644 -0.1275  2.6204
  156SAPE   H2Y17380  -0.483   4.588   9.893 -0.7202  0.9334 -0.2245
  156SAPE   C2317381  -0.801   4.413  10.166 -0.2414 -0.3281  0.1211
  156SAPE   H3R17382  -0.784   4.478  10.077  0.2646 -1.1160 -0.3683
  156SAPE   H3S17383  -0.904   4.442  10.196  0.2134  3.4311 -1.2955
  156SAPE   C2417384  -0.798   4.268  10.126  0.0830  0.7547  0.1121
  156SAPE   H4R17385  -0.894   4.241  10.077  0.6666 -0.6547 -0.3102
  156SAPE   H4S17386  -0.807   4.197  10.212 -1.6487  0.2545 -0.4427
  156SAPE   C2517387  -0.686   4.231  10.039 -0.0710 -0.1391 -0.5577
  156SAPE   H5R17388  -0.599   4.182  10.086  0.3684 -1.3765 -2.5641
  156SAPE   C2617389  -0.689   4.261   9.907  1.3599  0.1217  0.2793
  156SAPE   H6R17390  -0.607   4.239   9.836  0.1044 -1.4370 -0.7493
  156SAPE   C2717391  -0.799   4.330   9.825 -0.5878 -0.7658 -0.2156
  156SAPE   H7R17392  -0.864   4.377   9.902  1.8505  0.5412  1.1741
  156SAPE   H7S17393  -0.848   4.257   9.757  2.1190 -0.9863 -2.1024
  156SAPE   C2817394  -0.740   4.438   9.738 -0.0348 -0.4828 -0.1435
  156SAPE   H8R17395  -0.708   4.526   9.795 -1.9556 -1.6328  2.8953
  156SAPE   C2917396  -0.736   4.443   9.607 -0.0589 -0.8616  0.0495
  156SAPE   H9R17397  -0.685   4.531   9.566  2.1194 -2.2865 -0.5039
  156SAPE  C21017398  -0.788   4.338   9.513  0.0564  0.2951  0.0867
  156SAPE  H10R17399  -0.848   4.263   9.567  0.2013  1.7340  2.3882
  156SAPE  H10S17400  -0.703   4.279   9.473 -0.0769 -1.0259  1.6551
  156SAPE  C21117401  -0.868   4.402   9.397 -0.6616 -0.2146  1.3841
  156SAPE  H11R17402  -0.890   4.507   9.417  0.6128  0.6736 -1.4406
  156SAPE  C21217403  -0.889   4.350   9.269 -0.0659 -0.1665  0.3449
  156SAPE  H12R17404  -0.969   4.391   9.205 -0.0658 -0.0738  0.4051
  156SAPE  C21317405  -0.837   4.215   9.220 -0.3081  0.5347  0.1370
  156SAPE  H13R17406  -0.926   4.148   9.212 -0.7049  1.2292 -1.5532
  156SAPE  H13S17407  -0.767   4.163   9.289 -1.5953 -0.8706  0.4561
  156SAPE  C21417408  -0.766   4.239   9.089  0.7272  0.3238  0.2903
  156SAPE  H14R17409  -0.669   4.290   9.095  0.0822  1.4090  2.5531
  156SAPE  C21517410  -0.823   4.218   8.967  0.5524 -0.4743  0.6790
  156SAPE  H15R17411  -0.756   4.240   8.883 -0.1292 -2.7561 -0.5642
  156SAPE  C21617412  -0.966   4.163   8.944 -0.5679  0.5680 -0.8912
  156SAPE  H16R17413  -1.013   4.225   8.865  1.6775 -1.2131 -3.8472
  156SAPE  H16S17414  -1.034   4.178   9.031  0.3160 -1.4335  0.2310
  156SAPE  C21717415  -0.982   4.016   8.891  0.2104  0.0149  0.5577
  156SAPE  H17R17416  -0.936   3.947   8.965 -0.0654  0.9190  1.5894
  156SAPE  H17S17417  -0.920   3.997   8.801 -0.9696  0.5551 -0.4084
  156SAPE  C21817418  -1.126   3.968   8.866  0.5569  0.3274  0.2370
  156SAPE  H18R17419  -1.187   3.975   8.959  1.5052  0.0620  0.9080
  156SAPE  H18S17420  -1.120   3.860   8.840  0.9170 -0.4324  3.0544
  156SAPE  C21917421  -1.205   4.034   8.750  0.1544 -0.2207  0.9618
  156SAPE  H19R17422  -1.144   4.012   8.660 -0.6637  0.2703  0.2751
  156SAPE  H19S17423  -1.209   4.143   8.770 -0.3950  0.4728 -2.4160
  156SAPE  C22017424  -1.338   3.970   8.722  0.5185  0.0065  1.1504
  156SAPE  H20R17425  -1.328   3.864   8.691 -0.1825  0.8343 -2.3271
  156SAPE  H20S17426  -1.383   4.020   8.634  2.7330 -1.3762 -0.8920
  156SAPE  H20T17427  -1.400   3.979   8.814 -0.3076  5.2704  0.3910
  156SAPE   C3317428  -0.370   4.543   9.724 -0.6056  0.2207  0.2310
  156SAPE   H3X17429  -0.438   4.456   9.709 -1.0282  0.5597  0.1513
  156SAPE   H3Y17430  -0.269   4.505   9.700 -0.4999  1.1328 -0.8692
  156SAPE   C3417431  -0.406   4.649   9.611 -0.6747 -0.1611  0.8981
  156SAPE   H4X17432  -0.325   4.725   9.611 -1.4912  0.7326  0.5922
  156SAPE   H4Y17433  -0.503   4.698   9.635 -2.5838 -2.4773 -1.4549
  156SAPE   C3517434  -0.413   4.581   9.478 -0.1263  0.8692  0.0787
  156SAPE   H5X17435  -0.503   4.516   9.480  0.6383 -0.2174  0.4922
  156SAPE   H5Y17436  -0.329   4.508   9.470  0.7451  1.9423 -0.8263
  156SAPE   C3617437  -0.416   4.677   9.360 -0.0052  0.1098 -0.6739
  156SAPE   H6X17438  -0.326   4.742   9.363 -0.0063  0.0811 -0.0435
  156SAPE   H6Y17439  -0.504   4.744   9.367 -1.2142 -1.5596  1.0703
  156SAPE   C3717440  -0.433   4.609   9.225 -0.3187 -0.0791 -0.2067
  156SAPE   H7X17441  -0.539   4.576   9.227 -0.2695 -0.2112  0.8353
  156SAPE   H7Y17442  -0.365   4.521   9.213  0.4953  0.7227 -1.7916
  156SAPE   C3817443  -0.394   4.710   9.109  0.8705  0.6916  0.5273
  156SAPE   H8X17444  -0.292   4.753   9.122  1.8427 -1.2505 -0.2736
  156SAPE   H8Y17445  -0.465   4.794   9.122  1.2988  0.9847  1.0085
  156SAPE   C3917446  -0.422   4.650   8.968 -0.1164  0.2512 -0.6145
  156SAPE   H9X17447  -0.424   4.734   8.896 -2.1771  1.4429  0.7037
  156SAPE   H9Y17448  -0.517   4.593   8.973 -1.2554  2.1222 -0.1179
  156SAPE  C31017449  -0.294   4.565   8.935 -0.7287  0.3917 -0.1362
  156SAPE  H10X17450  -0.257   4.507   9.022  1.9783  3.4507  0.9108
  156SAPE  H10Y17451  -0.214   4.641   8.926 -1.5802  1.2254 -0.8891
  156SAPE  C31117452  -0.322   4.476   8.812 -0.4698  0.1286  0.0441
  156SAPE  H11X17453  -0.368   4.543   8.737  1.1774 -0.9010 -1.9999
  156SAPE  H11Y17454  -0.395   4.399   8.844  1.9375 -1.8937  1.0579
  156SAPE  C31217455  -0.195   4.408   8.752 -0.0319 -0.2665  0.0945
  156SAPE  H12X17456  -0.123   4.358   8.820 -1.7960 -2.3258  0.5747
  156SAPE  H12Y17457  -0.141   4.476   8.683 -1.8768  1.3772  0.1846
  156SAPE  C31317458  -0.259   4.316   8.648  0.4123 -0.1470 -0.1109
  156SAPE  H13X17459  -0.354   4.358   8.609  1.6867  2.7140 -0.3997
  156SAPE  H13Y17460  -0.288   4.230   8.713 -0.4977 -0.4979 -0.9574
  156SAPE  C31417461  -0.147   4.274   8.552  0.9292  0.4384 -0.4523
  156SAPE  H14X17462  -0.086   4.198   8.606  2.4133  1.1724 -1.0418
  156SAPE  H14Y17463  -0.071   4.350   8.523  1.1130  0.9396  1.1897
  156SAPE  C31517464  -0.208   4.230   8.415 -0.3928 -0.1281 -0.4760
  156SAPE  H15X17465  -0.128   4.247   8.340  1.9146  0.7243  2.0103
  156SAPE  H15Y17466  -0.286   4.303   8.387  0.2690  0.1171 -1.7821
  156SAPE  C31617467  -0.262   4.089   8.410  0.3627  0.3218  0.6920
  156SAPE  H16X17468  -0.342   4.073   8.486  1.5320 -0.0060  1.8869
  156SAPE  H16Y17469  -0.179   4.017   8.431 -1.3211 -2.4388 -1.3065
  156SAPE  C31717470  -0.326   4.045   8.274  0.2380 -0.2495 -0.6636
  156SAPE  H17X17471  -0.250   4.033   8.193  1.9779 -0.6375  0.9564
  156SAPE  H17Y17472  -0.390   4.132   8.250  0.8018  0.0254 -1.2065
  156SAPE  C31817473  -0.414   3.923   8.273  0.4398  0.6443  0.1897
  156SAPE  H18X17474  -0.495   3.935   8.347  2.3099  0.5201  2.3869
  156SAPE  H18Y17475  -0.353   3.830   8.278 -0.2699 -0.2269 -3.9573
  156SAPE  H18Z17476  -0.460   3.918   8.172  1.9166 -1.1589 -0.4658
  157SAPE     N17477   4.028   5.731  10.901 -0.0177 -0.2212 -0.2640
  157SAPE   HN117478   4.007   5.751  10.801 -0.1848  1.3739  0.0683
  157SAPE   HN217479   3.985   5.638  10.921 -0.2068 -0.1159 -0.1845
  157SAPE   HN317480   3.977   5.797  10.963  0.6942 -0.9827  1.1841
  157SAPE   C1217481   4.173   5.738  10.936  0.6435  0.8331  0.4394
  157SAPE  H12A17482   4.181   5.722  11.046 -0.5624 -0.8178  0.3343
  157SAPE  H12B17483   4.213   5.841  10.921  1.8589  0.1678 -1.0918
  157SAPE   C1117484   4.249   5.642  10.842 -0.2696  0.3393 -0.1028
  157SAPE  H11A17485   4.357   5.664  10.859 -0.5176  0.1289  2.1258
  157SAPE  H11B17486   4.234   5.655  10.733 -0.2023 -0.2049 -0.1811
  157SAPE     P17487   4.305   5.402  10.936 -0.0976 -0.1451  0.1153
  157SAPE   O1317488   4.388   5.477  11.033 -0.0612 -0.3546 -0.0777
  157SAPE   O1417489   4.235   5.282  10.984  0.2685 -0.4888 -0.0319
  157SAPE   O1217490   4.208   5.502  10.872 -0.5557 -0.2643  0.2746
  157SAPE   O1117491   4.416   5.365  10.819 -0.1505  0.6111  0.4748
  157SAPE    C117492   4.532   5.446  10.791 -0.1160 -0.5614  1.1847
  157SAPE    HA17493   4.509   5.554  10.779 -0.8646 -1.0136 -2.2711
  157SAPE    HB17494   4.615   5.420  10.861  1.8313 -0.9229 -1.1341
  157SAPE    C217495   4.596   5.424  10.645 -0.1682  0.1377  0.1060
  157SAPE    HS17496   4.682   5.493  10.633  0.5243 -0.6295  0.5618
  157SAPE   O2117497   4.490   5.431  10.542  0.2984  0.0383  0.0122
  157SAPE   C2117498   4.477   5.555  10.492 -0.6965  0.3531 -0.5645
  157SAPE   O2217499   4.542   5.653  10.527 -0.2070 -0.3242 -0.3240
  157SAPE   C2217500   4.376   5.545  10.374 -0.0952  0.2484  0.3376
  157SAPE   H2R17501   4.408   5.455  10.317 -0.1574  0.7484 -0.5021
  157SAPE   H2S17502   4.273   5.523  10.410  0.7429  0.2822  3.0085
  157SAPE    C317503   4.649   5.280  10.646  0.4102  0.2494  0.3144
  157SAPE    HX17504   4.564   5.213  10.671  0.6665 -0.5400 -0.8546
  157SAPE    HY17505   4.722   5.270  10.730  2.4242 -1.6208 -1.5483
  157SAPE   O3117506   4.708   5.247  10.520 -0.1157 -0.2141  0.0102
  157SAPE   C3117507   4.775   5.131  10.534  0.5232 -0.0565 -0.2103
  157SAPE   O3217508   4.793   5.069  10.638 -0.0612 -0.2204  0.1280
  157SAPE   C3217509   4.816   5.080  10.397  0.3912 -0.1151 -0.0673
  157SAPE   H2X17510   4.878   4.988  10.400  0.1153 -0.2872  0.4833
  157SAPE   H2Y17511   4.872   5.165  10.351  0.4094 -0.4132 -0.6016
  157SAPE   C2317512   4.388   5.674  10.293 -0.2139  0.2649  0.4332
  157SAPE   H3R17513   4.471   5.650  10.224  0.3406 -0.7114  1.4215
  157SAPE   H3S17514   4.432   5.761  10.346  1.8244  0.4274 -1.4175
  157SAPE   C2417515   4.260   5.701  10.210 -0.0292  0.1043 -0.2959
  157SAPE   H4R17516   4.227   5.603  10.169 -1.1987 -0.7381  2.4279
  157SAPE   H4S17517   4.292   5.773  10.131  2.4721  0.4387  0.9190
  157SAPE   C2517518   4.148   5.753  10.301 -0.6492  0.0551 -0.3029
  157SAPE   H5R17519   4.151   5.730  10.408 -1.9561 -1.9099 -0.6203
  157SAPE   C2617520   4.037   5.810  10.249  0.0116 -0.1599  1.1718
  157SAPE   H6R17521   3.955   5.834  10.318 -0.8932 -3.6994  1.4798
  157SAPE   C2717522   4.009   5.824  10.095 -0.3781  0.3030  0.0928
  157SAPE   H7R17523   3.928   5.751  10.071  1.6772 -1.9263 -0.4901
  157SAPE   H7S17524   4.088   5.784  10.028  1.0039  1.5454  0.9263
  157SAPE   C2817525   3.984   5.971  10.060  0.3070  0.5795 -0.7417
  157SAPE   H8R17526   3.947   6.030  10.145 -0.7394 -0.3301 -0.5341
  157SAPE   C2917527   3.973   6.008   9.935 -0.2064  0.2237 -0.1513
  157SAPE   H9R17528   3.962   6.116   9.915  0.2464  0.2071 -0.5154
  157SAPE  C21017529   3.986   5.928   9.808  0.3194  0.4100  0.4909
  157SAPE  H10R17530   4.087   5.881   9.815 -0.3379 -0.8682  2.1987
  157SAPE  H10S17531   3.994   5.994   9.719 -3.1673  0.5796  0.1781
  157SAPE  C21117532   3.887   5.812   9.790 -0.9309 -1.3331 -0.4211
  157SAPE  H11R17533   3.920   5.710   9.811  1.5453 -0.4157  0.4410
  157SAPE  C21217534   3.755   5.830   9.760  0.0915 -0.5530 -0.0770
  157SAPE  H12R17535   3.686   5.745   9.751 -0.4845 -0.1966  0.8065
  157SAPE  C21317536   3.683   5.968   9.746  0.1178  0.1703 -0.2981
  157SAPE  H13R17537   3.757   6.026   9.687  0.5610  0.0351  0.1089
  157SAPE  H13S17538   3.652   6.016   9.841  0.2982 -1.8912  0.8671
  157SAPE  C21417539   3.559   5.939   9.663  0.9814 -0.2203  0.3835
  157SAPE  H14R17540   3.519   5.837   9.674  0.8407 -0.2308 -0.1556
  157SAPE  C21517541   3.504   6.026   9.570 -0.1830  0.2337 -0.4033
  157SAPE  H15R17542   3.407   5.996   9.527 -0.2069 -1.2484  0.6078
  157SAPE  C21617543   3.551   6.164   9.526 -1.1553 -0.1257  0.9029
  157SAPE  H16R17544   3.661   6.168   9.536 -1.0012 -0.0250 -0.6328
  157SAPE  H16S17545   3.519   6.248   9.592  1.1470  1.0388  0.6191
  157SAPE  C21717546   3.526   6.202   9.373 -0.2891  0.3314  0.4523
  157SAPE  H17R17547   3.570   6.113   9.323  1.1985  1.4184 -0.2639
  157SAPE  H17S17548   3.591   6.287   9.343  1.8775 -0.8614  1.5018
  157SAPE  C21817549   3.379   6.230   9.343  0.4630  0.0425 -0.7797
  157SAPE  H18R17550   3.349   6.329   9.385 -3.2566 -1.2212 -0.1256
  157SAPE  H18S17551   3.313   6.154   9.389  0.7268 -0.0696 -0.5866
  157SAPE  C21917552   3.347   6.221   9.197  0.3610  0.3124 -0.4195
  157SAPE  H19R17553   3.378   6.120   9.162 -1.6753 -0.1185 -1.0902
  157SAPE  H19S17554   3.407   6.300   9.145  1.0022  0.7363  0.9229
  157SAPE  C22017555   3.197   6.237   9.162 -0.1742 -0.4503  0.0199
  157SAPE  H20R17556   3.165   6.343   9.172 -0.5955 -0.6613  0.9832
  157SAPE  H20S17557   3.129   6.174   9.223 -2.7925 -1.5420 -3.6423
  157SAPE  H20T17558   3.190   6.208   9.055 -2.0029 -1.0506  0.2813
  157SAPE   C3317559   4.701   5.049  10.295 -0.8016 -0.4322  0.3569
  157SAPE   H3X17560   4.610   5.055  10.359 -0.3990  2.0984  0.7876
  157SAPE   H3Y17561   4.719   4.947  10.253  0.4667 -0.3643  0.7203
  157SAPE   C3417562   4.677   5.154  10.187  0.0391 -0.4168  0.6197
  157SAPE   H4X17563   4.606   5.111  10.113  0.4451  0.4873 -0.3185
  157SAPE   H4Y17564   4.771   5.175  10.132 -0.7803  1.3315 -0.2096
  157SAPE   C3517565   4.608   5.287  10.232  0.4407  0.6933 -0.5178
  157SAPE   H5X17566   4.674   5.340  10.304  2.5286  1.2652 -2.7153
  157SAPE   H5Y17567   4.514   5.266  10.286  0.2462  2.0400 -0.3004
  157SAPE   C3617568   4.610   5.390  10.123  0.0164  0.1112  0.6040
  157SAPE   H6X17569   4.717   5.393  10.094 -0.0740  0.2473  0.2906
  157SAPE   H6Y17570   4.592   5.489  10.169  1.4119  0.7380 -0.1543
  157SAPE   C3717571   4.510   5.361  10.004  1.2391  0.6496  0.3344
  157SAPE   H7X17572   4.422   5.321  10.057  2.4771 -0.2333  1.8083
  157SAPE   H7Y17573   4.545   5.289   9.927  1.5230  1.5154 -0.3630
  157SAPE   C3817574   4.463   5.494   9.939  0.1745 -0.0351  0.4784
  157SAPE   H8X17575   4.551   5.545   9.895 -1.7109  1.0423 -2.3351
  157SAPE   H8Y17576   4.407   5.556  10.013 -2.6612  1.9870 -3.0181
  157SAPE   C3917577   4.353   5.492   9.833 -0.6597  0.3110 -0.5678
  157SAPE   H9X17578   4.263   5.453   9.884 -0.2089 -0.5630 -0.4081
  157SAPE   H9Y17579   4.384   5.424   9.750 -1.6059 -1.3325  0.3566
  157SAPE  C31017580   4.319   5.630   9.773  0.0231 -0.1576  0.1469
  157SAPE  H10X17581   4.409   5.694   9.755  0.1161 -0.7942 -1.9313
  157SAPE  H10Y17582   4.265   5.671   9.861  2.8058 -0.0187  1.9134
  157SAPE  C31117583   4.232   5.632   9.647  0.0131 -0.0508  0.1546
  157SAPE  H11X17584   4.130   5.600   9.675  0.1723  0.6839  1.6573
  157SAPE  H11Y17585   4.288   5.560   9.584  0.8146 -0.6143  1.4730
  157SAPE  C31217586   4.228   5.761   9.571  0.4168 -0.3729 -0.1237
  157SAPE  H12X17587   4.331   5.800   9.560 -0.3045  1.4394 -0.9979
  157SAPE  H12Y17588   4.189   5.842   9.636  1.7308 -1.3280  1.9472
  157SAPE  C31317589   4.167   5.758   9.432 -0.8197 -0.0774 -0.7852
  157SAPE  H13X17590   4.183   5.656   9.391  2.2748 -0.6473  1.4007
  157SAPE  H13Y17591   4.223   5.829   9.368  0.6949 -2.0113 -1.7181
  157SAPE  C31417592   4.019   5.795   9.435  1.4296  0.6183 -0.3267
  157SAPE  H14X17593   3.991   5.894   9.479 -0.6253  0.7061 -1.6712
  157SAPE  H14Y17594   3.969   5.703   9.471  1.5034  0.5955 -0.2836
  157SAPE  C31517595   3.964   5.814   9.297  0.1396  0.0740  0.6327
  157SAPE  H15X17596   3.855   5.838   9.294  0.4742  1.5349 -1.3115
  157SAPE  H15Y17597   3.987   5.722   9.240  2.3487 -0.4587  2.2469
  157SAPE  C31617598   4.022   5.931   9.224 -0.8166 -0.2502  0.2386
  157SAPE  H16X17599   4.129   5.906   9.210 -1.1167 -1.5762  0.1556
  157SAPE  H16Y17600   4.021   6.021   9.290  1.5892  0.6230 -0.7976
  157SAPE  C31717601   3.976   5.952   9.082  0.9911 -0.5228  0.1681
  157SAPE  H17X17602   3.967   5.854   9.030  0.6580 -0.1717 -0.4438
  157SAPE  H17Y17603   4.047   6.015   9.023 -0.5073 -0.5512 -1.7826
  157SAPE  C31817604   3.841   6.023   9.076 -0.2893  0.0986  0.3861
  157SAPE  H18X17605   3.779   5.983   9.159  1.1693  0.0272  1.4690
  157SAPE  H18Y17606   3.792   5.999   8.979  1.1245  0.3954 -0.4352
  157SAPE  H18Z17607   3.859   6.130   9.098  2.2891 -0.4484  1.2358
  158SAPE     N17608   5.624   5.328  10.794 -0.7767 -0.1431  0.5341
  158SAPE   HN117609   5.693   5.399  10.825 -0.8662  0.2003 -0.0356
  158SAPE   HN217610   5.618   5.251  10.863 -1.1036 -0.3821  0.2409
  158SAPE   HN317611   5.668   5.285  10.710  1.2701  1.0546  0.9276
  158SAPE   C1217612   5.502   5.404  10.747  0.4429  0.1521  0.4071
  158SAPE  H12A17613   5.443   5.431  10.838  0.1963 -1.7634  0.8475
  158SAPE  H12B17614   5.441   5.337  10.683  1.9580 -0.5526 -0.3365
  158SAPE   C1117615   5.531   5.542  10.676 -0.4299 -0.1116 -0.5826
  158SAPE  H11A17616   5.435   5.586  10.641 -1.4165 -1.6560  0.0832
  158SAPE  H11B17617   5.593   5.534  10.584 -0.9034  1.6459 -1.0983
  158SAPE     P17618   5.729   5.657  10.818  0.0502  0.0770  0.0750
  158SAPE   O1317619   5.726   5.778  10.903  0.3560 -0.1495  0.6266
  158SAPE   O1417620   5.769   5.525  10.877 -0.0345 -0.3889  0.2275
  158SAPE   O1217621   5.585   5.642  10.763  0.3098  0.0525 -0.0567
  158SAPE   O1117622   5.813   5.683  10.681 -0.1366 -0.4902 -0.5947
  158SAPE    C117623   5.779   5.798  10.604 -0.2676  0.1158  0.7461
  158SAPE    HA17624   5.688   5.850  10.640 -2.1085 -0.2428 -2.8868
  158SAPE    HB17625   5.863   5.870  10.609  1.5043 -1.4178 -2.9637
  158SAPE    C217626   5.750   5.769  10.450  0.3199 -0.0560  0.2382
  158SAPE    HS17627   5.643   5.740  10.454  0.0430  0.8307 -0.2561
  158SAPE   O2117628   5.840   5.668  10.401 -0.5218 -0.3429  0.2911
  158SAPE   C2117629   5.788   5.570  10.337 -0.6540  0.0891 -0.0833
  158SAPE   O2217630   5.670   5.533  10.334 -0.2349 -0.1191 -0.1061
  158SAPE   C2217631   5.898   5.485  10.273  0.1289 -0.1762  0.0819
  158SAPE   H2R17632   5.949   5.545  10.195  0.3496 -0.5791 -0.0845
  158SAPE   H2S17633   5.977   5.474  10.350  0.7059  1.5475 -0.2211
  158SAPE    C317634   5.766   5.898  10.370 -0.0508  0.1412  1.2589
  158SAPE    HX17635   5.873   5.926  10.380 -0.6196  3.4596 -0.5217
  158SAPE    HY17636   5.710   5.979  10.422 -1.0115  2.2842 -2.7053
  158SAPE   O3117637   5.727   5.878  10.227  0.0817  0.2723  0.4604
  158SAPE   C3117638   5.701   5.985  10.154 -0.2979 -0.9302  0.5144
  158SAPE   O3217639   5.734   6.097  10.192  0.3810 -0.3517  0.1639
  158SAPE   C3217640   5.632   5.956  10.031 -0.7978  1.0505  0.3277
  158SAPE   H2X17641   5.521   5.965  10.039 -1.2062 -1.6788 -1.0649
  158SAPE   H2Y17642   5.650   5.849  10.006  2.2090  1.3970  0.6376
  158SAPE   C2317643   5.852   5.350  10.218 -0.6664  0.6369  0.8588
  158SAPE   H3R17644   5.801   5.278  10.285  0.0423 -2.2674 -1.5276
  158SAPE   H3S17645   5.949   5.304  10.188 -1.0205  0.0165  0.6498
  158SAPE   C2417646   5.770   5.351  10.075 -0.3744 -0.2057 -0.2927
  158SAPE   H4R17647   5.845   5.351   9.993  0.6688 -2.4595  0.5790
  158SAPE   H4S17648   5.700   5.438  10.072 -3.3477 -2.4046  0.3921
  158SAPE   C2517649   5.683   5.226  10.064  0.0524  0.0488 -0.0969
  158SAPE   H5R17650   5.660   5.178  10.160  2.0840  0.6532  0.7626
  158SAPE   C2617651   5.637   5.173   9.944  0.1943  0.5715 -0.0654
  158SAPE   H6R17652   5.565   5.090   9.950 -0.5210  0.9579 -2.3521
  158SAPE   C2717653   5.666   5.232   9.809 -0.7730  0.5689 -0.4570
  158SAPE   H7R17654   5.767   5.200   9.777 -1.4888  0.3356 -2.6694
  158SAPE   H7S17655   5.663   5.343   9.806 -1.3822  0.5628 -0.2950
  158SAPE   C2817656   5.569   5.184   9.711 -0.7605  0.0817  0.3112
  158SAPE   H8R17657   5.487   5.134   9.765 -0.8964  1.1239  1.1161
  158SAPE   C2917658   5.567   5.220   9.580  0.4164  0.4715 -0.3202
  158SAPE   H9R17659   5.479   5.181   9.527 -2.4128  3.2117  1.9722
  158SAPE  C21017660   5.670   5.291   9.502  0.1639  0.0425  0.3265
  158SAPE  H10R17661   5.753   5.344   9.554  0.7550  1.4085 -1.8433
  158SAPE  H10S17662   5.621   5.373   9.445  1.7910  1.1788  0.4928
  158SAPE  C21117663   5.747   5.217   9.396 -1.2222  0.4626  0.7560
  158SAPE  H11R17664   5.854   5.205   9.417 -1.4595 -1.2876  1.1185
  158SAPE  C21217665   5.708   5.182   9.271 -0.4615  0.2019  0.5346
  158SAPE  H12R17666   5.777   5.121   9.211 -2.8048 -1.0260 -1.0658
  158SAPE  C21317667   5.566   5.199   9.221  0.2995 -0.0162 -0.2521
  158SAPE  H13R17668   5.499   5.175   9.306 -1.2635  1.5850 -0.9764
  158SAPE  H13S17669   5.541   5.121   9.145 -0.2369 -0.6848  0.5904
  158SAPE  C21417670   5.535   5.336   9.155  0.3684  0.0614 -0.9848
  158SAPE  H14R17671   5.617   5.409   9.148  0.1680  0.4237  0.3196
  158SAPE  C21517672   5.415   5.366   9.107  0.4365  0.0084 -0.3208
  158SAPE  H15R17673   5.395   5.466   9.067  3.2037  0.3081 -1.1929
  158SAPE  C21617674   5.300   5.275   9.098  0.8692  0.1373  0.9669
  158SAPE  H16R17675   5.252   5.259   9.197 -0.4808  1.0100  0.4830
  158SAPE  H16S17676   5.328   5.180   9.049 -1.2058 -0.6991  1.2726
  158SAPE  C21717677   5.184   5.338   9.009  0.6624  0.2097 -0.0033
  158SAPE  H17R17678   5.216   5.363   8.906 -0.5361 -0.5483 -0.5878
  158SAPE  H17S17679   5.171   5.420   9.083 -2.1487 -2.0861  2.2987
  158SAPE  C21817680   5.053   5.253   9.012  0.4396  0.0125 -0.3194
  158SAPE  H18R17681   4.983   5.315   8.953 -0.1547  0.6346  0.9994
  158SAPE  H18S17682   5.000   5.240   9.108 -0.0594  0.3295 -0.5505
  158SAPE  C21917683   5.067   5.125   8.932  0.5022 -0.2714 -0.4129
  158SAPE  H19R17684   4.976   5.064   8.953 -0.2209  0.5652 -1.0529
  158SAPE  H19S17685   5.153   5.068   8.972  0.1967  1.0787  2.3520
  158SAPE  C22017686   5.057   5.144   8.789 -0.0762  0.1266  0.8133
  158SAPE  H20R17687   5.148   5.190   8.746 -1.2780  0.6035 -1.3543
  158SAPE  H20S17688   4.962   5.195   8.764  0.4568  1.8753  2.1617
  158SAPE  H20T17689   5.059   5.046   8.736  0.5908 -0.5454  2.0264
  158SAPE   C3317690   5.693   6.031   9.912 -0.3447  0.6374  0.0262
  158SAPE   H3X17691   5.727   6.134   9.936  1.9570 -0.1786  0.5844
  158SAPE   H3Y17692   5.634   6.032   9.818 -2.5368  1.2995  1.3471
  158SAPE   C3417693   5.829   5.963   9.874  1.0935 -0.6067 -0.2589
  158SAPE   H4X17694   5.815   5.857   9.844  0.1639 -0.4968 -0.2322
  158SAPE   H4Y17695   5.886   5.961   9.969  2.0077  0.5197 -0.7632
  158SAPE   C3517696   5.913   6.039   9.773 -0.1322 -0.3407 -0.4251
  158SAPE   H5X17697   6.015   5.998   9.789 -0.1003  0.6416  2.5444
  158SAPE   H5Y17698   5.905   6.147   9.800  1.0207 -0.7097  1.6635
  158SAPE   C3617699   5.872   6.022   9.629 -0.0881 -0.0734  0.6799
  158SAPE   H6X17700   5.777   6.078   9.614 -0.9804 -1.3201  1.4381
  158SAPE   H6Y17701   5.877   5.916   9.595  0.5761 -0.1561  1.0178
  158SAPE   C3717702   5.971   6.097   9.537  1.4513  0.1978  0.1185
  158SAPE   H7X17703   6.072   6.058   9.561  2.5839  2.1380 -1.1513
  158SAPE   H7Y17704   5.948   6.205   9.549 -1.7268 -0.5064  1.3291
  158SAPE   C3817705   5.937   6.076   9.388 -0.7767 -0.0153 -0.0756
  158SAPE   H8X17706   5.836   6.121   9.380 -0.7007 -0.0741 -1.7916
  158SAPE   H8Y17707   5.939   5.975   9.342  1.2006 -0.0447 -0.0119
  158SAPE   C3917708   6.013   6.174   9.295  0.1338  0.1141 -0.1833
  158SAPE   H9X17709   6.120   6.144   9.285 -0.3251 -1.1889 -1.4963
  158SAPE   H9Y17710   6.007   6.275   9.341  0.5235 -0.2509  0.6889
  158SAPE  C31017711   5.939   6.183   9.160  0.6280 -0.1927  0.5937
  158SAPE  H10X17712   5.988   6.272   9.115  0.1287  0.5534  1.4681
  158SAPE  H10Y17713   5.829   6.197   9.173  0.4594 -0.4734 -0.5034
  158SAPE  C31117714   5.959   6.064   9.061 -0.6961  0.6451 -0.6353
  158SAPE  H11X17715   5.905   6.088   8.966  0.1842  2.0539 -0.8092
  158SAPE  H11Y17716   5.913   5.972   9.104  1.8414 -0.0541  0.7565
  158SAPE  C31217717   6.106   6.026   9.032  0.4369 -0.8376  0.2761
  158SAPE  H12X17718   6.148   5.992   9.129 -1.0167 -1.7787  0.6055
  158SAPE  H12Y17719   6.175   6.100   8.985  1.4646 -2.6195 -1.1598
  158SAPE  C31317720   6.116   5.900   8.936  0.2755  0.3924  0.2565
  158SAPE  H13X17721   6.055   5.822   8.986  0.3572  0.8803  1.1310
  158SAPE  H13Y17722   6.218   5.856   8.940  0.4778  0.6865 -0.9830
  158SAPE  C31417723   6.072   5.914   8.789 -0.4168 -0.1497 -0.1441
  158SAPE  H14X17724   5.984   5.981   8.790  0.5953  1.2231  0.5589
  158SAPE  H14Y17725   6.028   5.820   8.750 -0.1799 -0.1498 -0.4210
  158SAPE  C31517726   6.177   5.982   8.697 -0.1120 -0.2303 -0.2570
  158SAPE  H15X17727   6.223   6.067   8.753 -3.4016  1.2904  0.4099
  158SAPE  H15Y17728   6.119   6.018   8.609  0.0497  0.4020 -0.1113
  158SAPE  C31617729   6.295   5.892   8.662  0.3726  0.7187  0.3785
  158SAPE  H16X17730   6.258   5.806   8.601 -1.7037  0.0658  2.4087
  158SAPE  H16Y17731   6.341   5.854   8.755  2.0553  1.6702 -0.0349
  158SAPE  C31717732   6.417   5.955   8.586  0.1937 -0.4615  0.2253
  158SAPE  H17X17733   6.508   5.892   8.589 -0.5330 -1.5190  0.7634
  158SAPE  H17Y17734   6.438   6.055   8.629 -1.0192 -0.5526  1.0885
  158SAPE  C31817735   6.391   5.960   8.433  0.1365  0.0646 -0.3312
  158SAPE  H18X17736   6.344   5.862   8.408  0.2139 -0.6571  2.0587
  158SAPE  H18Y17737   6.486   5.966   8.376  1.7581  1.8592  2.3640
  158SAPE  H18Z17738   6.323   6.045   8.413  0.1388  0.4556  1.1851
  159SAPE     N17739   4.938   5.827   6.539  0.1869  0.2972 -0.7825
  159SAPE   HN117740   4.929   5.725   6.558  0.4339  0.6264  1.3512
  159SAPE   HN217741   4.911   5.886   6.620  0.0266 -0.1755 -0.4915
  159SAPE   HN317742   4.863   5.836   6.468 -2.0470 -2.5727  0.9961
  159SAPE   C1217743   5.066   5.860   6.472  0.4704  0.4588 -0.0195
  159SAPE  H12A17744   5.067   5.969   6.453  0.2595  0.6556  1.0616
  159SAPE  H12B17745   5.066   5.821   6.368 -1.9215  0.3887 -0.0451
  159SAPE   C1117746   5.192   5.842   6.559 -0.0182  0.3982 -0.0819
  159SAPE  H11A17747   5.175   5.861   6.667 -0.1141  2.5594 -0.4273
  159SAPE  H11B17748   5.264   5.916   6.518 -0.2751 -0.2732 -1.8422
  159SAPE     P17749   5.352   5.677   6.421  0.3589  0.1126  0.0418
  159SAPE   O1317750   5.326   5.750   6.294  0.1249 -0.0396 -0.4099
  159SAPE   O1417751   5.477   5.720   6.486 -0.4336  0.1853 -0.2707
  159SAPE   O1217752   5.245   5.702   6.537  0.2348  0.0757  0.3011
  159SAPE   O1117753   5.352   5.526   6.392 -0.2390 -0.0474 -0.8138
  159SAPE    C117754   5.282   5.433   6.478 -0.0951 -0.2420  0.3067
  159SAPE    HA17755   5.181   5.473   6.500 -0.4735 -0.9608 -0.0754
  159SAPE    HB17756   5.262   5.339   6.422 -0.3069 -0.6537  1.0595
  159SAPE    C217757   5.368   5.405   6.608 -0.2113 -0.0069 -0.0042
  159SAPE    HS17758   5.322   5.321   6.664 -1.5868 -0.0446 -1.1476
  159SAPE   O2117759   5.380   5.517   6.700  0.1281 -0.1128 -0.4382
  159SAPE   C2117760   5.271   5.548   6.768 -0.0347  0.1848  0.5578
  159SAPE   O2217761   5.164   5.491   6.762  0.3336  0.2431 -0.7524
  159SAPE   C2217762   5.313   5.640   6.881  0.1891 -0.4066  1.1365
  159SAPE   H2R17763   5.417   5.678   6.874 -0.0913  0.2137  0.0343
  159SAPE   H2S17764   5.243   5.725   6.873  1.5907  0.6498 -0.7296
  159SAPE    C317765   5.514   5.362   6.562 -0.0949  0.1617  0.0361
  159SAPE    HX17766   5.552   5.444   6.498 -3.3156  0.3357 -1.8556
  159SAPE    HY17767   5.501   5.268   6.505 -1.0416  0.6897 -0.6424
  159SAPE   O3117768   5.607   5.337   6.673 -0.3267 -0.0159 -0.5158
  159SAPE   C3117769   5.736   5.354   6.655 -0.6182 -0.0691 -0.0162
  159SAPE   O3217770   5.793   5.381   6.549  0.3407 -0.2842  0.3783
  159SAPE   C3217771   5.804   5.363   6.797  0.3719 -1.1372  0.6724
  159SAPE   H2X17772   5.913   5.346   6.778  0.8846 -0.5550  2.8398
  159SAPE   H2Y17773   5.752   5.282   6.852  1.3161 -1.1659  1.5413
  159SAPE   C2317774   5.286   5.578   7.022 -1.1700  0.4489 -0.5569
  159SAPE   H3R17775   5.338   5.480   7.021 -1.7799  0.1215 -0.9709
  159SAPE   H3S17776   5.178   5.558   7.037 -1.6399  2.2368 -1.3455
  159SAPE   C2417777   5.322   5.656   7.146 -0.1354 -0.2713 -0.1224
  159SAPE   H4R17778   5.232   5.650   7.211 -1.0091  0.2819 -1.2482
  159SAPE   H4S17779   5.331   5.761   7.111  2.0411  0.0848  1.3036
  159SAPE   C2517780   5.453   5.624   7.217 -0.7030  0.0207 -0.2931
  159SAPE   H5R17781   5.535   5.622   7.145  1.7342 -2.1133  2.2978
  159SAPE   C2617782   5.478   5.591   7.345 -0.5037  0.5218  0.3839
  159SAPE   H6R17783   5.579   5.570   7.382 -0.4644  0.0142  0.0007
  159SAPE   C2717784   5.373   5.581   7.450  0.0060  0.1276 -0.1467
  159SAPE   H7R17785   5.402   5.492   7.509  0.0819  0.2689  0.0286
  159SAPE   H7S17786   5.276   5.543   7.412 -0.1406 -0.5066  0.8491
  159SAPE   C2817787   5.334   5.700   7.537 -0.0777  0.0764  0.0090
  159SAPE   H8R17788   5.272   5.778   7.491  1.7581  1.8488  0.4327
  159SAPE   C2917789   5.390   5.723   7.663  0.4255  0.2184 -0.2049
  159SAPE   H9R17790   5.338   5.800   7.722  1.6436  0.2668  0.8486
  159SAPE  C21017791   5.489   5.653   7.752 -0.1065  0.2619  0.3185
  159SAPE  H10R17792   5.578   5.714   7.778 -0.0344  0.0478  0.5812
  159SAPE  H10S17793   5.531   5.565   7.699 -0.4327  0.0801  0.3622
  159SAPE  C21117794   5.423   5.608   7.883  0.0075 -0.3001 -0.4839
  159SAPE  H11R17795   5.354   5.523   7.873 -0.2337 -0.2783  0.7701
  159SAPE  C21217796   5.440   5.657   8.012  0.1038  0.4621  0.2197
  159SAPE  H12R17797   5.384   5.612   8.096  0.4485  1.6515  1.1003
  159SAPE  C21317798   5.515   5.769   8.059 -0.6473 -0.0142  0.0955
  159SAPE  H13R17799   5.540   5.847   7.984  1.1859  0.4352  1.1351
  159SAPE  H13S17800   5.617   5.738   8.088 -0.2168  2.3472  1.3829
  159SAPE  C21417801   5.455   5.847   8.182  0.0620  0.0695 -0.1584
  159SAPE  H14R17802   5.396   5.939   8.169  1.1157  0.8071  0.1160
  159SAPE  C21517803   5.477   5.796   8.309 -0.1420  0.1052  0.5130
  159SAPE  H15R17804   5.425   5.842   8.394 -0.3209  2.7795 -0.9572
  159SAPE  C21617805   5.553   5.670   8.342 -0.3680  0.2749  0.1902
  159SAPE  H16R17806   5.650   5.710   8.377 -0.0464 -0.5172  0.2274
  159SAPE  H16S17807   5.569   5.597   8.260 -0.0648 -0.2202  0.6780
  159SAPE  C21717808   5.485   5.591   8.455 -0.2238  0.1425  0.0249
  159SAPE  H17R17809   5.544   5.499   8.475  1.0585  1.1472  1.1570
  159SAPE  H17S17810   5.385   5.566   8.414 -0.4795  0.8394  0.2105
  159SAPE  C21817811   5.459   5.671   8.587 -0.3730 -0.1621  0.6473
  159SAPE  H18R17812   5.394   5.761   8.580  0.2491  0.3930  1.7808
  159SAPE  H18S17813   5.560   5.702   8.623  1.2839 -3.6546 -0.5609
  159SAPE  C21917814   5.398   5.588   8.691 -0.0248  0.4278  0.6099
  159SAPE  H19R17815   5.467   5.501   8.695 -0.5082 -0.0054 -0.1169
  159SAPE  H19S17816   5.306   5.547   8.642  0.6118 -0.6998  0.3209
  159SAPE  C22017817   5.368   5.649   8.827  1.1558 -0.5669  0.3520
  159SAPE  H20R17818   5.323   5.751   8.832 -2.2138 -1.9732  3.0115
  159SAPE  H20S17819   5.463   5.660   8.884  0.9175 -0.3614  0.7154
  159SAPE  H20T17820   5.302   5.576   8.877 -0.4416  0.2296 -0.5408
  159SAPE   C3317821   5.773   5.496   6.863  0.2458 -0.0470  0.8046
  159SAPE   H3X17822   5.664   5.514   6.867 -0.3452 -1.1620 -3.9813
  159SAPE   H3Y17823   5.816   5.576   6.799  0.4076 -1.2246 -0.6078
  159SAPE   C3417824   5.844   5.513   7.001 -0.2053  0.3585  0.5207
  159SAPE   H4X17825   5.801   5.603   7.050 -1.9475 -1.6223  2.9406
  159SAPE   H4Y17826   5.951   5.523   6.977  0.5273 -2.8072  1.8659
  159SAPE   C3517827   5.826   5.402   7.098  0.5684  0.6883 -0.5548
  159SAPE   H5X17828   5.831   5.303   7.046  2.5452  0.7000 -0.4586
  159SAPE   H5Y17829   5.726   5.414   7.146  0.6781 -1.9942  0.5446
  159SAPE   C3617830   5.933   5.413   7.209  0.4196 -0.3565 -0.2891
  159SAPE   H6X17831   5.959   5.520   7.226 -2.1369  0.1509  0.8300
  159SAPE   H6Y17832   6.033   5.375   7.177  1.5722  1.4364  0.9396
  159SAPE   C3717833   5.903   5.335   7.339 -0.0766 -0.0172 -0.1747
  159SAPE   H7X17834   6.004   5.326   7.386 -0.0761 -0.1744 -0.2062
  159SAPE   H7Y17835   5.874   5.229   7.324 -0.6847 -0.1342  1.5896
  159SAPE   C3817836   5.802   5.404   7.423 -0.0088 -0.2198  0.6803
  159SAPE   H8X17837   5.700   5.397   7.379  0.0360 -3.7381  0.8600
  159SAPE   H8Y17838   5.841   5.508   7.429  0.0894 -0.2513  0.5769
  159SAPE   C3917839   5.792   5.353   7.570 -0.3984  0.1056 -0.8245
  159SAPE   H9X17840   5.736   5.257   7.575 -1.9335  1.0199  1.2613
  159SAPE   H9Y17841   5.724   5.424   7.623  0.7829 -0.6914  1.9139
  159SAPE  C31017842   5.922   5.345   7.648 -0.3403  0.4908  0.4340
  159SAPE  H10X17843   5.975   5.443   7.648 -1.5764  1.2138 -1.0353
  159SAPE  H10Y17844   5.979   5.270   7.589 -0.4035  0.5947  0.2387
  159SAPE  C31117845   5.917   5.287   7.786 -1.0569 -0.9087 -0.7231
  159SAPE  H11X17846   6.001   5.215   7.795 -0.0775  0.3910  1.1214
  159SAPE  H11Y17847   5.828   5.224   7.806 -0.2709 -1.9633 -0.4559
  159SAPE  C31217848   5.933   5.398   7.893  0.3328  0.1401 -0.3161
  159SAPE  H12X17849   5.853   5.474   7.879  0.2958  0.1151 -0.2417
  159SAPE  H12Y17850   6.032   5.445   7.873  0.9346 -1.8879 -2.5445
  159SAPE  C31317851   5.921   5.354   8.036 -0.5550  0.8727 -0.5990
  159SAPE  H13X17852   5.950   5.440   8.100  0.2715  0.0461  0.1764
  159SAPE  H13Y17853   5.992   5.269   8.046  0.3683  1.2531 -3.2538
  159SAPE  C31417854   5.790   5.299   8.081  0.5022 -0.6994  0.3436
  159SAPE  H14X17855   5.778   5.199   8.033  3.3852 -1.8265  1.6836
  159SAPE  H14Y17856   5.699   5.361   8.070  0.3532 -0.7931  1.0161
  159SAPE  C31517857   5.795   5.252   8.230  0.0844 -0.1884  0.1900
  159SAPE  H15X17858   5.899   5.213   8.238  0.2204 -0.1328 -1.0659
  159SAPE  H15Y17859   5.725   5.166   8.234  2.3924 -2.2189 -0.7113
  159SAPE  C31617860   5.769   5.355   8.336 -0.5461 -0.2133  0.0844
  159SAPE  H16X17861   5.664   5.391   8.325 -0.3610  0.5014  0.5593
  159SAPE  H16Y17862   5.825   5.450   8.319  0.7442 -0.8441  0.6629
  159SAPE  C31717863   5.805   5.307   8.472  0.3730 -0.3522 -0.4505
  159SAPE  H17X17864   5.764   5.206   8.493  0.4028 -0.2615  0.0623
  159SAPE  H17Y17865   5.754   5.380   8.539  2.2723  0.0820  0.6025
  159SAPE  C31817866   5.951   5.327   8.498  0.4891 -0.0800  0.6611
  159SAPE  H18X17867   6.014   5.269   8.428  1.7289  1.9562 -0.0068
  159SAPE  H18Y17868   5.981   5.281   8.595 -1.1971 -0.4437  1.0442
  159SAPE  H18Z17869   5.984   5.433   8.502  0.3788  0.0085 -0.6170
  160SAPE     N17870   4.037   4.187   6.492  0.0890 -0.1051  0.0409
  160SAPE   HN117871   3.978   4.271   6.475  0.6378  0.4436  0.7633
  160SAPE   HN217872   4.076   4.142   6.407 -0.4265 -0.6413  0.0835
  160SAPE   HN317873   3.986   4.103   6.525  0.1800 -0.2320 -0.1409
  160SAPE   C1217874   4.142   4.214   6.594  0.0456 -0.4025 -0.2554
  160SAPE  H12A17875   4.226   4.250   6.531 -1.2963  0.4687 -1.6336
  160SAPE  H12B17876   4.168   4.117   6.640  0.6104 -0.4747 -0.7227
  160SAPE   C1117877   4.114   4.321   6.696 -0.1129 -0.7017  0.5112
  160SAPE  H11A17878   4.199   4.312   6.767  1.1387 -3.0449 -1.1811
  160SAPE  H11B17879   4.022   4.303   6.757 -1.6989  2.9381 -0.4918
  160SAPE     P17880   3.977   4.525   6.576 -0.0080  0.4517  0.2195
  160SAPE   O1317881   4.002   4.658   6.523 -0.0025  0.4266  0.3761
  160SAPE   O1417882   3.915   4.432   6.483 -0.8779  0.1712 -0.0404
  160SAPE   O1217883   4.104   4.451   6.626 -0.0633 -0.5041 -0.4012
  160SAPE   O1117884   3.884   4.529   6.702  0.0495 -0.3071  0.8046
  160SAPE    C117885   3.903   4.622   6.815  0.2634 -0.2865  0.1745
  160SAPE    HA17886   3.957   4.713   6.782  1.4935 -1.3020 -0.6954
  160SAPE    HB17887   3.801   4.652   6.849 -0.2752  0.5952 -2.0251
  160SAPE    C217888   3.979   4.560   6.936 -0.7128  0.0231 -0.0445
  160SAPE    HS17889   4.065   4.503   6.895 -0.2048 -1.7094  3.0684
  160SAPE   O2117890   3.893   4.464   6.994 -0.5889  0.4039  0.0151
  160SAPE   C2117891   3.947   4.360   7.052  0.3716  0.6932 -0.0444
  160SAPE   O2217892   4.053   4.307   7.040 -0.3000 -0.5259 -0.1774
  160SAPE   C2217893   3.824   4.299   7.122 -0.2870  0.1888 -0.3093
  160SAPE   H2R17894   3.745   4.284   7.045 -0.8669  1.2630  0.0514
  160SAPE   H2S17895   3.853   4.194   7.147  2.1380  1.0003  0.6071
  160SAPE    C317896   4.029   4.665   7.036  0.3969  0.0580  1.3081
  160SAPE    HX17897   3.935   4.713   7.072 -1.2391 -2.7228  1.0164
  160SAPE    HY17898   4.089   4.747   6.992  0.8854 -1.2196 -0.5347
  160SAPE   O3117899   4.074   4.619   7.162  0.0499  0.3013  0.3262
  160SAPE   C3117900   4.209   4.604   7.168 -0.0028  0.5944 -0.5619
  160SAPE   O3217901   4.287   4.633   7.083 -0.0575 -0.0390  0.1988
  160SAPE   C3217902   4.239   4.556   7.306  0.4201  0.2136 -0.1287
  160SAPE   H2X17903   4.245   4.633   7.385  0.3045 -1.0562  1.1583
  160SAPE   H2Y17904   4.343   4.516   7.305  1.3092  2.3827  0.8796
  160SAPE   C2317905   3.766   4.389   7.231  0.6414 -0.3026 -0.1393
  160SAPE   H3R17906   3.742   4.492   7.195 -0.3534 -0.2032  0.7515
  160SAPE   H3S17907   3.828   4.398   7.322 -0.1435 -2.7360  0.7017
  160SAPE   C2417908   3.622   4.337   7.279 -0.0413  0.0993 -0.3386
  160SAPE   H4R17909   3.567   4.295   7.192 -0.8661 -0.2297  0.3320
  160SAPE   H4S17910   3.565   4.422   7.322 -1.8476 -0.4026 -1.6299
  160SAPE   C2517911   3.636   4.234   7.382 -0.5488 -0.5075  0.2689
  160SAPE   H5R17912   3.668   4.135   7.347 -1.1199 -0.2128 -1.1531
  160SAPE   C2617913   3.615   4.248   7.515 -0.0278  0.1405  0.8011
  160SAPE   H6R17914   3.620   4.157   7.575  2.3915  0.2934  0.9250
  160SAPE   C2717915   3.573   4.369   7.592 -0.5403 -0.5900 -0.2896
  160SAPE   H7R17916   3.526   4.336   7.687  0.1042  1.2279  0.7085
  160SAPE   H7S17917   3.498   4.419   7.528  1.0075 -1.8337 -3.2903
  160SAPE   C2817918   3.679   4.474   7.630  1.2902 -0.2097  0.0718
  160SAPE   H8R17919   3.757   4.503   7.557  0.3417  0.6659 -0.6243
  160SAPE   C2917920   3.683   4.543   7.744 -0.1297 -0.0063 -0.8156
  160SAPE   H9R17921   3.772   4.602   7.772 -1.8187  1.3802  2.0150
  160SAPE  C21017922   3.588   4.546   7.863 -0.1601 -0.7904  0.0308
  160SAPE  H10R17923   3.638   4.495   7.947  0.4952  0.2460  0.2983
  160SAPE  H10S17924   3.488   4.502   7.843 -0.2635 -0.7139  0.3706
  160SAPE  C21117925   3.573   4.686   7.911 -0.6558 -0.5049  0.4945
  160SAPE  H11R17926   3.488   4.744   7.872  0.5620  2.1801  1.5521
  160SAPE  C21217927   3.643   4.754   8.010  0.0606  0.3521  0.5447
  160SAPE  H12R17928   3.610   4.856   8.031  1.4088  1.3773 -1.9314
  160SAPE  C21317929   3.750   4.700   8.100  0.2152 -0.5312  0.4107
  160SAPE  H13R17930   3.823   4.782   8.118 -0.0477  0.0738 -1.1473
  160SAPE  H13S17931   3.809   4.615   8.060 -0.4329 -1.5664  1.5802
  160SAPE  C21417932   3.686   4.658   8.223  0.1886 -0.0316  0.0616
  160SAPE  H14R17933   3.602   4.588   8.207  1.4910 -2.2029  2.0555
  160SAPE  C21517934   3.722   4.674   8.353  0.4705 -0.1582  0.0369
  160SAPE  H15R17935   3.657   4.628   8.429 -0.6503 -1.3942 -1.5740
  160SAPE  C21617936   3.839   4.741   8.403 -0.0242 -0.4668 -0.4915
  160SAPE  H16R17937   3.793   4.828   8.457  1.1061 -1.2119  1.8020
  160SAPE  H16S17938   3.889   4.779   8.312 -0.1571 -0.0692 -0.4022
  160SAPE  C21717939   3.933   4.647   8.487 -0.0177  0.1221 -0.3044
  160SAPE  H17R17940   3.976   4.568   8.422  0.9978  1.0992 -0.8456
  160SAPE  H17S17941   3.883   4.600   8.574  1.3345  0.9319  0.9585
  160SAPE  C21817942   4.043   4.739   8.534 -0.3490  0.2860  0.1493
  160SAPE  H18R17943   4.007   4.811   8.611  0.1988  1.3387 -0.5503
  160SAPE  H18S17944   4.093   4.792   8.450  0.8652 -3.2065 -1.5095
  160SAPE  C21917945   4.163   4.649   8.583  0.3503  0.3152  0.7378
  160SAPE  H19R17946   4.253   4.713   8.582  1.7875 -1.5817 -1.5351
  160SAPE  H19S17947   4.176   4.573   8.502  0.5126  1.5863 -0.4626
  160SAPE  C22017948   4.141   4.577   8.713  0.5452  0.3325 -0.0039
  160SAPE  H20R17949   4.234   4.526   8.744  0.3059 -0.8923 -1.2133
  160SAPE  H20S17950   4.065   4.497   8.705 -0.5410  0.8833  3.3398
  160SAPE  H20T17951   4.115   4.655   8.788  1.3743  0.2463  0.3816
  160SAPE   C3317952   4.130   4.464   7.360  0.6744 -0.0294 -0.2398
  160SAPE   H3X17953   4.109   4.384   7.286 -0.1584  1.2657 -1.4509
  160SAPE   H3Y17954   4.032   4.515   7.372 -0.4649 -2.3519  1.1216
  160SAPE   C3417955   4.155   4.394   7.492 -0.2414 -0.0249  0.0202
  160SAPE   H4X17956   4.196   4.465   7.567  1.6591 -1.7737  0.7158
  160SAPE   H4Y17957   4.238   4.321   7.479  0.8699  1.6372 -3.6825
  160SAPE   C3517958   4.023   4.345   7.546 -0.6097 -0.6249 -0.2400
  160SAPE   H5X17959   3.975   4.268   7.482  1.8055 -0.9055 -1.8411
  160SAPE   H5Y17960   3.961   4.437   7.544 -0.0660 -0.2637 -0.7680
  160SAPE   C3617961   4.047   4.284   7.682 -0.0350 -0.2347  0.3483
  160SAPE   H6X17962   4.096   4.362   7.744 -0.8463  0.1185  0.5521
  160SAPE   H6Y17963   4.103   4.188   7.677  0.9471  0.3737 -1.9612
  160SAPE   C3717964   3.924   4.242   7.762  0.2005 -0.2918  0.1439
  160SAPE   H7X17965   3.859   4.176   7.701 -2.9283  2.6154  0.0985
  160SAPE   H7Y17966   3.867   4.335   7.784 -0.3065 -0.5918  0.0996
  160SAPE   C3817967   3.949   4.200   7.907 -0.1726 -0.1098  0.8741
  160SAPE   H8X17968   3.856   4.210   7.966 -1.1421  1.8897 -0.9124
  160SAPE   H8Y17969   4.032   4.261   7.950  0.1577  0.2144 -0.1830
  160SAPE   C3917970   3.990   4.056   7.911 -0.2608  0.5472 -0.6708
  160SAPE   H9X17971   4.083   4.030   7.858  0.5351 -2.3530  1.8177
  160SAPE   H9Y17972   3.912   4.007   7.848  0.6670 -3.4941  0.9861
  160SAPE  C31017973   3.984   3.988   8.046  0.2982  0.1059 -0.0095
  160SAPE  H10X17974   4.019   4.048   8.133 -1.7162  0.0682  0.8629
  160SAPE  H10Y17975   4.050   3.898   8.043  1.2948  0.8153 -0.1213
  160SAPE  C31117976   3.839   3.937   8.071  0.4104  0.3677 -0.0184
  160SAPE  H11X17977   3.808   3.852   8.007  0.5662  0.7144 -0.5628
  160SAPE  H11Y17978   3.778   4.026   8.044 -0.3489 -0.2216 -0.2774
  160SAPE  C31217979   3.809   3.895   8.218  0.2880  0.0366  0.3103
  160SAPE  H12X17980   3.705   3.922   8.244 -0.0774 -1.3064  0.2834
  160SAPE  H12Y17981   3.876   3.955   8.284 -0.2099  0.4715  0.4238
  160SAPE  C31317982   3.836   3.750   8.245  0.0047  0.1820 -0.5903
  160SAPE  H13X17983   3.938   3.712   8.223  0.0619 -1.6585  2.2549
  160SAPE  H13Y17984   3.772   3.686   8.181 -0.2861 -0.6618  0.5163
  160SAPE  C31417985   3.818   3.702   8.386  0.0953 -0.0385 -0.3982
  160SAPE  H14X17986   3.709   3.707   8.406 -0.0040 -2.3692 -0.1605
  160SAPE  H14Y17987   3.873   3.772   8.452  1.8752 -0.1746 -1.6402
  160SAPE  C31517988   3.854   3.551   8.402 -0.8361  0.1032 -0.0451
  160SAPE  H15X17989   3.831   3.491   8.312 -1.7739  0.9489 -0.3998
  160SAPE  H15Y17990   3.793   3.511   8.486 -0.5983 -3.1195 -1.2834
  160SAPE  C31617991   4.008   3.538   8.434  0.3756 -0.1359 -0.2976
  160SAPE  H16X17992   4.025   3.576   8.537 -0.1979 -0.0730 -0.2274
  160SAPE  H16Y17993   4.070   3.594   8.360 -1.3161 -0.3354 -1.9398
  160SAPE  C31717994   4.055   3.392   8.436 -0.5036 -0.0755 -0.0621
  160SAPE  H17X17995   4.010   3.342   8.347  0.6918 -1.6655  0.1713
  160SAPE  H17Y17996   4.009   3.338   8.522 -1.2527 -1.1120 -1.0739
  160SAPE  C31817997   4.208   3.381   8.439  0.0167 -0.4687  0.7715
  160SAPE  H18X17998   4.254   3.468   8.388  1.2221 -0.8636  1.1459
  160SAPE  H18Y17999   4.243   3.290   8.386 -0.6500 -0.1166 -0.3017
  160SAPE  H18Z18000   4.244   3.371   8.544  0.1234  0.3041  0.8182
  161SAPE     N18001   0.583   1.152   6.131  0.0934 -0.0744 -0.1097
  161SAPE   HN118002   0.540   1.161   6.036  0.0923 -0.2685 -0.1268
  161SAPE   HN218003   0.607   1.250   6.156  1.0672 -0.1981 -0.5191
  161SAPE   HN318004   0.665   1.089   6.120  0.0069  0.1740 -3.2018
  161SAPE   C1218005   0.489   1.112   6.239 -0.0684  1.3385 -0.1977
  161SAPE  H12A18006   0.546   1.082   6.331 -1.3283 -0.8678 -0.0682
  161SAPE  H12B18007   0.432   1.023   6.206  0.6736  1.3365 -1.5225
  161SAPE   C1118008   0.394   1.221   6.281 -0.6826  0.7650 -0.4433
  161SAPE  H11A18009   0.355   1.274   6.192 -0.5509  1.5052 -0.0737
  161SAPE  H11B18010   0.459   1.287   6.342 -0.3076  0.0501 -0.0505
  161SAPE     P18011   0.195   1.273   6.434 -0.6637  0.2286 -0.0911
  161SAPE   O1318012   0.148   1.384   6.350 -0.4720  0.3417 -0.8034
  161SAPE   O1418013   0.098   1.191   6.510  0.0212 -0.4336 -0.4863
  161SAPE   O1218014   0.283   1.178   6.356 -0.0443  0.8942  0.9209
  161SAPE   O1118015   0.301   1.331   6.538 -0.3472 -0.6802  0.0506
  161SAPE    C118016   0.398   1.262   6.611 -0.4883  0.6216  0.0492
  161SAPE    HA18017   0.390   1.152   6.600 -0.3610  0.6242 -0.0808
  161SAPE    HB18018   0.496   1.298   6.572 -0.7209  2.0019  0.6858
  161SAPE    C218019   0.389   1.272   6.765  0.2185  0.5154  0.2373
  161SAPE    HS18020   0.480   1.227   6.810  0.4218 -0.2001 -0.8618
  161SAPE   O2118021   0.274   1.206   6.814  0.1735 -0.1807  0.2872
  161SAPE   C2118022   0.286   1.076   6.834 -0.2294  0.0007  1.0324
  161SAPE   O2218023   0.391   1.017   6.828  0.5291  0.7044  0.1181
  161SAPE   C2218024   0.166   1.028   6.913 -0.6025 -0.5780  0.0090
  161SAPE   H2R18025   0.167   1.076   7.013  1.1565 -0.4667 -0.0267
  161SAPE   H2S18026   0.076   1.042   6.850 -0.2682 -3.1214 -1.1652
  161SAPE    C318027   0.388   1.417   6.815  0.0443 -0.1154  0.2239
  161SAPE    HX18028   0.307   1.474   6.766  1.3679 -0.7560 -2.9744
  161SAPE    HY18029   0.485   1.457   6.779 -0.0862 -1.4636 -1.8581
  161SAPE   O3118030   0.393   1.419   6.955 -0.4625  0.0387 -0.4643
  161SAPE   C3118031   0.283   1.448   7.022  0.5233  0.2477 -0.7026
  161SAPE   O3218032   0.175   1.471   6.976 -0.0515  0.4183 -0.5304
  161SAPE   C3218033   0.311   1.442   7.174  0.1822  0.2427  0.0670
  161SAPE   H2X18034   0.400   1.506   7.190  0.5907 -0.1914 -0.4691
  161SAPE   H2Y18035   0.334   1.335   7.192 -0.5719 -0.4221 -2.5827
  161SAPE   C2318036   0.182   0.884   6.953  0.1921 -0.0512 -0.0590
  161SAPE   H3R18037   0.269   0.868   7.021  0.2402 -0.9159 -0.3141
  161SAPE   H3S18038   0.203   0.823   6.862  0.1840 -0.8664  0.4702
  161SAPE   C2418039   0.049   0.839   7.022 -0.5742 -0.2051 -0.1285
  161SAPE   H4R18040  -0.038   0.855   6.954  0.2178  0.4042 -1.0337
  161SAPE   H4S18041   0.033   0.895   7.117 -0.0476 -2.0517  1.0899
  161SAPE   C2518042   0.057   0.695   7.061 -0.2211  0.3147  0.3610
  161SAPE   H5R18043   0.075   0.631   6.973 -1.6498  0.4489 -0.0701
  161SAPE   C2618044   0.044   0.638   7.181  0.2438  0.4122  0.0991
  161SAPE   H6R18045   0.057   0.529   7.182  1.3105  0.5276 -0.0232
  161SAPE   C2718046   0.007   0.705   7.310  0.6420  0.4991  0.0506
  161SAPE   H7R18047  -0.104   0.698   7.321  0.5039 -2.0871 -2.1433
  161SAPE   H7S18048   0.033   0.812   7.294 -0.6848  0.8772  0.3072
  161SAPE   C2818049   0.085   0.638   7.421  0.3098  0.1318  0.0446
  161SAPE   H8R18050   0.189   0.606   7.404  0.9345  0.9525  1.9811
  161SAPE   C2918051   0.044   0.628   7.552  0.5343 -0.3538  0.4430
  161SAPE   H9R18052   0.111   0.568   7.615 -1.3373 -0.2931  2.6014
  161SAPE  C21018053  -0.075   0.672   7.615  0.4555  0.6626 -0.5575
  161SAPE  H10R18054  -0.157   0.687   7.542  0.8417 -0.1798 -1.1751
  161SAPE  H10S18055  -0.052   0.765   7.671  2.6346  0.2088 -0.6120
  161SAPE  C21118056  -0.113   0.568   7.716 -0.5657  0.2498 -0.1329
  161SAPE  H11R18057  -0.175   0.486   7.680 -2.2907  2.0986 -1.5908
  161SAPE  C21218058  -0.056   0.557   7.836 -0.3497  0.1133 -1.0797
  161SAPE  H12R18059  -0.097   0.474   7.895  0.2552  0.3479 -0.3048
  161SAPE  C21318060   0.049   0.643   7.905 -0.4419  0.6878 -0.1951
  161SAPE  H13R18061   0.137   0.692   7.858 -1.1378  0.1191 -2.1915
  161SAPE  H13S18062   0.090   0.583   7.989  2.0302  0.8724 -1.1698
  161SAPE  C21418063  -0.033   0.756   7.968 -0.6229 -0.3774 -0.4449
  161SAPE  H14R18064  -0.088   0.816   7.894 -1.5748 -0.6916 -0.0076
  161SAPE  C21518065  -0.026   0.791   8.093  0.0039  0.5962  0.6191
  161SAPE  H15R18066  -0.087   0.879   8.119 -1.3399 -0.4853  1.1874
  161SAPE  C21618067   0.049   0.721   8.200 -0.0315 -0.2291  0.2954
  161SAPE  H16R18068   0.025   0.612   8.202  0.4352 -0.3618 -0.6693
  161SAPE  H16S18069   0.023   0.767   8.298  2.6864  0.9245  0.5514
  161SAPE  C21718070   0.204   0.735   8.180 -0.3015  0.9321 -0.1089
  161SAPE  H17R18071   0.228   0.844   8.190 -0.7616  1.2079 -1.7526
  161SAPE  H17S18072   0.245   0.714   8.079  1.2504  2.9834 -0.0014
  161SAPE  C21818073   0.295   0.665   8.277 -0.5929  0.1117 -0.3345
  161SAPE  H18R18074   0.399   0.665   8.238 -0.2397  1.2801  0.5657
  161SAPE  H18S18075   0.257   0.562   8.295 -3.5356  1.1978  0.0535
  161SAPE  C21918076   0.314   0.735   8.410  0.9465 -0.0731 -0.1467
  161SAPE  H19R18077   0.217   0.747   8.462  0.6801  0.0953 -0.6648
  161SAPE  H19S18078   0.351   0.838   8.387  0.0828 -0.1662 -2.2328
  161SAPE  C22018079   0.405   0.659   8.511  0.5514  0.5183  0.4511
  161SAPE  H20R18080   0.357   0.565   8.546  0.9609  0.3164  0.4759
  161SAPE  H20S18081   0.414   0.712   8.609 -0.6353 -1.0732  1.4710
  161SAPE  H20T18082   0.506   0.644   8.468 -0.2218  1.1473 -1.6960
  161SAPE   C3318083   0.192   1.491   7.262 -0.1558 -0.0619  0.2901
  161SAPE   H3X18084   0.095   1.438   7.250 -0.1621 -0.1770  0.8425
  161SAPE   H3Y18085   0.170   1.596   7.235  1.1055  0.1431 -0.0445
  161SAPE   C3418086   0.233   1.478   7.409  0.0478 -0.0733 -0.1070
  161SAPE   H4X18087   0.331   1.527   7.392 -0.3245  0.7788  0.1549
  161SAPE   H4Y18088   0.256   1.371   7.426  0.4721 -0.1678 -1.1834
  161SAPE   C3518089   0.152   1.547   7.508  0.2254 -0.8424  0.2446
  161SAPE   H5X18090   0.052   1.500   7.510 -0.4102  0.4038 -0.5418
  161SAPE   H5Y18091   0.133   1.651   7.472 -1.7838 -1.5725 -0.9657
  161SAPE   C3618092   0.210   1.564   7.650  0.1401  0.5233  0.0509
  161SAPE   H6X18093   0.306   1.620   7.654 -0.5564  2.0021 -2.0026
  161SAPE   H6Y18094   0.218   1.454   7.667 -0.9988  0.3215 -0.6209
  161SAPE   C3718095   0.103   1.625   7.743  0.5622 -0.3005 -0.2097
  161SAPE   H7X18096   0.002   1.579   7.735  1.0069 -1.2086 -0.7020
  161SAPE   H7Y18097   0.102   1.732   7.716 -1.6099  0.6488  2.9824
  161SAPE   C3818098   0.159   1.616   7.886  1.0778  0.0532 -0.1005
  161SAPE   H8X18099   0.246   1.684   7.893  1.4787 -0.4501 -0.0894
  161SAPE   H8Y18100   0.190   1.513   7.915 -1.0524 -0.7558 -0.4920
  161SAPE   C3918101   0.049   1.665   7.979  0.1076 -0.0910  0.2003
  161SAPE   H9X18102  -0.031   1.589   7.986 -1.0452  1.2411  2.6105
  161SAPE   H9Y18103  -0.004   1.755   7.943  0.3685  0.7695  1.8736
  161SAPE  C31018104   0.097   1.695   8.120  1.0178  0.2799 -1.0828
  161SAPE  H10X18105   0.171   1.777   8.120  0.8492  0.4613  0.6456
  161SAPE  H10Y18106   0.148   1.605   8.159 -0.6853 -0.3694 -0.2475
  161SAPE  C31118107  -0.015   1.711   8.222  0.3603 -0.0874 -0.3305
  161SAPE  H11X18108  -0.082   1.623   8.215  0.3791 -0.0872 -0.5236
  161SAPE  H11Y18109  -0.064   1.806   8.192  1.8734  1.3784  1.5666
  161SAPE  C31218110   0.044   1.712   8.364  0.2490 -0.7075  0.1824
  161SAPE  H12X18111  -0.016   1.792   8.413 -1.3790 -1.9013  0.2254
  161SAPE  H12Y18112   0.149   1.748   8.371 -0.1161  0.6766 -0.9665
  161SAPE  C31318113   0.029   1.581   8.443 -0.2398  0.2164  0.2395
  161SAPE  H13X18114   0.083   1.498   8.393  1.4940  1.2526  0.2959
  161SAPE  H13Y18115  -0.075   1.544   8.457  0.0781 -1.2881 -1.0400
  161SAPE  C31418116   0.083   1.608   8.582  0.6414  0.5647 -0.5095
  161SAPE  H14X18117   0.017   1.689   8.620  0.5818  0.2115  0.1516
  161SAPE  H14Y18118   0.185   1.649   8.567  1.5140 -1.3840 -0.2029
  161SAPE  C31518119   0.084   1.492   8.673 -1.0752  0.1494 -0.3442
  161SAPE  H15X18120   0.162   1.422   8.635 -1.8999 -1.1765  0.2938
  161SAPE  H15Y18121  -0.009   1.432   8.667  0.0287 -1.8586  1.0954
  161SAPE  C31618122   0.114   1.533   8.816 -0.3139 -0.1359 -0.3768
  161SAPE  H16X18123   0.038   1.601   8.861  0.3850 -0.1335  0.8214
  161SAPE  H16Y18124   0.216   1.577   8.813  1.3893 -3.6094  1.0400
  161SAPE  C31718125   0.121   1.405   8.908  0.0867  0.4662 -0.4806
  161SAPE  H17X18126   0.125   1.463   9.003 -0.3759  0.2494 -0.3264
  161SAPE  H17Y18127   0.220   1.356   8.898 -0.0655  0.1230 -0.3103
  161SAPE  C31818128   0.005   1.310   8.903  1.1945  0.2496  0.2740
  161SAPE  H18X18129  -0.010   1.268   8.802  1.4078 -0.4458  0.5259
  161SAPE  H18Y18130  -0.090   1.346   8.947  1.6402 -0.9749  2.4040
  161SAPE  H18Z18131   0.039   1.217   8.954  0.6957 -1.0673 -1.6749
  162SAPE     N18132   6.399   6.530   6.060 -0.3021  0.0855  0.4622
  162SAPE   HN118133   6.402   6.430   6.087  1.8026 -0.4187 -1.4017
  162SAPE   HN218134   6.436   6.531   5.963 -2.7229 -1.6089 -0.5735
  162SAPE   HN318135   6.448   6.581   6.136 -1.3229 -1.1048  1.9907
  162SAPE   C1218136   6.261   6.568   6.032  0.5843 -0.2756 -0.2803
  162SAPE  H12A18137   6.199   6.586   6.123 -1.3162  0.2680 -1.6374
  162SAPE  H12B18138   6.217   6.484   5.976  0.1884 -0.8834  0.9050
  162SAPE   C1118139   6.265   6.703   5.961 -0.4696 -0.4667 -0.5409
  162SAPE  H11A18140   6.161   6.734   5.937 -0.1938  0.5088 -0.5250
  162SAPE  H11B18141   6.320   6.685   5.866  1.9623 -0.3981  0.7944
  162SAPE     P18142   6.290   6.898   6.151 -0.3592 -0.4327 -0.1696
  162SAPE   O1318143   6.402   6.944   6.238  0.2647 -0.1094  0.1222
  162SAPE   O1418144   6.213   7.009   6.092 -0.6695  0.6918 -1.0054
  162SAPE   O1218145   6.339   6.809   6.030  0.4991  1.0987 -0.2326
  162SAPE   O1118146   6.202   6.795   6.236  0.0714 -0.1912  0.6828
  162SAPE    C118147   6.082   6.818   6.304 -0.0996 -0.0692  0.7303
  162SAPE    HA18148   6.058   6.926   6.312  1.0279  0.3261 -0.7010
  162SAPE    HB18149   5.997   6.768   6.253 -0.2464 -0.8104  1.6782
  162SAPE    C218150   6.084   6.743   6.436 -0.1521 -0.6548  0.7046
  162SAPE    HS18151   6.009   6.793   6.501  0.1856 -0.6582  1.1043
  162SAPE   O2118152   6.207   6.743   6.499 -0.6392  0.5164  0.0179
  162SAPE   C2118153   6.245   6.859   6.544  0.0708 -0.7147 -0.4488
  162SAPE   O2218154   6.192   6.969   6.530  0.1550 -0.7082  0.3516
  162SAPE   C2218155   6.375   6.840   6.633  0.2308 -0.6198  0.2274
  162SAPE   H2R18156   6.412   6.736   6.620  0.9688 -0.0708 -2.5745
  162SAPE   H2S18157   6.455   6.901   6.587 -0.0603 -1.4224 -1.4012
  162SAPE    C318158   6.041   6.591   6.415  0.2236  0.2410  0.5126
  162SAPE    HX18159   6.122   6.540   6.359  0.5827  1.6199 -0.2502
  162SAPE    HY18160   5.950   6.598   6.352  1.2863  0.6071 -1.0154
  162SAPE   O3118161   6.008   6.527   6.540 -0.0675  0.1164  0.3755
  162SAPE   C3118162   6.095   6.437   6.582 -0.2142 -0.3568  0.0550
  162SAPE   O3218163   6.202   6.408   6.530  0.3126 -0.2075 -0.7091
  162SAPE   C3218164   6.044   6.364   6.703 -1.0232  0.4597 -1.0146
  162SAPE   H2X18165   6.077   6.258   6.694  0.4826  0.8144 -0.0032
  162SAPE   H2Y18166   5.933   6.365   6.693 -1.0253  1.1169 -0.9856
  162SAPE   C2318167   6.363   6.894   6.786  0.2388  0.6172  0.6629
  162SAPE   H3R18168   6.282   6.842   6.841  1.2936  0.1152  1.7868
  162SAPE   H3S18169   6.337   7.002   6.792 -2.4975  0.2522 -2.1763
  162SAPE   C2418170   6.492   6.863   6.863 -0.7255  0.5804 -0.3235
  162SAPE   H4R18171   6.482   6.877   6.973  0.7903 -2.8794  0.3914
  162SAPE   H4S18172   6.575   6.927   6.827  0.5415 -1.0813 -0.4796
  162SAPE   C2518173   6.521   6.715   6.865  0.2957 -0.2888  0.8717
  162SAPE   H5R18174   6.561   6.690   6.765 -1.8501 -1.0466  0.1613
  162SAPE   C2618175   6.499   6.622   6.963 -0.4489 -0.3457 -0.1018
  162SAPE   H6R18176   6.523   6.516   6.945  0.6983 -0.4979  1.9878
  162SAPE   C2718177   6.442   6.642   7.104 -0.6413 -0.0689  0.1458
  162SAPE   H7R18178   6.361   6.570   7.130  0.7675 -2.1649 -0.9973
  162SAPE   H7S18179   6.375   6.731   7.101 -1.7734 -0.9185 -0.6149
  162SAPE   C2818180   6.534   6.667   7.218 -0.7248 -0.1249  0.3363
  162SAPE   H8R18181   6.628   6.712   7.182  0.0071 -0.6032  1.5993
  162SAPE   C2918182   6.512   6.646   7.349 -0.7088 -0.1344  0.4499
  162SAPE   H9R18183   6.594   6.676   7.415 -0.3997  3.2646 -1.2449
  162SAPE  C21018184   6.394   6.599   7.419 -0.9537  0.7280  0.9539
  162SAPE  H10R18185   6.406   6.496   7.458 -1.3604  1.3737  2.9309
  162SAPE  H10S18186   6.307   6.599   7.350  0.2665 -0.6391 -0.6609
  162SAPE  C21118187   6.361   6.681   7.542  0.0520 -0.4742  0.5160
  162SAPE  H11R18188   6.281   6.754   7.523  1.2122  0.7399  0.0524
  162SAPE  C21218189   6.416   6.664   7.658  0.1114  0.5586 -0.2479
  162SAPE  H12R18190   6.392   6.726   7.746  0.9735  1.4719 -0.6400
  162SAPE  C21318191   6.530   6.570   7.686 -0.0294 -0.1644  0.9946
  162SAPE  H13R18192   6.622   6.625   7.716  0.9233  0.3912 -2.4740
  162SAPE  H13S18193   6.572   6.515   7.599  0.5938 -2.5515  2.7078
  162SAPE  C21418194   6.493   6.463   7.782 -0.8678 -0.0396 -0.4560
  162SAPE  H14R18195   6.462   6.371   7.730 -2.2040  1.4463 -2.4710
  162SAPE  C21518196   6.496   6.457   7.917 -0.8448 -0.3406 -0.0935
  162SAPE  H15R18197   6.485   6.365   7.976  1.2713  0.7590  2.1745
  162SAPE  C21618198   6.546   6.571   8.006 -0.4237 -0.0184  0.0089
  162SAPE  H16R18199   6.462   6.607   8.070  0.9393 -0.2699  2.0248
  162SAPE  H16S18200   6.586   6.655   7.946  0.7571  0.9179  2.0374
  162SAPE  C21718201   6.653   6.520   8.107 -0.6679  0.3770  0.7002
  162SAPE  H17R18202   6.625   6.422   8.151 -1.9119  0.7931  0.8937
  162SAPE  H17S18203   6.666   6.579   8.200  0.7335 -1.2657  1.5876
  162SAPE  C21818204   6.802   6.497   8.049 -0.0655  0.5645 -0.3494
  162SAPE  H18R18205   6.848   6.593   8.017  1.6686  0.4342  1.5527
  162SAPE  H18S18206   6.789   6.438   7.956 -1.0417 -0.7008  0.5489
  162SAPE  C21918207   6.898   6.429   8.149  0.1125 -0.1991  0.1501
  162SAPE  H19R18208   6.951   6.346   8.097 -2.4997  0.4533 -4.0932
  162SAPE  H19S18209   6.830   6.380   8.221 -0.1387 -2.8105 -1.7067
  162SAPE  C22018210   6.989   6.528   8.223 -0.0615 -0.1143 -0.4448
  162SAPE  H20R18211   6.938   6.620   8.260 -0.0340  0.1995 -1.1733
  162SAPE  H20S18212   7.073   6.552   8.154  0.8027 -0.6093  0.4112
  162SAPE  H20T18213   7.024   6.475   8.314 -1.8964  0.7469  0.8094
  162SAPE   C3318214   6.101   6.423   6.835  0.1447  0.2608 -0.1062
  162SAPE   H3X18215   6.098   6.534   6.842 -0.0828  0.2477  0.0387
  162SAPE   H3Y18216   6.210   6.408   6.822  0.5965  1.6290  1.6471
  162SAPE   C3418217   6.042   6.359   6.964  0.5498  0.4992  0.1862
  162SAPE   H4X18218   6.057   6.249   6.959 -3.0026 -0.1380  0.9288
  162SAPE   H4Y18219   5.933   6.377   6.967  0.4945  0.1336  0.4856
  162SAPE   C3518220   6.107   6.407   7.097 -1.1711 -0.8119  0.3124
  162SAPE   H5X18221   6.108   6.515   7.123 -1.9519 -0.4630 -1.0213
  162SAPE   H5Y18222   6.210   6.364   7.089 -0.9609 -0.4501  1.0152
  162SAPE   C3618223   6.048   6.337   7.216 -0.3518 -0.3228  0.1664
  162SAPE   H6X18224   6.050   6.227   7.200 -1.1039 -0.8861  3.1815
  162SAPE   H6Y18225   5.942   6.369   7.230  0.1579  1.6560 -0.1893
  162SAPE   C3718226   6.137   6.363   7.340 -0.5935  0.1834  0.5509
  162SAPE   H7X18227   6.132   6.470   7.371 -1.1593 -0.1040  1.5017
  162SAPE   H7Y18228   6.241   6.324   7.329 -1.2598 -1.2089 -1.2814
  162SAPE   C3818229   6.090   6.286   7.464 -0.9387  0.0966 -0.2104
  162SAPE   H8X18230   6.114   6.177   7.458 -2.1580 -0.2928  1.2247
  162SAPE   H8Y18231   5.979   6.288   7.460 -0.9597 -1.5260 -1.3952
  162SAPE   C3918232   6.140   6.343   7.596  0.4868 -0.4235 -0.2322
  162SAPE   H9X18233   6.103   6.447   7.606  1.2780 -0.3111  2.2433
  162SAPE   H9Y18234   6.251   6.345   7.592  0.5741  0.5576  1.6105
  162SAPE  C31018235   6.097   6.260   7.725 -0.6636 -0.8673  0.7350
  162SAPE  H10X18236   6.120   6.153   7.707 -3.3167 -1.2717 -0.8483
  162SAPE  H10Y18237   5.987   6.271   7.740 -0.7504  0.0546 -0.4472
  162SAPE  C31118238   6.155   6.316   7.850 -0.3969  0.0492  1.1129
  162SAPE  H11X18239   6.145   6.427   7.848 -0.0441  0.1171 -1.7025
  162SAPE  H11Y18240   6.264   6.297   7.851 -0.4466 -0.5104 -0.7969
  162SAPE  C31218241   6.103   6.254   7.978 -0.2305 -0.3570  0.1601
  162SAPE  H12X18242   6.129   6.147   7.972 -0.3481 -0.3784  0.0352
  162SAPE  H12Y18243   5.993   6.267   7.988 -0.6074  0.9492 -3.8365
  162SAPE  C31318244   6.173   6.315   8.098  0.9455 -0.0915 -0.4598
  162SAPE  H13X18245   6.138   6.420   8.097 -0.7568 -0.6274  0.3214
  162SAPE  H13Y18246   6.284   6.318   8.096  0.9488 -0.5258 -1.5392
  162SAPE  C31418247   6.116   6.251   8.228 -0.4296 -0.3829 -0.4009
  162SAPE  H14X18248   6.151   6.145   8.230 -0.5747 -0.5668 -3.3490
  162SAPE  H14Y18249   6.007   6.262   8.208 -0.6160  1.7165  1.4524
  162SAPE  C31518250   6.154   6.323   8.355 -0.2237 -0.0573 -0.0398
  162SAPE  H15X18251   6.170   6.430   8.330 -1.9175  0.3534  0.4618
  162SAPE  H15Y18252   6.250   6.271   8.375  0.7952  1.8493  0.2714
  162SAPE  C31618253   6.047   6.295   8.466  0.5939 -0.2040  0.5521
  162SAPE  H16X18254   6.024   6.188   8.483 -1.6020  0.0153 -0.7211
  162SAPE  H16Y18255   5.951   6.344   8.440  0.8832  1.1048  1.7753
  162SAPE  C31718256   6.092   6.344   8.597  0.0278  0.7166  0.1151
  162SAPE  H17X18257   6.142   6.441   8.577  1.5769  0.1193  0.8658
  162SAPE  H17Y18258   6.161   6.272   8.647 -1.2372 -1.6723 -1.4003
  162SAPE  C31818259   5.967   6.350   8.692  0.4888 -0.8535 -0.1776
  162SAPE  H18X18260   6.007   6.361   8.796  1.6687 -0.9799 -0.6026
  162SAPE  H18Y18261   5.898   6.265   8.676 -0.2477 -0.6218  1.5235
  162SAPE  H18Z18262   5.908   6.443   8.673  1.5203 -0.4700 -1.6686
  163SAPE     N18263   3.772   3.084   6.390 -0.2359 -0.2351 -1.0298
  163SAPE   HN118264   3.728   3.132   6.471 -0.9808 -1.3007 -0.7830
  163SAPE   HN218265   3.868   3.123   6.382 -0.4649  0.6941  0.3478
  163SAPE   HN318266   3.722   3.116   6.305  1.1408 -0.4721 -1.9541
  163SAPE   C1218267   3.780   2.929   6.408  0.2474  0.0619 -0.7835
  163SAPE  H12A18268   3.808   2.886   6.309 -1.3936 -0.1400 -1.1863
  163SAPE  H12B18269   3.679   2.895   6.440  0.5265  1.2414  1.5608
  163SAPE   C1118270   3.886   2.891   6.519 -0.4443 -0.1117  0.8804
  163SAPE  H11A18271   3.865   2.785   6.547  0.7502 -0.7104 -0.3915
  163SAPE  H11B18272   3.871   2.958   6.606  3.3844  1.9058  0.1956
  163SAPE     P18273   4.131   2.835   6.567  0.2221  0.5133  0.4466
  163SAPE   O1318274   4.117   2.687   6.576 -0.3545  0.1047  0.6370
  163SAPE   O1418275   4.264   2.893   6.545  0.1012  0.6686  0.1451
  163SAPE   O1218276   4.025   2.904   6.476  0.0349  0.2784 -0.0711
  163SAPE   O1118277   4.072   2.881   6.706 -0.0741  0.2600 -0.4082
  163SAPE    C118278   4.161   2.873   6.816 -0.1260  0.1171 -0.6273
  163SAPE    HA18279   4.114   2.821   6.902 -1.4609  2.1599 -0.0417
  163SAPE    HB18280   4.264   2.840   6.794 -1.0797 -2.0401 -2.2169
  163SAPE    C218281   4.194   3.019   6.866 -0.0228 -0.1924  0.2306
  163SAPE    HS18282   4.245   3.085   6.793 -0.4602  1.2060  1.1540
  163SAPE   O2118283   4.274   3.005   6.990 -0.1288  0.3060  0.1493
  163SAPE   C2118284   4.323   3.117   7.041 -0.3275 -0.1371 -0.7117
  163SAPE   O2218285   4.307   3.230   6.995 -0.8524  0.6285 -0.2535
  163SAPE   C2218286   4.399   3.085   7.173  0.1509 -0.2390  1.0582
  163SAPE   H2R18287   4.336   3.099   7.263  0.9833  0.0609  1.6069
  163SAPE   H2S18288   4.426   2.977   7.164 -0.9561 -0.4578  0.2379
  163SAPE    C318289   4.057   3.091   6.884 -0.6596 -0.1699  0.0757
  163SAPE    HX18290   4.012   3.102   6.783  0.7160  1.1455 -0.4414
  163SAPE    HY18291   4.066   3.197   6.916  2.8777 -0.3697  0.1363
  163SAPE   O3118292   3.973   3.015   6.978  0.1216  0.1140 -0.0122
  163SAPE   C3118293   3.847   3.004   6.949 -0.0202  0.1038  0.1927
  163SAPE   O3218294   3.787   3.062   6.859 -0.7189  0.2355  0.0118
  163SAPE   C3218295   3.779   2.929   7.062  0.4455 -0.7145  0.8339
  163SAPE   H2X18296   3.779   2.985   7.158 -0.6255 -0.0319  0.4527
  163SAPE   H2Y18297   3.833   2.832   7.070 -2.4446 -2.7371 -1.7585
  163SAPE   C2318298   4.527   3.177   7.185 -0.1021 -0.5963  0.1638
  163SAPE   H3R18299   4.495   3.283   7.196  1.8152  0.0156  0.3198
  163SAPE   H3S18300   4.598   3.162   7.100  0.2925  0.9529  0.1788
  163SAPE   C2418301   4.612   3.142   7.310 -0.5629 -0.3257 -0.1635
  163SAPE   H4R18302   4.540   3.165   7.391 -0.8334 -1.6481  0.0004
  163SAPE   H4S18303   4.699   3.212   7.309  0.7110 -1.8511 -1.0041
  163SAPE   C2518304   4.663   3.001   7.320  0.1447 -0.1640 -0.6211
  163SAPE   H5R18305   4.716   2.971   7.229 -0.4589  2.2854 -1.8740
  163SAPE   C2618306   4.628   2.912   7.418  0.6285  0.4502 -0.1393
  163SAPE   H6R18307   4.671   2.811   7.419 -1.1930 -0.3623  0.6470
  163SAPE   C2718308   4.546   2.944   7.540  0.4966  0.5544  0.3280
  163SAPE   H7R18309   4.505   2.846   7.572  3.7028 -0.7792  0.7655
  163SAPE   H7S18310   4.458   3.000   7.504  0.8730  1.1624  0.3304
  163SAPE   C2818311   4.617   3.026   7.647  0.0737  0.5992 -0.0388
  163SAPE   H8R18312   4.704   3.082   7.610  0.9735  0.6026  1.9556
  163SAPE   C2918313   4.584   3.044   7.777  0.3746  0.4754  0.1404
  163SAPE   H9R18314   4.650   3.105   7.841  0.8084 -0.5331  0.6932
  163SAPE  C21018315   4.472   2.985   7.858 -0.3820 -0.2934 -0.1189
  163SAPE  H10R18316   4.394   2.940   7.793 -2.2598 -0.1583  1.9459
  163SAPE  H10S18317   4.432   3.070   7.917 -0.7778  0.1094 -0.9623
  163SAPE  C21118318   4.534   2.883   7.952 -0.3035 -0.4588 -0.0691
  163SAPE  H11R18319   4.557   2.784   7.909 -0.7764 -2.1509  3.2442
  163SAPE  C21218320   4.561   2.896   8.080 -0.0605  0.8194 -0.6854
  163SAPE  H12R18321   4.598   2.807   8.133  0.6583  2.6882  2.2415
  163SAPE  C21318322   4.541   3.013   8.177  0.7146 -0.3206 -0.3722
  163SAPE  H13R18323   4.451   2.997   8.240  0.6983  1.5736  0.1353
  163SAPE  H13S18324   4.511   3.108   8.127 -1.3644 -1.7498 -2.0068
  163SAPE  C21418325   4.636   3.037   8.292  0.1580 -0.2799 -0.0224
  163SAPE  H14R18326   4.595   3.053   8.393  1.2628 -0.5545  0.4835
  163SAPE  C21518327   4.768   3.060   8.276 -0.1072 -0.3027  0.0883
  163SAPE  H15R18328   4.826   3.088   8.366  0.6566  1.5469 -0.9260
  163SAPE  C21618329   4.845   3.064   8.150 -0.3259 -0.0347 -0.0958
  163SAPE  H16R18330   4.879   3.170   8.142 -0.4404  0.0958  1.0722
  163SAPE  H16S18331   4.784   3.045   8.059  1.0336 -1.6463 -0.7044
  163SAPE  C21718332   4.961   2.967   8.158 -0.3062 -0.0526  0.1822
  163SAPE  H17R18333   5.001   2.950   8.055  0.3626  0.0366  0.4223
  163SAPE  H17S18334   4.929   2.867   8.194  1.6313 -0.4004  1.0765
  163SAPE  C21818335   5.073   3.001   8.263  0.0346 -0.0304  0.2555
  163SAPE  H18R18336   5.051   3.094   8.319  0.1971  0.0315  0.2168
  163SAPE  H18S18337   5.170   3.005   8.209 -0.4602  0.6942 -0.6075
  163SAPE  C21918338   5.095   2.900   8.371 -0.3679  0.2174 -0.2573
  163SAPE  H19R18339   5.077   2.798   8.331 -0.8274  0.9438 -1.9420
  163SAPE  H19S18340   5.018   2.915   8.450  1.1122  1.8796  0.9507
  163SAPE  C22018341   5.234   2.910   8.447  0.4241 -0.0850 -0.1099
  163SAPE  H20R18342   5.315   2.888   8.373 -0.0644 -0.8537 -0.4254
  163SAPE  H20S18343   5.245   2.844   8.536 -1.9814  0.2156  0.4806
  163SAPE  H20T18344   5.247   3.015   8.481 -2.0516  0.0887  0.4611
  163SAPE   C3318345   3.630   2.900   7.030  0.0655 -0.2407 -0.1341
  163SAPE   H3X18346   3.625   2.852   6.930 -1.1410 -1.4730  0.4744
  163SAPE   H3Y18347   3.576   2.996   7.040  0.9996  0.2037  0.8206
  163SAPE   C3418348   3.557   2.803   7.123  0.0150 -0.2750  0.0905
  163SAPE   H4X18349   3.617   2.710   7.134  0.2752 -0.0210  0.9373
  163SAPE   H4Y18350   3.454   2.777   7.090  0.0749 -2.6587  1.5108
  163SAPE   C3518351   3.523   2.864   7.265 -0.3449 -0.1280 -0.1869
  163SAPE   H5X18352   3.440   2.938   7.264  1.3687  1.9632  1.5096
  163SAPE   H5Y18353   3.615   2.919   7.293 -1.4133  1.8225 -0.2699
  163SAPE   C3618354   3.489   2.762   7.372  0.0315 -0.0529  0.4985
  163SAPE   H6X18355   3.581   2.700   7.386  1.8986  2.0057 -1.8034
  163SAPE   H6Y18356   3.419   2.687   7.330  0.2742 -0.0078  0.0017
  163SAPE   C3718357   3.449   2.823   7.502  0.2246 -1.3234  0.1991
  163SAPE   H7X18358   3.433   2.757   7.589 -2.4716  1.9175  2.4392
  163SAPE   H7Y18359   3.352   2.878   7.494  1.4161  0.6727 -1.9358
  163SAPE   C3818360   3.551   2.932   7.550  0.3227 -0.4082  0.0682
  163SAPE   H8X18361   3.525   3.031   7.507  1.5485  0.7787  1.9372
  163SAPE   H8Y18362   3.648   2.895   7.512  0.2413 -0.2438 -0.3042
  163SAPE   C3918363   3.560   2.938   7.703 -0.3918  0.1666 -0.9817
  163SAPE   H9X18364   3.646   3.004   7.727  0.4026 -0.8986 -0.8321
  163SAPE   H9Y18365   3.571   2.839   7.751 -1.0562  0.4605 -0.2072
  163SAPE  C31018366   3.441   3.004   7.778 -0.1477 -0.1365 -0.1867
  163SAPE  H10X18367   3.354   2.935   7.776 -2.5130  2.6526 -1.7748
  163SAPE  H10Y18368   3.403   3.092   7.721 -0.3801  0.4334  0.8232
  163SAPE  C31118369   3.473   3.063   7.914  0.0231 -0.5038  0.6083
  163SAPE  H11X18370   3.390   3.129   7.945  0.3841  0.7831 -1.0270
  163SAPE  H11Y18371   3.566   3.123   7.896 -1.1284  1.6597  1.5238
  163SAPE  C31218372   3.511   2.961   8.022 -0.0645  0.2273 -0.4130
  163SAPE  H12X18373   3.581   2.885   7.979 -0.1012  0.3463 -0.6824
  163SAPE  H12Y18374   3.413   2.914   8.045 -0.5383  1.0452 -0.7420
  163SAPE  C31318375   3.572   3.022   8.152 -0.0005 -0.2791 -0.6259
  163SAPE  H13X18376   3.675   3.062   8.135  0.0636  0.4703  1.3023
  163SAPE  H13Y18377   3.586   2.934   8.219  0.6587  1.3426  1.4721
  163SAPE  C31418378   3.495   3.138   8.220 -0.4809 -0.3614 -0.8576
  163SAPE  H14X18379   3.497   3.224   8.149  2.1491 -0.5399 -1.0994
  163SAPE  H14Y18380   3.559   3.168   8.306 -0.3318  0.6375 -1.3037
  163SAPE  C31518381   3.348   3.113   8.276  0.0284  0.5354 -0.0688
  163SAPE  H15X18382   3.355   3.030   8.348 -3.6990 -1.8977 -2.2033
  163SAPE  H15Y18383   3.292   3.061   8.196  0.9348  1.5841 -1.4409
  163SAPE  C31618384   3.284   3.242   8.326  0.3104 -0.0055  1.1006
  163SAPE  H16X18385   3.178   3.223   8.352 -0.8038  2.0243 -1.4220
  163SAPE  H16Y18386   3.280   3.306   8.235 -2.3494  1.9865  2.4742
  163SAPE  C31718387   3.332   3.321   8.447 -0.0315  0.3602  0.5042
  163SAPE  H17X18388   3.431   3.365   8.422  0.2513  0.1553  1.2384
  163SAPE  H17Y18389   3.353   3.258   8.536  1.2135 -1.7695 -1.1842
  163SAPE  C31818390   3.231   3.424   8.483 -0.9071  0.3162 -0.4241
  163SAPE  H18X18391   3.186   3.473   8.393  0.5646  2.6680  0.0224
  163SAPE  H18Y18392   3.279   3.513   8.529  0.2684  0.6352 -2.1869
  163SAPE  H18Z18393   3.150   3.389   8.551 -1.1027 -1.0214 -1.3052
  164SAPE     N18394   1.178   1.839   6.350 -0.7382 -0.1960  0.0340
  164SAPE   HN118395   1.150   1.759   6.409 -2.1830  0.8228  0.7979
  164SAPE   HN218396   1.259   1.884   6.396 -0.6640 -0.3568  0.0603
  164SAPE   HN318397   1.096   1.904   6.345 -1.6272 -0.8875  3.3494
  164SAPE   C1218398   1.215   1.783   6.215 -0.2505 -0.7612  0.4864
  164SAPE  H12A18399   1.288   1.852   6.167 -0.4956 -1.3426 -0.7614
  164SAPE  H12B18400   1.120   1.764   6.161 -0.4499  0.8962  0.2119
  164SAPE   C1118401   1.283   1.656   6.237 -0.2850  0.4070  0.6735
  164SAPE  H11A18402   1.381   1.673   6.286 -0.4074  1.3042  0.6202
  164SAPE  H11B18403   1.308   1.619   6.135 -0.8184  3.1685 -0.5622
  164SAPE     P18404   1.160   1.433   6.246 -0.0332 -0.2137 -0.2589
  164SAPE   O1318405   1.061   1.373   6.326  0.2819  0.1896 -0.4817
  164SAPE   O1418406   1.113   1.463   6.108  0.4047 -0.0679  0.4337
  164SAPE   O1218407   1.209   1.562   6.310 -0.2660 -0.5682 -0.3170
  164SAPE   O1118408   1.291   1.343   6.234  0.2184 -0.1488 -0.6458
  164SAPE    C118409   1.411   1.348   6.317 -0.1916  1.1167  0.2169
  164SAPE    HA18410   1.501   1.341   6.252  0.1295 -0.3179  0.7909
  164SAPE    HB18411   1.410   1.440   6.380 -2.9139  1.1755  0.1925
  164SAPE    C218412   1.411   1.235   6.425 -0.1154  0.7378  0.1155
  164SAPE    HS18413   1.412   1.140   6.367  1.6969  1.5271 -1.2384
  164SAPE   O2118414   1.293   1.251   6.513  0.3297 -0.1728  0.4739
  164SAPE   C2118415   1.223   1.142   6.536 -0.3702 -0.4293  0.4046
  164SAPE   O2218416   1.258   1.033   6.508 -0.6732 -0.0580  0.5437
  164SAPE   C2218417   1.095   1.172   6.615 -0.4725  0.4940 -0.2085
  164SAPE   H2R18418   1.124   1.231   6.704 -0.9035  2.6973 -1.4754
  164SAPE   H2S18419   1.024   1.238   6.560 -0.5659  1.1480  0.6700
  164SAPE    C318420   1.536   1.240   6.506  0.7940 -0.0301  0.6846
  164SAPE    HX18421   1.554   1.346   6.536  0.7256  0.1833 -0.0159
  164SAPE    HY18422   1.615   1.214   6.432  1.9235  2.3748  0.9426
  164SAPE   O3118423   1.532   1.148   6.619 -0.2217 -0.3478  0.4184
  164SAPE   C3118424   1.648   1.149   6.691  0.0462 -0.1748  0.4035
  164SAPE   O3218425   1.743   1.223   6.665 -0.2388  0.2277  0.1920
  164SAPE   C3218426   1.636   1.048   6.797 -0.1487  0.0187  0.4841
  164SAPE   H2X18427   1.696   1.077   6.886  1.5244  1.5614 -1.0621
  164SAPE   H2Y18428   1.670   0.952   6.754  1.6242 -0.4858  2.8264
  164SAPE   C2318429   1.030   1.032   6.648  0.6674 -0.7002 -0.1492
  164SAPE   H3R18430   1.023   0.968   6.557 -0.6011  0.6217 -1.0439
  164SAPE   H3S18431   0.925   1.044   6.684  1.5583  1.6617  1.9846
  164SAPE   C2418432   1.099   0.961   6.762  0.4729 -0.7560  0.9377
  164SAPE   H4R18433   1.204   0.933   6.741  0.9102  0.1204  1.8585
  164SAPE   H4S18434   1.053   0.863   6.786  1.8368 -1.0653  2.5077
  164SAPE   C2518435   1.110   1.035   6.887 -0.0120  0.3147 -0.6156
  164SAPE   H5R18436   1.204   1.093   6.887  1.0281 -1.2707  0.5391
  164SAPE   C2618437   1.034   1.011   6.995  1.0342  0.4239 -0.8363
  164SAPE   H6R18438   1.039   1.077   7.083 -0.9644  0.0984 -0.4319
  164SAPE   C2718439   0.921   0.916   7.012  0.4564 -0.5327  0.1957
  164SAPE   H7R18440   0.899   0.909   7.120 -0.0554  1.9871  0.3146
  164SAPE   H7S18441   0.951   0.812   6.986  0.3630 -1.1462  2.4018
  164SAPE   C2818442   0.799   0.950   6.924 -0.0980  0.4127 -0.2911
  164SAPE   H8R18443   0.823   0.939   6.817 -1.0013 -1.9788 -0.3042
  164SAPE   C2918444   0.675   0.994   6.961  0.1315  0.5421 -0.1403
  164SAPE   H9R18445   0.616   1.018   6.872  0.2221  2.3614  0.2395
  164SAPE  C21018446   0.620   1.016   7.101  0.8544  0.4073 -0.3243
  164SAPE  H10R18447   0.575   1.118   7.102  1.7463  0.8460  1.6915
  164SAPE  H10S18448   0.704   1.015   7.174 -0.6987  1.4672  1.5852
  164SAPE  C21118449   0.512   0.920   7.148  1.0401 -0.0293 -0.7699
  164SAPE  H11R18450   0.486   0.843   7.074  2.0368  1.5145 -2.8412
  164SAPE  C21218451   0.468   0.916   7.279  0.0725  0.2951  0.4780
  164SAPE  H12R18452   0.383   0.851   7.305  0.6948 -0.4076  0.7687
  164SAPE  C21318453   0.512   1.019   7.389 -0.0691  0.4517 -0.0946
  164SAPE  H13R18454   0.586   1.093   7.353 -1.3160  0.2338 -3.5472
  164SAPE  H13S18455   0.561   0.964   7.472 -0.0797 -0.4241 -0.6453
  164SAPE  C21418456   0.390   1.078   7.463  0.0452 -0.1566  0.1723
  164SAPE  H14R18457   0.369   1.181   7.428 -0.4947 -0.9893 -2.1143
  164SAPE  C21518458   0.326   1.025   7.566 -0.3388 -0.0508 -0.6430
  164SAPE  H15R18459   0.243   1.076   7.617  0.2271 -0.9058  1.2249
  164SAPE  C21618460   0.355   0.899   7.644 -0.2711 -0.0737 -0.8744
  164SAPE  H16R18461   0.457   0.861   7.620  0.6158  1.6811 -0.1091
  164SAPE  H16S18462   0.297   0.813   7.605  1.4721 -2.6459  1.8254
  164SAPE  C21718463   0.352   0.908   7.802  0.2239 -0.2739  0.2046
  164SAPE  H17R18464   0.375   0.811   7.852 -1.9606 -0.7714  0.3323
  164SAPE  H17S18465   0.248   0.922   7.838 -0.4589 -1.6696 -1.0898
  164SAPE  C21818466   0.439   1.013   7.859 -0.1121 -0.4272  0.0305
  164SAPE  H18R18467   0.410   1.102   7.799 -2.6662 -1.2118 -0.0431
  164SAPE  H18S18468   0.549   1.000   7.848 -0.0742 -0.4850  0.4645
  164SAPE  C21918469   0.422   1.025   8.011  0.1604 -0.0596  0.6513
  164SAPE  H19R18470   0.459   0.931   8.057  0.5647 -0.0371  0.3747
  164SAPE  H19S18471   0.317   1.043   8.044 -0.3124 -2.3067  0.4863
  164SAPE  C22018472   0.512   1.132   8.073 -0.4875 -0.6879 -1.0114
  164SAPE  H20R18473   0.485   1.238   8.052  0.7891 -0.2493 -0.5289
  164SAPE  H20S18474   0.622   1.127   8.053 -0.2672  0.2950 -0.1490
  164SAPE  H20T18475   0.511   1.112   8.182 -0.9851  2.9891 -0.2173
  164SAPE   C3318476   1.496   1.016   6.850  0.4829  0.0952 -0.3496
  164SAPE   H3X18477   1.442   0.962   6.770 -1.5319  0.0314  0.9776
  164SAPE   H3Y18478   1.443   1.110   6.877  0.9734  0.0615  0.7668
  164SAPE   C3418479   1.515   0.912   6.962 -0.2972  0.6412  1.1749
  164SAPE   H4X18480   1.582   0.833   6.921 -4.1888 -1.5040 -1.8010
  164SAPE   H4Y18481   1.421   0.854   6.964 -0.7985  1.1501 -1.8696
  164SAPE   C3518482   1.553   0.962   7.107 -0.5746 -0.3778 -0.2322
  164SAPE   H5X18483   1.662   0.980   7.099 -0.5046 -1.0011 -0.7963
  164SAPE   H5Y18484   1.555   0.880   7.181 -1.3417  1.0717  1.4718
  164SAPE   C3618485   1.479   1.087   7.154 -0.8163 -0.1497 -0.0482
  164SAPE   H6X18486   1.479   1.163   7.073  2.4147  0.2490  0.2066
  164SAPE   H6Y18487   1.539   1.134   7.235 -1.1258 -0.3719  0.3090
  164SAPE   C3718488   1.335   1.046   7.195 -0.2663 -0.2592 -0.0373
  164SAPE   H7X18489   1.299   0.968   7.125 -0.4141 -1.3272  1.1853
  164SAPE   H7Y18490   1.259   1.127   7.203 -0.5630 -0.7198  3.2231
  164SAPE   C3818491   1.326   0.978   7.337  0.2386  0.1430  0.2729
  164SAPE   H8X18492   1.406   0.903   7.350  0.8542  0.6790 -0.3292
  164SAPE   H8Y18493   1.224   0.937   7.353  0.6784 -0.5039  1.4659
  164SAPE   C3918494   1.349   1.072   7.452  0.1141 -0.8475 -0.5304
  164SAPE   H9X18495   1.284   1.162   7.443  1.4547 -0.0197 -2.6218
  164SAPE   H9Y18496   1.451   1.115   7.449  0.3901 -1.4074  0.2392
  164SAPE  C31018497   1.327   1.007   7.594 -0.6469 -0.2829  0.6002
  164SAPE  H10X18498   1.221   0.976   7.584 -0.6250 -0.3423  0.5556
  164SAPE  H10Y18499   1.339   1.079   7.677 -1.6913  1.2758 -0.5446
  164SAPE  C31118500   1.414   0.876   7.619  0.0907 -0.7283  0.3685
  164SAPE  H11X18501   1.516   0.915   7.640 -0.9046  1.2271  1.9067
  164SAPE  H11Y18502   1.405   0.806   7.533  1.1178  0.3898 -0.6878
  164SAPE  C31218503   1.359   0.810   7.748  0.4741 -0.3969  0.1517
  164SAPE  H12X18504   1.331   0.707   7.717  0.5505  0.2547 -2.3033
  164SAPE  H12Y18505   1.265   0.864   7.775  0.5069 -0.9768  1.5107
  164SAPE  C31318506   1.458   0.805   7.858  0.2557 -0.2543 -0.0861
  164SAPE  H13X18507   1.514   0.901   7.867  1.9854 -1.1513 -0.8857
  164SAPE  H13Y18508   1.524   0.719   7.835  1.3589  0.0444  1.7195
  164SAPE  C31418509   1.387   0.764   7.989 -0.1346  0.0972  0.4666
  164SAPE  H14X18510   1.331   0.670   7.973  0.6821 -0.5248  1.1752
  164SAPE  H14Y18511   1.316   0.846   8.012 -1.3935 -0.5811 -0.8945
  164SAPE  C31518512   1.482   0.735   8.105  0.1208  1.4001 -0.0518
  164SAPE  H15X18513   1.552   0.822   8.106  1.2325  0.5456 -1.3162
  164SAPE  H15Y18514   1.550   0.649   8.089 -0.3077  0.7750  1.2862
  164SAPE  C31618515   1.423   0.720   8.244 -0.4586 -0.0195  0.7639
  164SAPE  H16X18516   1.336   0.652   8.235  0.2399 -1.0704  1.8191
  164SAPE  H16Y18517   1.396   0.823   8.276  1.8438  0.2816  1.8882
  164SAPE  C31718518   1.527   0.652   8.335 -0.1404  0.3796  0.8209
  164SAPE  H17X18519   1.607   0.727   8.351  1.0644 -1.1123  2.0769
  164SAPE  H17Y18520   1.567   0.557   8.294  1.6690  1.1710  0.6672
  164SAPE  C31818521   1.484   0.624   8.476 -0.1998  0.0553 -0.0611
  164SAPE  H18X18522   1.445   0.712   8.530 -0.3147  0.0121 -0.0751
  164SAPE  H18Y18523   1.569   0.588   8.538  0.8755  0.5877 -1.1751
  164SAPE  H18Z18524   1.397   0.556   8.470  0.0059 -0.1436 -1.0357
  165SAPE     N18525   5.890   3.116   6.424  0.2309  0.4117  0.7797
  165SAPE   HN118526   5.966   3.146   6.359 -2.1547  2.1498 -1.3894
  165SAPE   HN218527   5.834   3.037   6.384  0.8113  0.1640  0.4467
  165SAPE   HN318528   5.827   3.196   6.444 -2.3987 -1.1303 -0.8039
  165SAPE   C1218529   5.949   3.071   6.561  0.1020 -0.0359  0.7262
  165SAPE  H12A18530   6.014   2.986   6.530 -0.6320  0.3507 -2.1467
  165SAPE  H12B18531   5.868   3.027   6.623  0.8076 -1.4928  0.6537
  165SAPE   C1118532   6.027   3.177   6.638  0.9230 -0.2626 -0.0901
  165SAPE  H11A18533   6.059   3.134   6.735  0.0925  1.6751  1.1083
  165SAPE  H11B18534   5.959   3.255   6.680  0.7240 -1.5932  2.2667
  165SAPE     P18535   6.277   3.184   6.549  0.4774 -0.0864  0.0078
  165SAPE   O1318536   6.274   3.055   6.475 -0.0531 -0.6198 -0.1025
  165SAPE   O1418537   6.366   3.290   6.499 -0.3687  0.8728  0.7613
  165SAPE   O1218538   6.131   3.236   6.564  0.1224 -0.1750  0.1558
  165SAPE   O1118539   6.329   3.149   6.696  0.2248 -0.1041 -0.3206
  165SAPE    C118540   6.314   3.242   6.807 -0.4000  0.0250  0.5279
  165SAPE    HA18541   6.214   3.290   6.810 -0.4763 -0.1005  0.0557
  165SAPE    HB18542   6.316   3.187   6.904  0.0087 -0.5711  0.1873
  165SAPE    C218543   6.418   3.354   6.807 -0.0569 -0.4057  0.1214
  165SAPE    HS18544   6.416   3.408   6.709  1.0216 -0.8366 -0.1572
  165SAPE   O2118545   6.551   3.305   6.833 -0.1078  0.4449  0.0567
  165SAPE   C2118546   6.656   3.381   6.814 -0.6730  0.5018 -0.1647
  165SAPE   O2218547   6.655   3.492   6.771 -0.1820 -0.4300 -0.0140
  165SAPE   C2218548   6.776   3.294   6.864  0.0642  0.3806  0.0405
  165SAPE   H2R18549   6.758   3.258   6.967 -1.4959  2.7672  0.6701
  165SAPE   H2S18550   6.770   3.203   6.800 -0.1730 -1.3764  2.4386
  165SAPE    C318551   6.367   3.469   6.907  0.2236 -0.0158 -0.1486
  165SAPE    HX18552   6.276   3.520   6.870  1.7343  1.7279 -1.7367
  165SAPE    HY18553   6.453   3.537   6.924  2.2157 -2.3543 -0.2345
  165SAPE   O3118554   6.326   3.390   7.028  0.1270  0.2153  0.4043
  165SAPE   C3118555   6.430   3.369   7.112 -0.2447  0.1819 -0.4822
  165SAPE   O3218556   6.537   3.418   7.108 -0.4456 -0.2283 -0.3690
  165SAPE   C3218557   6.386   3.272   7.224 -0.2537  0.4231 -1.1012
  165SAPE   H2X18558   6.307   3.200   7.191 -0.8826 -1.3157  3.4636
  165SAPE   H2Y18559   6.330   3.333   7.299 -1.5124 -2.4446  0.4633
  165SAPE   C2318560   6.909   3.375   6.852  0.8625 -0.0152 -0.2849
  165SAPE   H3R18561   6.883   3.481   6.875  0.4000  0.0110 -0.9000
  165SAPE   H3S18562   6.952   3.370   6.749 -0.4388 -0.3880 -0.8297
  165SAPE   C2418563   7.004   3.332   6.963 -0.2834  0.6286  0.5776
  165SAPE   H4R18564   6.948   3.325   7.058 -0.7370 -0.7988  0.2261
  165SAPE   H4S18565   7.088   3.405   6.966  0.6972 -0.3115 -1.5464
  165SAPE   C2518566   7.062   3.192   6.943 -0.2215  0.3942 -0.2364
  165SAPE   H5R18567   7.009   3.125   6.874  0.7197  2.6167 -3.3237
  165SAPE   C2618568   7.175   3.148   6.992 -0.7208 -0.0370  0.5152
  165SAPE   H6R18569   7.216   3.049   6.963  3.2588  2.2818 -3.0014
  165SAPE   C2718570   7.271   3.226   7.080  0.3518  0.2834 -0.3673
  165SAPE   H7R18571   7.275   3.326   7.032  0.4793 -0.7847 -2.7144
  165SAPE   H7S18572   7.375   3.188   7.071  1.3993  2.8195  0.1647
  165SAPE   C2818573   7.234   3.239   7.222 -0.5683 -0.3208  0.4616
  165SAPE   H8R18574   7.161   3.319   7.242  0.1129  0.5532 -0.5073
  165SAPE   C2918575   7.294   3.187   7.324  0.3170 -1.4213  0.2527
  165SAPE   H9R18576   7.259   3.217   7.423 -1.0983 -0.5362 -0.4775
  165SAPE  C21018577   7.408   3.091   7.323  0.2853  0.4268  0.3857
  165SAPE  H10R18578   7.424   3.084   7.433  1.0357  0.3045  0.2750
  165SAPE  H10S18579   7.512   3.123   7.299  1.6703 -1.9578  2.7115
  165SAPE  C21118580   7.399   2.956   7.259  0.7776 -0.5767  0.5360
  165SAPE  H11R18581   7.466   2.963   7.172  2.1547  0.0447  1.5912
  165SAPE  C21218582   7.337   2.844   7.299  0.4863 -0.0457  0.4324
  165SAPE  H12R18583   7.353   2.749   7.244 -0.0560 -0.9460  1.7842
  165SAPE  C21318584   7.243   2.824   7.419  0.5571  0.1946  0.8131
  165SAPE  H13R18585   7.194   2.923   7.423  0.1431 -0.0376  2.2718
  165SAPE  H13S18586   7.309   2.824   7.509  2.0994  0.6891 -0.2670
  165SAPE  C21418587   7.133   2.724   7.422  0.2239  0.6078 -0.7842
  165SAPE  H14R18588   7.123   2.671   7.327  1.9264  1.0783 -1.2654
  165SAPE  C21518589   7.047   2.710   7.527 -0.1234  0.1841  0.3461
  165SAPE  H15R18590   6.957   2.650   7.507 -0.4796  1.1509 -1.1277
  165SAPE  C21618591   7.049   2.785   7.653  0.0117 -0.2599  0.5881
  165SAPE  H16R18592   6.958   2.845   7.673  0.4506  0.3826  0.6838
  165SAPE  H16S18593   7.127   2.864   7.645 -0.0815 -0.3485 -1.8379
  165SAPE  C21718594   7.070   2.713   7.787  0.2879  0.4479 -0.0154
  165SAPE  H17R18595   7.003   2.625   7.793 -0.6613  1.1585  0.0824
  165SAPE  H17S18596   7.044   2.783   7.869 -2.2351  0.0459 -0.3918
  165SAPE  C21818597   7.211   2.656   7.791  0.2233 -0.0273 -1.0186
  165SAPE  H18R18598   7.285   2.737   7.806  2.0137 -1.7651 -0.0460
  165SAPE  H18S18599   7.236   2.601   7.698  2.8518  0.2882 -0.5596
  165SAPE  C21918600   7.239   2.552   7.897 -0.0571  0.0151 -0.2197
  165SAPE  H19R18601   7.344   2.516   7.887  0.1218  0.5821 -0.4079
  165SAPE  H19S18602   7.171   2.466   7.880  0.1482 -0.2211  0.1416
  165SAPE  C22018603   7.211   2.598   8.039  0.0318  0.3138 -0.6498
  165SAPE  H20R18604   7.245   2.524   8.115 -0.8838  0.9550  0.4045
  165SAPE  H20S18605   7.104   2.600   8.066 -0.0727  1.3363 -1.0982
  165SAPE  H20T18606   7.258   2.697   8.061 -0.3735  0.2118  0.7605
  165SAPE   C3318607   6.511   3.197   7.287  0.2047  0.1782  0.2617
  165SAPE   H3X18608   6.578   3.263   7.346 -1.7810  1.7123  0.8973
  165SAPE   H3Y18609   6.575   3.157   7.206  0.8655  3.0082 -0.7124
  165SAPE   C3418610   6.459   3.076   7.367 -0.0185  0.1441  0.1342
  165SAPE   H4X18611   6.544   3.023   7.416  1.5813  1.5753 -0.9583
  165SAPE   H4Y18612   6.406   3.008   7.298  0.4611  0.2898 -0.3861
  165SAPE   C3518613   6.367   3.113   7.485  0.4326 -0.0485 -0.1069
  165SAPE   H5X18614   6.320   3.017   7.517  2.5032 -0.6770  1.3060
  165SAPE   H5Y18615   6.287   3.183   7.452 -0.6533  0.0028  2.4083
  165SAPE   C3618616   6.429   3.181   7.610  0.8101  0.5586  0.2911
  165SAPE   H6X18617   6.502   3.259   7.579  2.0827 -0.4077  0.7559
  165SAPE   H6Y18618   6.496   3.108   7.661 -0.6974 -1.7058 -0.8079
  165SAPE   C3718619   6.332   3.234   7.704  0.0729 -0.6310  0.5074
  165SAPE   H7X18620   6.248   3.163   7.719 -0.3311 -0.5951 -1.3779
  165SAPE   H7Y18621   6.282   3.315   7.646 -0.6954 -0.8999  0.7826
  165SAPE   C3818622   6.387   3.281   7.837 -0.2438  0.2732  0.2927
  165SAPE   H8X18623   6.446   3.372   7.812 -0.4160  0.1557 -0.5717
  165SAPE   H8Y18624   6.460   3.216   7.890 -2.2160  0.9501  4.2546
  165SAPE   C3918625   6.279   3.336   7.930  0.0126 -0.2188 -0.5193
  165SAPE   H9X18626   6.214   3.248   7.949  1.7422 -1.6566 -0.8885
  165SAPE   H9Y18627   6.227   3.410   7.866 -1.0239 -0.8868 -0.4619
  165SAPE  C31018628   6.322   3.414   8.059 -0.0462  0.2278 -0.0679
  165SAPE  H10X18629   6.389   3.500   8.037  0.6790  0.2405  1.9592
  165SAPE  H10Y18630   6.373   3.344   8.128  1.6843  2.1040  0.6484
  165SAPE  C31118631   6.200   3.464   8.131 -0.2446 -0.4534  0.5822
  165SAPE  H11X18632   6.140   3.523   8.058  1.2444  2.0798  1.3016
  165SAPE  H11Y18633   6.238   3.523   8.216  0.2080  0.1179 -0.0091
  165SAPE  C31218634   6.111   3.348   8.180  1.2502  0.3264  0.1551
  165SAPE  H12X18635   6.179   3.272   8.224  3.0125  0.8792 -1.4551
  165SAPE  H12Y18636   6.065   3.288   8.099  0.3137  0.4574  0.5687
  165SAPE  C31318637   6.004   3.399   8.276  0.1665 -0.6982 -0.2930
  165SAPE  H13X18638   5.919   3.447   8.222 -0.9741 -2.6326 -0.3165
  165SAPE  H13Y18639   6.045   3.461   8.357 -0.9783  0.8385 -0.8417
  165SAPE  C31418640   5.931   3.281   8.346  0.2188 -0.3693 -0.2039
  165SAPE  H14X18641   6.003   3.219   8.404 -1.4322 -1.5775  0.6438
  165SAPE  H14Y18642   5.883   3.207   8.279 -0.8522 -1.8446  2.0712
  165SAPE  C31518643   5.825   3.327   8.452 -0.4355 -0.1200 -0.0286
  165SAPE  H15X18644   5.864   3.417   8.505 -1.5210  1.0175 -1.0948
  165SAPE  H15Y18645   5.816   3.241   8.521  2.0455  0.9152  1.7074
  165SAPE  C31618646   5.686   3.349   8.399 -0.5143  0.4180 -0.2956
  165SAPE  H16X18647   5.694   3.396   8.299 -1.0058  0.6738 -0.2136
  165SAPE  H16Y18648   5.636   3.425   8.462  0.7862  1.4342 -0.4275
  165SAPE  C31718649   5.610   3.213   8.406 -0.1843 -0.8748 -0.0967
  165SAPE  H17X18650   5.678   3.136   8.365 -0.4048  0.4001 -3.1464
  165SAPE  H17Y18651   5.523   3.227   8.338  0.0562  0.5190 -0.1602
  165SAPE  C31818652   5.542   3.181   8.537 -1.0485 -0.1833  0.0130
  165SAPE  H18X18653   5.477   3.260   8.579 -0.3254  0.2531  0.3274
  165SAPE  H18Y18654   5.618   3.139   8.607 -1.8498  0.2055  1.1423
  165SAPE  H18Z18655   5.476   3.093   8.519  1.0639 -1.9015  0.1619
  166SAPE     N18656   0.072   0.284   5.858  0.4412 -0.0236 -0.0585
  166SAPE   HN118657   0.130   0.355   5.906 -1.3497  0.7911  1.0255
  166SAPE   HN218658   0.130   0.198   5.853  2.1051  1.1357 -2.1506
  166SAPE   HN318659   0.048   0.308   5.759  0.7813 -2.8412 -0.9168
  166SAPE   C1218660  -0.050   0.256   5.945 -0.6822  0.5015  0.5604
  166SAPE  H12A18661  -0.133   0.217   5.882  2.3379 -0.2133 -3.3772
  166SAPE  H12B18662  -0.086   0.351   5.990 -1.2694  0.5859 -0.0682
  166SAPE   C1118663  -0.024   0.140   6.040  0.0991  0.1638 -0.3363
  166SAPE  H11A18664  -0.122   0.104   6.079  0.5998  0.8795  1.6765
  166SAPE  H11B18665   0.027   0.168   6.134 -1.7367 -1.2377  1.1551
  166SAPE     P18666   0.075  -0.101   6.060 -0.4039 -0.6723  0.2473
  166SAPE   O1318667  -0.049  -0.182   6.062  0.1047  0.1586  0.7217
  166SAPE   O1418668   0.193  -0.162   5.997  0.2767 -0.7506  0.1567
  166SAPE   O1218669   0.040   0.029   5.977 -0.2783  0.5121 -0.0246
  166SAPE   O1118670   0.112  -0.044   6.202 -0.3433 -0.8176  0.2591
  166SAPE    C118671   0.235  -0.075   6.261 -0.4053 -0.5812  0.0374
  166SAPE    HA18672   0.268  -0.181   6.253  0.5624 -0.2130 -1.3742
  166SAPE    HB18673   0.311  -0.013   6.208  0.2310 -1.1599  0.2511
  166SAPE    C218674   0.237  -0.048   6.414  0.0807 -0.7156 -0.1566
  166SAPE    HS18675   0.344  -0.055   6.443  0.1171 -1.9794 -0.5439
  166SAPE   O2118676   0.143  -0.127   6.485 -0.1560  0.2710 -0.0256
  166SAPE   C2118677   0.175  -0.253   6.505 -0.1935 -0.3094  0.1475
  166SAPE   O2218678   0.273  -0.308   6.468 -0.2775 -0.0487 -0.8427
  166SAPE   C2218679   0.068  -0.315   6.592  0.4230 -0.4105  0.5130
  166SAPE   H2R18680  -0.024  -0.342   6.536  0.8590 -2.0069  0.5183
  166SAPE   H2S18681   0.106  -0.417   6.617 -0.1831 -1.0996 -1.2027
  166SAPE    C318682   0.184   0.099   6.452 -0.2390  0.8821 -0.8135
  166SAPE    HX18683   0.074   0.107   6.442 -0.1888 -0.3754 -3.1647
  166SAPE    HY18684   0.234   0.169   6.383  0.9289  0.9353  0.0532
  166SAPE   O3118685   0.233   0.120   6.588 -0.2300  0.0449 -0.2954
  166SAPE   C3118686   0.229   0.250   6.619  0.3624 -0.0070  0.2055
  166SAPE   O3218687   0.189   0.336   6.546 -0.7644  0.1641  0.5856
  166SAPE   C3218688   0.270   0.269   6.768  0.0486  0.0580  0.2929
  166SAPE   H2X18689   0.314   0.372   6.767 -1.3191  0.6679  0.1859
  166SAPE   H2Y18690   0.345   0.193   6.796 -1.5525 -1.9162 -0.5416
  166SAPE   C2318691   0.042  -0.228   6.715  0.2182 -0.4481  0.3154
  166SAPE   H3R18692  -0.035  -0.262   6.787  2.2951 -1.9478  1.9651
  166SAPE   H3S18693   0.024  -0.124   6.680 -2.1761 -0.8714  0.1527
  166SAPE   C2418694   0.169  -0.212   6.802 -0.5158  0.1783 -0.1349
  166SAPE   H4R18695   0.149  -0.140   6.884 -1.2584  1.7582 -1.6406
  166SAPE   H4S18696   0.251  -0.171   6.739  0.4609  0.3378  1.2101
  166SAPE   C2518697   0.224  -0.341   6.860 -0.5100 -0.0351  0.2627
  166SAPE   H5R18698   0.302  -0.372   6.789 -0.3351  0.9040  0.0260
  166SAPE   C2618699   0.187  -0.406   6.974  0.2587  0.2947  0.4643
  166SAPE   H6R18700   0.253  -0.486   7.012  1.3383  1.1842  0.5315
  166SAPE   C2718701   0.078  -0.353   7.064 -0.1909 -0.1244  0.0005
  166SAPE   H7R18702   0.011  -0.442   7.072 -1.7995  0.7775 -2.4249
  166SAPE   H7S18703   0.013  -0.273   7.023  2.3286  1.7732 -0.5326
  166SAPE   C2818704   0.148  -0.313   7.192 -0.2127 -0.4084 -0.0006
  166SAPE   H8R18705   0.218  -0.231   7.168 -1.9943  0.2804 -3.5637
  166SAPE   C2918706   0.146  -0.363   7.313 -0.2278  0.1445 -0.3762
  166SAPE   H9R18707   0.218  -0.318   7.384  1.2804  0.6232 -2.1423
  166SAPE  C21018708   0.070  -0.483   7.358 -0.1946 -0.1504  0.1645
  166SAPE  H10R18709   0.145  -0.563   7.375  2.1412  1.9651  0.6159
  166SAPE  H10S18710  -0.005  -0.519   7.285  0.1390  1.2924 -0.9565
  166SAPE  C21118711   0.006  -0.451   7.490  0.6637 -0.3250  0.9182
  166SAPE  H11R18712  -0.041  -0.352   7.488  2.2376  0.4553 -0.2509
  166SAPE  C21218713   0.029  -0.521   7.601  0.4174 -0.7666  0.6946
  166SAPE  H12R18714  -0.030  -0.480   7.684  1.7605  1.5935  0.5758
  166SAPE  C21318715   0.097  -0.654   7.630  0.0695 -0.3358 -0.1387
  166SAPE  H13R18716   0.127  -0.707   7.536 -2.1968 -0.2359 -0.9791
  166SAPE  H13S18717   0.036  -0.730   7.683 -1.9081 -0.3562 -2.2867
  166SAPE  C21418718   0.224  -0.622   7.708 -1.1100 -0.2756 -0.0677
  166SAPE  H14R18719   0.303  -0.565   7.656 -1.3364 -1.8494 -2.2788
  166SAPE  C21518720   0.254  -0.665   7.833 -0.0798  0.5464  0.5901
  166SAPE  H15R18721   0.353  -0.642   7.875 -0.2647 -0.6777  1.7869
  166SAPE  C21618722   0.168  -0.758   7.915 -0.4785  0.2160 -0.4026
  166SAPE  H16R18723   0.231  -0.827   7.976 -1.3045  0.0777  0.3123
  166SAPE  H16S18724   0.101  -0.825   7.858  0.3753  0.2201 -1.4369
  166SAPE  C21718725   0.089  -0.669   8.012 -0.1171  0.9160  0.0882
  166SAPE  H17R18726   0.010  -0.608   7.964 -1.5776 -2.6516 -2.4951
  166SAPE  H17S18727   0.164  -0.600   8.057 -0.5389  0.1027  2.1456
  166SAPE  C21818728   0.033  -0.748   8.127  0.3811  0.0742 -0.1420
  166SAPE  H18R18729   0.092  -0.841   8.137 -1.4570 -1.1536 -0.1875
  166SAPE  H18S18730  -0.070  -0.783   8.105  0.0432  0.4288  0.8629
  166SAPE  C21918731   0.037  -0.678   8.261  0.0482 -0.1947  0.4211
  166SAPE  H19R18732  -0.040  -0.598   8.252  1.0411  0.7144 -0.2037
  166SAPE  H19S18733   0.135  -0.625   8.268 -0.1452  0.0213  1.9654
  166SAPE  C22018734   0.020  -0.767   8.377  0.1170 -0.2640  0.1829
  166SAPE  H20R18735  -0.035  -0.860   8.354 -1.8958  0.0129  3.3434
  166SAPE  H20S18736  -0.037  -0.714   8.456 -0.2372  1.5065 -1.1929
  166SAPE  H20T18737   0.119  -0.785   8.424 -0.7734 -0.9491  1.8879
  166SAPE   C3318738   0.157   0.247   6.862  0.2991 -0.1848 -0.5672
  166SAPE   H3X18739   0.118   0.146   6.839 -0.4021  0.4288 -2.2476
  166SAPE   H3Y18740   0.073   0.318   6.844 -0.7197 -1.1939  0.0923
  166SAPE   C3418741   0.203   0.264   7.016 -0.0835  0.5542 -0.0083
  166SAPE   H4X18742   0.200   0.375   7.030 -0.2490  0.7236 -1.3028
  166SAPE   H4Y18743   0.304   0.219   7.029 -1.2966 -2.7781 -1.0393
  166SAPE   C3518744   0.105   0.200   7.116  0.3128 -0.4825  0.0436
  166SAPE   H5X18745   0.090   0.091   7.099  1.1443 -0.9645  2.0825
  166SAPE   H5Y18746   0.009   0.252   7.093  2.2268  3.4216  0.1249
  166SAPE   C3618747   0.135   0.214   7.266 -0.5987 -0.2387 -0.0541
  166SAPE   H6X18748   0.134   0.322   7.293  1.2577 -1.0995  4.1438
  166SAPE   H6Y18749   0.239   0.194   7.299 -1.2370 -0.7554  1.7628
  166SAPE   C3718750   0.032   0.128   7.354  0.0235 -0.6650  0.9037
  166SAPE   H7X18751   0.058   0.021   7.344  0.2930 -0.4304 -1.3272
  166SAPE   H7Y18752  -0.072   0.147   7.320 -0.4641  1.5496  3.3078
  166SAPE   C3818753   0.046   0.186   7.494  0.1591 -0.2334  0.1663
  166SAPE   H8X18754   0.007   0.290   7.493  0.4244 -0.0492  2.4130
  166SAPE   H8Y18755   0.153   0.194   7.521 -0.3152  2.1938  1.6064
  166SAPE   C3918756  -0.037   0.106   7.602 -0.0404  0.0173 -0.7697
  166SAPE   H9X18757  -0.011  -0.002   7.591 -1.0667 -0.1679 -1.5120
  166SAPE   H9Y18758  -0.142   0.109   7.566 -0.6696 -0.0678  0.9450
  166SAPE  C31018759  -0.018   0.164   7.746  0.3308 -0.0496 -0.1984
  166SAPE  H10X18760  -0.090   0.115   7.815  1.6205 -0.2786  1.0348
  166SAPE  H10Y18761  -0.039   0.273   7.752  0.9737  0.0305  0.9305
  166SAPE  C31118762   0.127   0.147   7.788 -0.7471 -0.5727  0.1081
  166SAPE  H11X18763   0.194   0.232   7.763 -0.7517 -0.8968 -1.0765
  166SAPE  H11Y18764   0.181   0.072   7.727 -0.8674  0.1428 -0.8978
  166SAPE  C31218765   0.132   0.121   7.939 -0.4407  0.3924  0.4479
  166SAPE  H12X18766   0.218   0.053   7.955 -1.0596 -1.1100 -2.0804
  166SAPE  H12Y18767   0.037   0.075   7.973 -1.1378 -0.2411 -2.1567
  166SAPE  C31318768   0.138   0.249   8.022  0.2646  0.5408  0.1605
  166SAPE  H13X18769   0.074   0.331   7.983  0.8592  0.3113 -1.3581
  166SAPE  H13Y18770   0.236   0.300   8.012 -0.2146  1.6813  1.0717
  166SAPE  C31418771   0.096   0.224   8.164  0.1612 -0.3669 -0.4479
  166SAPE  H14X18772   0.115   0.317   8.222 -1.7213 -1.8153  2.7119
  166SAPE  H14Y18773   0.155   0.153   8.226 -0.8673 -0.6379  0.2468
  166SAPE  C31518774  -0.051   0.208   8.193 -0.2430  0.5165 -0.0669
  166SAPE  H15X18775  -0.094   0.123   8.136 -1.2445  0.2297  1.0770
  166SAPE  H15Y18776  -0.101   0.301   8.160  1.0448  1.5715  0.8424
  166SAPE  C31618777  -0.095   0.206   8.344 -0.4695  0.7134  0.6953
  166SAPE  H16X18778  -0.205   0.200   8.329 -0.1442 -2.3044 -1.4432
  166SAPE  H16Y18779  -0.067   0.304   8.388 -0.5777  1.3621 -0.6411
  166SAPE  C31718780  -0.051   0.074   8.422 -0.1668 -0.3073  0.5850
  166SAPE  H17X18781   0.057   0.051   8.407 -0.2928 -1.3596  1.2098
  166SAPE  H17Y18782  -0.100  -0.017   8.381  0.5736 -0.8088  0.7971
  166SAPE  C31818783  -0.087   0.089   8.567 -0.2773  0.6402  0.4953
  166SAPE  H18X18784  -0.192   0.124   8.580  0.0542  1.2512  1.7492
  166SAPE  H18Y18785  -0.013   0.146   8.627 -1.6450 -0.6349  3.6507
  166SAPE  H18Z18786  -0.083  -0.012   8.612  0.0320  0.4380  0.0230
  167SAPE     N18787   0.838   6.324   6.128  0.4589  0.3603  0.5732
  167SAPE   HN118788   0.763   6.279   6.072  0.7657 -2.7040  2.3943
  167SAPE   HN218789   0.817   6.310   6.229  2.7471 -3.5022  0.6906
  167SAPE   HN318790   0.866   6.415   6.084  0.8793 -1.4101 -3.2566
  167SAPE   C1218791   0.962   6.240   6.100  0.0144  0.9817  0.0097
  167SAPE  H12A18792   0.978   6.215   5.993  0.3916  1.2253  0.0080
  167SAPE  H12B18793   0.930   6.140   6.135 -2.5353  1.2646 -1.2666
  167SAPE   C1118794   1.076   6.295   6.186 -0.5942  1.2456  0.0953
  167SAPE  H11A18795   1.037   6.280   6.289 -1.0408 -0.3388 -0.2752
  167SAPE  H11B18796   1.101   6.403   6.183  0.9335  0.8897 -1.4178
  167SAPE     P18797   1.213   6.075   6.244  0.0905 -0.1913  0.0668
  167SAPE   O1318798   1.113   5.982   6.186 -0.4812  0.4509  0.1873
  167SAPE   O1418799   1.350   6.033   6.248  0.1456  0.4643  0.4201
  167SAPE   O1218800   1.193   6.211   6.167  0.4853  0.1337  0.2744
  167SAPE   O1118801   1.163   6.109   6.394 -0.4774  0.0220 -0.0288
  167SAPE    C118802   1.258   6.166   6.488  0.0742  0.4160 -0.0505
  167SAPE    HA18803   1.330   6.086   6.515 -1.5147 -0.9782  0.2620
  167SAPE    HB18804   1.302   6.261   6.452 -0.5169  0.9034  0.4789
  167SAPE    C218805   1.192   6.200   6.621  0.2711  0.2943 -0.1307
  167SAPE    HS18806   1.278   6.227   6.685 -0.1327 -0.7439  0.8925
  167SAPE   O2118807   1.111   6.095   6.674 -0.2179 -0.6741 -0.0226
  167SAPE   C2118808   1.181   6.019   6.753 -0.2558  0.2438  0.0101
  167SAPE   O2218809   1.303   6.018   6.773  0.9377  0.1067  0.3855
  167SAPE   C2218810   1.090   5.917   6.813 -0.3282  0.0709  0.9350
  167SAPE   H2R18811   0.987   5.957   6.819 -0.4709 -0.0641 -0.2707
  167SAPE   H2S18812   1.084   5.830   6.744  0.3684  1.9609 -1.6837
  167SAPE    C318813   1.103   6.333   6.616 -0.4447  0.2336  0.7732
  167SAPE    HX18814   1.002   6.293   6.593  0.2357 -0.8240 -0.5402
  167SAPE    HY18815   1.129   6.393   6.526  1.8856 -1.8303 -0.0612
  167SAPE   O3118816   1.085   6.410   6.736  0.9502  0.0383 -0.4884
  167SAPE   C3118817   1.182   6.484   6.780 -0.2364  0.6846 -0.5388
  167SAPE   O3218818   1.293   6.497   6.727 -0.0003  0.2816  0.0931
  167SAPE   C3218819   1.141   6.541   6.926 -0.0917 -0.5311  0.1253
  167SAPE   H2X18820   1.051   6.603   6.910 -1.5549 -2.4115  0.6200
  167SAPE   H2Y18821   1.226   6.602   6.963 -0.0893 -0.2502 -0.3359
  167SAPE   C2318822   1.143   5.868   6.951 -0.3579  0.0080  0.0980
  167SAPE   H3R18823   1.154   5.946   7.029  0.5928 -0.5714  0.5638
  167SAPE   H3S18824   1.244   5.822   6.946 -0.6098 -0.9271  2.5080
  167SAPE   C2418825   1.057   5.751   6.991  0.2988  0.3003 -0.6725
  167SAPE   H4R18826   1.109   5.684   7.062 -0.0925 -1.5206 -2.0222
  167SAPE   H4S18827   1.044   5.684   6.903 -0.2311 -0.8479  0.2622
  167SAPE   C2518828   0.923   5.807   7.050  0.1153  0.3000  0.4988
  167SAPE   H5R18829   0.837   5.820   6.983 -0.5136  3.2393  1.7124
  167SAPE   C2618830   0.896   5.828   7.184 -0.6184  0.7111  0.1096
  167SAPE   H6R18831   0.789   5.844   7.205 -0.7812 -0.3219  0.1214
  167SAPE   C2718832   0.994   5.818   7.305  0.9451  0.7157  0.2529
  167SAPE   H7R18833   0.957   5.883   7.387 -0.1877  0.8366 -0.3308
  167SAPE   H7S18834   1.090   5.859   7.268  0.3172  0.9755 -1.1762
  167SAPE   C2818835   1.005   5.677   7.363  0.1656 -0.3748 -0.3673
  167SAPE   H8R18836   1.038   5.604   7.287  1.1876  0.6556 -0.9456
  167SAPE   C2918837   1.007   5.641   7.492 -0.0893 -0.0938  0.6162
  167SAPE   H9R18838   1.036   5.536   7.512 -0.1774 -0.1140  0.6423
  167SAPE  C21018839   0.991   5.733   7.606  0.1076 -0.6124 -0.6079
  167SAPE  H10R18840   1.005   5.842   7.584  1.5770 -0.6855 -0.1261
  167SAPE  H10S18841   1.079   5.707   7.668  0.2211 -2.2797 -1.4240
  167SAPE  C21118842   0.862   5.701   7.673  0.6434  0.9293 -1.1803
  167SAPE  H11R18843   0.774   5.705   7.608  0.7205  0.6387 -1.3041
  167SAPE  C21218844   0.852   5.648   7.792  0.0170  0.7513 -0.0460
  167SAPE  H12R18845   0.756   5.627   7.841 -0.0927  1.8439  0.2145
  167SAPE  C21318846   0.963   5.612   7.891  0.0039 -0.1161  0.3837
  167SAPE  H13R18847   1.024   5.527   7.854  1.3593 -1.1721  4.4393
  167SAPE  H13S18848   0.916   5.558   7.976 -0.0144 -1.7836 -0.6635
  167SAPE  C21418849   1.053   5.725   7.949 -0.3531 -0.7191  0.7320
  167SAPE  H14R18850   1.132   5.756   7.879 -3.0103  0.2486 -2.0514
  167SAPE  C21518851   1.043   5.776   8.070  0.0385  0.1051  0.1557
  167SAPE  H15R18852   1.112   5.852   8.110  2.3559 -0.8842 -1.7469
  167SAPE  C21618853   0.943   5.725   8.166  0.2035  0.0469 -0.3929
  167SAPE  H16R18854   0.858   5.679   8.111  1.5126 -1.6121 -1.1492
  167SAPE  H16S18855   0.905   5.806   8.232 -0.1656 -0.1827 -0.3194
  167SAPE  C21718856   0.977   5.608   8.259  0.4023  0.4218  0.2203
  167SAPE  H17R18857   1.057   5.640   8.330 -0.0135 -2.0896  1.9489
  167SAPE  H17S18858   1.006   5.523   8.194 -1.8106 -0.9375  0.8966
  167SAPE  C21818859   0.869   5.563   8.358  0.7809 -0.0491  0.4231
  167SAPE  H18R18860   0.862   5.643   8.435 -0.2321  4.1316 -3.5533
  167SAPE  H18S18861   0.900   5.462   8.395 -3.5092 -1.8889 -0.4017
  167SAPE  C21918862   0.733   5.546   8.300  0.6747 -0.1943  0.8027
  167SAPE  H19R18863   0.746   5.463   8.227  0.6350  0.1114  0.4491
  167SAPE  H19S18864   0.691   5.622   8.231  0.1412 -2.1465 -1.1607
  167SAPE  C22018865   0.624   5.484   8.391 -0.4731 -0.8238 -0.3295
  167SAPE  H20R18866   0.618   5.536   8.489 -0.6849 -1.8461  0.2070
  167SAPE  H20S18867   0.658   5.383   8.420  0.9953 -0.5324 -0.9401
  167SAPE  H20T18868   0.523   5.476   8.345 -1.0162  2.1323  0.1057
  167SAPE   C3318869   1.113   6.433   7.038 -0.6195  0.2516 -0.6014
  167SAPE   H3X18870   1.105   6.495   7.130  2.7582  0.1164 -0.1143
  167SAPE   H3Y18871   1.207   6.374   7.042 -0.3601  0.6970  0.1943
  167SAPE   C3418872   0.995   6.336   7.011 -0.3116  1.0026  0.3883
  167SAPE   H4X18873   1.006   6.276   6.917 -3.9052  2.5808 -1.2261
  167SAPE   H4Y18874   0.905   6.400   6.995 -0.1035  0.9837 -1.0256
  167SAPE   C3518875   0.976   6.230   7.125 -0.8827  0.5935 -0.3614
  167SAPE   H5X18876   1.078   6.196   7.152 -0.8790  0.4359 -0.5759
  167SAPE   H5Y18877   0.924   6.141   7.084 -1.3677  1.9610 -2.9280
  167SAPE   C3618878   0.921   6.295   7.255 -0.0120  0.3554 -0.1452
  167SAPE   H6X18879   0.817   6.334   7.253  0.4711  1.8319  1.3165
  167SAPE   H6Y18880   0.983   6.379   7.293  2.6018 -1.9984  1.1917
  167SAPE   C3718881   0.919   6.185   7.360 -0.0152 -0.0390  0.3435
  167SAPE   H7X18882   1.019   6.142   7.383  0.3369  0.7730  0.3567
  167SAPE   H7Y18883   0.868   6.098   7.313 -0.1942 -0.0356  0.5300
  167SAPE   C3818884   0.843   6.230   7.487 -0.1460  0.9565 -0.3181
  167SAPE   H8X18885   0.735   6.231   7.463 -0.6354 -0.5509  1.5446
  167SAPE   H8Y18886   0.870   6.335   7.513  0.5403  0.5383  0.7092
  167SAPE   C3918887   0.864   6.131   7.605 -0.2072  0.7902 -0.0714
  167SAPE   H9X18888   0.970   6.133   7.638  0.1402  0.0398 -1.0736
  167SAPE   H9Y18889   0.836   6.031   7.565  0.5531  0.3359  0.4991
  167SAPE  C31018890   0.778   6.157   7.727  0.0527  0.5422 -0.2061
  167SAPE  H10X18891   0.668   6.156   7.713 -0.1303  1.2965  1.0313
  167SAPE  H10Y18892   0.799   6.264   7.751 -1.1996  1.2411 -1.9782
  167SAPE  C31118893   0.810   6.077   7.851 -0.6294 -0.2431 -0.7560
  167SAPE  H11X18894   0.914   6.096   7.887  0.0199 -0.6088 -2.3432
  167SAPE  H11Y18895   0.795   5.970   7.824 -1.7716  0.1143 -1.6083
  167SAPE  C31218896   0.720   6.116   7.969 -0.0108 -0.2801  0.0991
  167SAPE  H12X18897   0.614   6.091   7.948 -0.5769 -1.5499  3.6801
  167SAPE  H12Y18898   0.730   6.218   8.010 -0.5882 -0.2114  0.0846
  167SAPE  C31318899   0.749   6.034   8.100 -0.3162 -0.0667  0.5749
  167SAPE  H13X18900   0.852   6.062   8.132 -0.7622  0.4777  1.5736
  167SAPE  H13Y18901   0.762   5.930   8.065  0.2641  1.1104 -3.1996
  167SAPE  C31418902   0.658   6.063   8.213  0.0275  0.3110  0.1627
  167SAPE  H14X18903   0.556   6.043   8.175  0.4817  1.2968 -1.6757
  167SAPE  H14Y18904   0.653   6.169   8.244 -1.7177  0.0408  0.9259
  167SAPE  C31518905   0.687   5.975   8.334 -0.1213  0.0829 -0.4988
  167SAPE  H15X18906   0.791   6.003   8.364 -0.2926  0.7387 -0.5022
  167SAPE  H15Y18907   0.687   5.867   8.305  0.0348 -0.2983  0.8412
  167SAPE  C31618908   0.588   5.987   8.449  0.3412  0.0832  0.1523
  167SAPE  H16X18909   0.623   5.926   8.535 -0.9600 -1.3328 -0.2862
  167SAPE  H16Y18910   0.490   5.950   8.414  1.7324 -0.7824 -3.1730
  167SAPE  C31718911   0.580   6.128   8.513 -0.0119 -0.9667  0.4279
  167SAPE  H17X18912   0.542   6.204   8.442 -1.9942 -2.2717  0.0382
  167SAPE  H17Y18913   0.685   6.158   8.535 -0.9178  1.8228  1.4280
  167SAPE  C31818914   0.506   6.138   8.640 -0.5080 -0.1222 -0.0220
  167SAPE  H18X18915   0.555   6.082   8.723 -0.7703  1.0374  0.9272
  167SAPE  H18Y18916   0.401   6.103   8.638 -1.4393  2.3703  1.2005
  167SAPE  H18Z18917   0.485   6.243   8.667 -0.8037 -0.4739  1.1784
  168SAPE     N18918   3.745   3.782   6.265 -0.4599  0.3822  0.7076
  168SAPE   HN118919   3.756   3.885   6.256  0.1401  0.2077 -0.9880
  168SAPE   HN218920   3.821   3.741   6.206 -2.2995  0.0159 -1.5052
  168SAPE   HN318921   3.663   3.738   6.219 -0.8677  0.1284  1.6375
  168SAPE   C1218922   3.745   3.738   6.411 -0.0007 -0.4628  0.6674
  168SAPE  H12A18923   3.846   3.773   6.443 -0.4922  1.7364 -0.0573
  168SAPE  H12B18924   3.741   3.627   6.414  2.2304 -0.6649 -1.2957
  168SAPE   C1118925   3.627   3.803   6.486 -0.3629  0.1597  0.6303
  168SAPE  H11A18926   3.606   3.767   6.589 -0.3060 -0.4900  0.4180
  168SAPE  H11B18927   3.537   3.779   6.426 -0.3691  3.2742 -0.8187
  168SAPE     P18928   3.728   4.014   6.593 -0.2090  0.3827  0.1291
  168SAPE   O1318929   3.864   3.981   6.538 -0.0603 -0.0757 -0.0426
  168SAPE   O1418930   3.705   4.153   6.626 -0.0169 -0.2794 -0.0424
  168SAPE   O1218931   3.629   3.945   6.487 -0.3074 -0.3459  0.6957
  168SAPE   O1118932   3.697   3.936   6.723 -0.1948  0.2089 -0.2901
  168SAPE    C118933   3.578   3.957   6.798  0.0789  0.2502 -0.4692
  168SAPE    HA18934   3.527   4.055   6.789 -0.4528  0.3698  2.6537
  168SAPE    HB18935   3.502   3.885   6.760  0.5298 -0.5668  0.1431
  168SAPE    C218936   3.616   3.957   6.954  1.2626 -0.0741  0.4302
  168SAPE    HS18937   3.690   4.040   6.962  2.2099 -0.5483 -2.2119
  168SAPE   O2118938   3.676   3.827   6.973  0.3479 -0.3141  0.3259
  168SAPE   C2118939   3.802   3.843   7.007 -0.2745 -0.0178  0.1392
  168SAPE   O2218940   3.870   3.943   7.028 -0.4481  0.2518  0.1480
  168SAPE   C2218941   3.854   3.700   7.019 -0.1630 -0.1985  0.5642
  168SAPE   H2R18942   3.784   3.637   7.078 -0.2541  0.4706  1.1765
  168SAPE   H2S18943   3.847   3.657   6.917 -0.8430  1.1983 -0.0016
  168SAPE    C318944   3.491   3.970   7.037  0.2409 -0.1172 -0.0490
  168SAPE    HX18945   3.416   3.896   7.001 -1.5098  0.5919  1.8865
  168SAPE    HY18946   3.457   4.075   7.019  2.4940  0.5392 -0.7568
  168SAPE   O3118947   3.532   3.964   7.179  0.2921  0.1143 -1.0410
  168SAPE   C3118948   3.490   3.860   7.249 -0.5545 -0.5574  0.4082
  168SAPE   O3218949   3.455   3.756   7.200  0.4107 -0.4186 -0.1931
  168SAPE   C3218950   3.494   3.887   7.402  0.4442 -0.3949  0.6311
  168SAPE   H2X18951   3.437   3.981   7.416 -2.5951 -1.9350 -0.3345
  168SAPE   H2Y18952   3.600   3.907   7.429  0.1261  2.8292 -0.1732
  168SAPE   C2318953   4.007   3.702   7.057  0.5189  0.7670  0.0770
  168SAPE   H3R18954   4.015   3.715   7.167 -1.1466  1.5545  0.1379
  168SAPE   H3S18955   4.071   3.776   7.004 -0.1676  0.8406 -0.6715
  168SAPE   C2418956   4.080   3.566   7.027 -0.3344  0.5292 -0.6532
  168SAPE   H4R18957   4.073   3.547   6.918 -0.4561  2.8905 -1.0975
  168SAPE   H4S18958   4.034   3.480   7.079  2.7485 -1.2401 -0.6039
  168SAPE   C2518959   4.223   3.567   7.080  0.1222 -0.5525 -0.2992
  168SAPE   H5R18960   4.287   3.635   7.021  0.4042 -0.7407 -0.2089
  168SAPE   C2618961   4.277   3.503   7.195 -0.8170 -0.0471  1.0514
  168SAPE   H6R18962   4.381   3.522   7.223  0.0985 -0.6076 -1.6860
  168SAPE   C2718963   4.205   3.416   7.294 -0.7860  0.1170  0.2854
  168SAPE   H7R18964   4.243   3.313   7.305  0.6734  0.8429  2.7837
  168SAPE   H7S18965   4.102   3.406   7.254 -0.2335 -1.0729 -0.9556
  168SAPE   C2818966   4.210   3.503   7.419  0.3952  0.4341 -0.7900
  168SAPE   H8R18967   4.173   3.606   7.417 -1.2817 -0.0623  1.2969
  168SAPE   C2918968   4.236   3.453   7.542 -0.2749 -0.0640 -0.6249
  168SAPE   H9R18969   4.231   3.522   7.628  0.7398 -0.0672 -0.5553
  168SAPE  C21018970   4.267   3.312   7.575  0.6529 -0.0912 -0.1391
  168SAPE  H10R18971   4.370   3.277   7.555  2.4267  2.9002  2.8046
  168SAPE  H10S18972   4.201   3.247   7.513  1.0994  0.5836 -1.3415
  168SAPE  C21118973   4.228   3.288   7.719  0.1743  0.6157  0.2712
  168SAPE  H11R18974   4.135   3.234   7.744  1.7076 -2.8547 -0.8531
  168SAPE  C21218975   4.305   3.321   7.830 -0.3410 -0.1681 -0.3366
  168SAPE  H12R18976   4.256   3.312   7.928  0.0268  0.6389 -0.0719
  168SAPE  C21318977   4.435   3.399   7.831  0.0253  0.1170  0.8692
  168SAPE  H13R18978   4.419   3.508   7.833 -1.1700 -0.0321  0.3368
  168SAPE  H13S18979   4.495   3.371   7.742  0.7237 -1.5818  1.8130
  168SAPE  C21418980   4.534   3.365   7.945 -0.1759 -0.3203  0.2006
  168SAPE  H14R18981   4.614   3.295   7.916 -0.7008 -0.4514 -1.0073
  168SAPE  C21518982   4.518   3.406   8.069 -0.8872  0.3491 -0.3467
  168SAPE  H15R18983   4.590   3.373   8.145 -0.9593 -0.8808 -0.7864
  168SAPE  C21618984   4.410   3.493   8.114  0.3720  0.0263  0.8541
  168SAPE  H16R18985   4.343   3.431   8.178 -0.3634 -0.6132 -0.4864
  168SAPE  H16S18986   4.350   3.529   8.027  0.6622  0.0345  0.6550
  168SAPE  C21718987   4.462   3.623   8.187 -0.2114  1.1004  0.7080
  168SAPE  H17R18988   4.543   3.676   8.132  1.5727 -2.5864 -0.5851
  168SAPE  H17S18989   4.509   3.591   8.283 -1.7063 -0.5729  0.9373
  168SAPE  C21818990   4.347   3.710   8.215 -0.4374 -0.2368  0.0143
  168SAPE  H18R18991   4.270   3.650   8.267  0.1237 -1.7145 -0.8164
  168SAPE  H18S18992   4.314   3.751   8.117 -0.9830  0.1664  0.3678
  168SAPE  C21918993   4.366   3.837   8.299 -0.5020  0.3122 -0.4058
  168SAPE  H19R18994   4.441   3.911   8.263  1.0019 -1.0204 -0.1361
  168SAPE  H19S18995   4.416   3.810   8.394  2.1255  0.2305 -1.7106
  168SAPE  C22018996   4.229   3.905   8.321 -0.0794  0.8244  1.1429
  168SAPE  H20R18997   4.158   3.838   8.374 -0.6117  0.3927 -0.0722
  168SAPE  H20S18998   4.166   3.923   8.231  0.2060 -4.2139 -0.3535
  168SAPE  H20T18999   4.241   3.999   8.380  0.2484  0.4688  1.6511
  168SAPE   C3319000   3.429   3.782   7.487 -0.3336  0.1772  0.1717
  168SAPE   H3X19001   3.500   3.700   7.508  1.2831  1.4964  0.1369
  168SAPE   H3Y19002   3.346   3.735   7.430 -0.0709 -0.3010  0.1789
  168SAPE   C3419003   3.362   3.830   7.614 -0.2546 -0.3411  0.2639
  168SAPE   H4X19004   3.293   3.757   7.660 -1.4318  0.5767  0.0082
  168SAPE   H4Y19005   3.288   3.909   7.589 -0.0469  1.6475  4.9455
  168SAPE   C3519006   3.465   3.894   7.716 -0.0202  0.9765 -0.0593
  168SAPE   H5X19007   3.545   3.950   7.662 -0.2722  1.5628  0.1691
  168SAPE   H5Y19008   3.522   3.816   7.769  0.4561 -0.6215 -2.7076
  168SAPE   C3619009   3.391   3.988   7.808 -0.0410 -1.0628 -0.5310
  168SAPE   H6X19010   3.314   3.939   7.870  0.5068  1.0711  1.9923
  168SAPE   H6Y19011   3.345   4.071   7.750  0.3658 -0.4832 -0.0352
  168SAPE   C3719012   3.474   4.061   7.921  0.1226  0.0405  0.5200
  168SAPE   H7X19013   3.540   4.136   7.871 -0.6529 -0.9226 -2.1448
  168SAPE   H7Y19014   3.542   3.980   7.955 -0.1723 -0.6677 -0.5337
  168SAPE   C3819015   3.390   4.118   8.033  0.6197  0.3313  0.2869
  168SAPE   H8X19016   3.325   4.043   8.083 -1.3666  1.3118 -0.7251
  168SAPE   H8Y19017   3.318   4.197   8.001 -0.6297 -1.0984 -0.5562
  168SAPE   C3919018   3.480   4.170   8.144  0.0883  0.2710 -0.2665
  168SAPE   H9X19019   3.544   4.257   8.116 -2.2702  2.0708 -0.3165
  168SAPE   H9Y19020   3.550   4.090   8.178 -1.1599 -1.4116 -1.4582
  168SAPE  C31019021   3.396   4.218   8.265 -0.0004  0.2441  0.0338
  168SAPE  H10X19022   3.338   4.130   8.301 -1.1086  0.6598 -0.6667
  168SAPE  H10Y19023   3.323   4.297   8.237 -0.1306  0.0803 -0.0915
  168SAPE  C31119024   3.465   4.268   8.388 -1.1571 -0.1808  0.0192
  168SAPE  H11X19025   3.533   4.353   8.365 -1.2202 -0.4692 -1.3057
  168SAPE  H11Y19026   3.536   4.197   8.434 -0.1120  0.4992 -0.5166
  168SAPE  C31219027   3.354   4.307   8.483 -0.2946  0.3710 -0.1330
  168SAPE  H12X19028   3.304   4.215   8.519 -0.0305 -0.5653 -2.0146
  168SAPE  H12Y19029   3.279   4.369   8.429 -0.4834 -0.1310 -0.4540
  168SAPE  C31319030   3.402   4.398   8.600 -0.4662 -0.5696  0.0091
  168SAPE  H13X19031   3.414   4.502   8.562  0.9639 -0.8123 -0.2584
  168SAPE  H13Y19032   3.504   4.360   8.623 -0.6276 -1.5292 -0.8205
  168SAPE  C31419033   3.309   4.396   8.724  0.4902  0.3121  0.1472
  168SAPE  H14X19034   3.342   4.465   8.805 -0.1720 -0.7560  1.3665
  168SAPE  H14Y19035   3.296   4.291   8.756 -3.9483  1.2350  2.2787
  168SAPE  C31519036   3.162   4.441   8.692 -0.2742 -0.1274 -0.0541
  168SAPE  H15X19037   3.125   4.353   8.636 -0.2515 -0.3192  0.2283
  168SAPE  H15Y19038   3.158   4.531   8.628  0.1883 -0.1667 -0.1426
  168SAPE  C31619039   3.087   4.450   8.826 -0.0223  0.1948  0.0385
  168SAPE  H16X19040   3.128   4.537   8.883  0.6332  0.8953 -1.4649
  168SAPE  H16Y19041   3.108   4.358   8.884  2.5358  1.3852  1.1853
  168SAPE  C31719042   2.937   4.478   8.804 -0.5026  0.0337  0.2334
  168SAPE  H17X19043   2.891   4.398   8.743  0.7821 -2.2859  2.1334
  168SAPE  H17Y19044   2.940   4.571   8.744  1.9409  0.6835  1.2546
  168SAPE  C31819045   2.852   4.502   8.931 -0.6287  0.1211  0.1828
  168SAPE  H18X19046   2.742   4.503   8.918 -0.4891 -0.2953 -1.2685
  168SAPE  H18Y19047   2.876   4.593   8.989  1.0292  0.8104 -1.4726
  168SAPE  H18Z19048   2.867   4.416   8.999 -1.1693 -1.1003 -1.1734
  169SAPE     N19049   5.900   2.402   6.253 -0.1737  0.8052  0.1575
  169SAPE   HN119050   5.814   2.368   6.206  1.7111 -2.1864 -1.4197
  169SAPE   HN219051   5.882   2.503   6.267 -0.7573  0.5720  1.2828
  169SAPE   HN319052   5.974   2.380   6.184 -2.5674 -1.2255 -1.9587
  169SAPE   C1219053   5.929   2.319   6.369  0.3172 -0.2771  0.3667
  169SAPE  H12A19054   5.970   2.223   6.330  0.4901  1.4085 -4.1341
  169SAPE  H12B19055   5.828   2.298   6.413 -0.3420  0.6111 -0.6775
  169SAPE   C1119056   6.032   2.385   6.455  0.4763 -0.1483 -0.0081
  169SAPE  H11A19057   6.057   2.321   6.542  2.0985  1.5077  0.8252
  169SAPE  H11B19058   5.990   2.483   6.488  0.3864 -1.0137  2.7384
  169SAPE     P19059   6.288   2.341   6.409  0.1221  0.3717 -0.1593
  169SAPE   O1319060   6.289   2.199   6.355  0.1903  0.1966  0.0766
  169SAPE   O1419061   6.397   2.428   6.357 -0.3078 -0.1356  0.1448
  169SAPE   O1219062   6.149   2.407   6.375  0.6746 -0.5023  0.1790
  169SAPE   O1119063   6.288   2.340   6.568 -0.5126  0.0421 -0.1256
  169SAPE    C119064   6.283   2.458   6.652  0.4435  0.0170  0.3044
  169SAPE    HA19065   6.273   2.548   6.588 -0.8640  0.4942  1.1500
  169SAPE    HB19066   6.190   2.453   6.712  0.7183  1.0806  0.8299
  169SAPE    C219067   6.405   2.457   6.746  0.4155  0.3734  0.0862
  169SAPE    HS19068   6.505   2.461   6.698 -0.4529  1.5339 -1.7559
  169SAPE   O2119069   6.398   2.337   6.824  0.4166 -0.1249 -0.1121
  169SAPE   C2119070   6.508   2.294   6.884  0.0160  0.1502  1.1094
  169SAPE   O2219071   6.623   2.325   6.850  0.0404 -0.6086  0.5087
  169SAPE   C2219072   6.464   2.230   7.012  0.4277 -0.9644  0.0539
  169SAPE   H2R19073   6.414   2.314   7.065  3.4515  0.2993  1.0891
  169SAPE   H2S19074   6.391   2.153   6.980 -0.6006 -0.0724  0.1991
  169SAPE    C319075   6.409   2.583   6.840 -0.6776 -0.0933  0.3183
  169SAPE    HX19076   6.306   2.601   6.878 -0.7178  0.5433 -0.0831
  169SAPE    HY19077   6.431   2.666   6.770 -1.6782 -0.3293 -0.3103
  169SAPE   O3119078   6.505   2.572   6.948  0.2849 -0.1451  0.3603
  169SAPE   C3119079   6.476   2.662   7.047  0.5548  0.7024  0.6138
  169SAPE   O3219080   6.392   2.749   7.036 -0.4942  0.1623 -0.4126
  169SAPE   C3219081   6.567   2.638   7.166  0.2442 -0.6100 -0.6103
  169SAPE   H2X19082   6.671   2.653   7.129  0.4284  0.7925  0.4051
  169SAPE   H2Y19083   6.553   2.539   7.214  1.3693  1.2321  4.0599
  169SAPE   C2319084   6.581   2.173   7.092 -0.3712  0.1348  0.1308
  169SAPE   H3R19085   6.649   2.258   7.118  2.3215 -1.8122 -0.1604
  169SAPE   H3S19086   6.638   2.101   7.030 -0.0242 -0.4306  1.0887
  169SAPE   C2419087   6.534   2.101   7.218  0.2215  0.1641  0.1912
  169SAPE   H4R19088   6.620   2.050   7.265  1.6736  1.6520 -0.7504
  169SAPE   H4S19089   6.462   2.022   7.188 -0.2994  1.3730 -1.9561
  169SAPE   C2519090   6.465   2.203   7.307 -0.6252  0.1016  0.4056
  169SAPE   H5R19091   6.363   2.233   7.281 -0.0312  1.4906 -0.3899
  169SAPE   C2619092   6.516   2.254   7.423 -1.2018  0.1642  1.1593
  169SAPE   H6R19093   6.454   2.319   7.486 -2.0892 -1.4445  2.0167
  169SAPE   C2719094   6.655   2.223   7.486 -0.0335 -0.1369 -0.1553
  169SAPE   H7R19095   6.706   2.320   7.471 -0.1139 -0.2036 -0.8885
  169SAPE   H7S19096   6.718   2.147   7.435 -0.7708 -0.8026 -0.0952
  169SAPE   C2819097   6.636   2.196   7.632 -0.5641 -0.2581  0.0450
  169SAPE   H8R19098   6.530   2.179   7.660 -0.3207 -0.7981  0.6622
  169SAPE   C2919099   6.733   2.194   7.720  0.1542 -0.6629 -0.5486
  169SAPE   H9R19100   6.708   2.179   7.826  1.8492  1.0663  0.1618
  169SAPE  C21019101   6.875   2.222   7.708  0.0935  0.2425  0.0411
  169SAPE  H10R19102   6.886   2.295   7.625  0.9277  2.2627  1.8321
  169SAPE  H10S19103   6.920   2.125   7.677  1.3862  0.8317  0.0319
  169SAPE  C21119104   6.944   2.271   7.833 -0.7057  0.2444 -0.7538
  169SAPE  H11R19105   6.977   2.375   7.821  4.4535 -1.1531 -1.0541
  169SAPE  C21219106   6.980   2.203   7.948 -0.6355 -0.3441 -0.0707
  169SAPE  H12R19107   7.032   2.258   8.028 -1.9210 -2.3066  2.2433
  169SAPE  C21319108   6.959   2.057   7.976  0.2619 -0.4861  0.7502
  169SAPE  H13R19109   7.054   1.999   7.977  0.6369  0.1053  0.3758
  169SAPE  H13S19110   6.887   2.012   7.905  2.3268  0.0970 -1.8855
  169SAPE  C21419111   6.898   2.040   8.112  0.2779 -0.1588  0.0700
  169SAPE  H14R19112   6.796   1.999   8.104 -0.3322  1.5704 -1.5769
  169SAPE  C21519113   6.945   2.052   8.238  0.4731 -0.5373 -0.1638
  169SAPE  H15R19114   6.874   2.049   8.322  1.5879  0.6228  0.8736
  169SAPE  C21619115   7.087   2.078   8.273 -0.1946 -0.0168 -0.2571
  169SAPE  H16R19116   7.094   2.163   8.344  0.9535 -0.5738  0.3168
  169SAPE  H16S19117   7.156   2.103   8.190 -0.6170  0.9066 -0.3541
  169SAPE  C21719118   7.172   1.961   8.332 -0.3754 -0.5884 -0.2027
  169SAPE  H17R19119   7.121   1.925   8.423  0.4312  2.3407  1.5540
  169SAPE  H17S19120   7.272   2.001   8.357 -0.8500  3.2110 -3.2918
  169SAPE  C21819121   7.186   1.843   8.240 -0.1456 -0.2558  0.5797
  169SAPE  H18R19122   7.207   1.875   8.136  2.9343  1.6657  1.6673
  169SAPE  H18S19123   7.090   1.788   8.232  0.0601 -0.3796 -1.6804
  169SAPE  C21919124   7.288   1.744   8.282 -0.3222 -0.0515  0.4573
  169SAPE  H19R19125   7.379   1.800   8.310 -0.6741  1.1345 -0.6702
  169SAPE  H19S19126   7.300   1.685   8.189 -1.9961  1.6649 -0.9404
  169SAPE  C22019127   7.241   1.657   8.398  0.1642  0.0517  0.2490
  169SAPE  H20R19128   7.231   1.722   8.488  0.2771  1.6152 -0.8113
  169SAPE  H20S19129   7.314   1.579   8.428 -0.2253  0.3800  2.1876
  169SAPE  H20T19130   7.140   1.612   8.386 -0.6508  1.1597  2.3636
  169SAPE   C3319131   6.520   2.722   7.282  0.6700  0.4787 -0.5813
  169SAPE   H3X19132   6.416   2.693   7.307  0.0837  1.9154 -1.3013
  169SAPE   H3Y19133   6.525   2.830   7.257  0.1897  0.6478  0.0294
  169SAPE   C3419134   6.603   2.687   7.409 -0.7955  0.1748  0.4577
  169SAPE   H4X19135   6.699   2.740   7.399 -0.2997 -0.6773  0.6085
  169SAPE   H4Y19136   6.618   2.577   7.414  2.0333  0.5643  2.2388
  169SAPE   C3519137   6.548   2.744   7.546  0.6200 -0.6686  0.6701
  169SAPE   H5X19138   6.442   2.710   7.556  0.5612 -0.0776  2.3767
  169SAPE   H5Y19139   6.560   2.853   7.534  0.5089 -0.6857  0.4036
  169SAPE   C3619140   6.633   2.700   7.664 -0.1808 -0.2351 -0.2830
  169SAPE   H6X19141   6.740   2.695   7.635 -0.1195  2.1659 -0.6390
  169SAPE   H6Y19142   6.600   2.602   7.705 -3.2122  0.7484 -0.0975
  169SAPE   C3719143   6.632   2.806   7.777  0.0090  0.1149 -0.0797
  169SAPE   H7X19144   6.677   2.898   7.732  1.1300 -1.0313 -1.3794
  169SAPE   H7Y19145   6.714   2.774   7.845 -0.6596 -0.6026  0.3966
  169SAPE   C3819146   6.496   2.837   7.843 -0.1425  0.4194  0.3425
  169SAPE   H8X19147   6.437   2.744   7.858  1.6044 -0.5369  1.5971
  169SAPE   H8Y19148   6.443   2.894   7.764  0.6806  1.2940  0.4109
  169SAPE   C3919149   6.515   2.911   7.970 -0.0466  0.0999  0.0924
  169SAPE   H9X19150   6.578   3.001   7.954 -0.8469  0.2387 -2.9723
  169SAPE   H9Y19151   6.567   2.845   8.043  1.3274 -0.4089 -1.2974
  169SAPE  C31019152   6.385   2.963   8.024  0.1506 -0.5087 -0.2412
  169SAPE  H10X19153   6.315   2.881   8.052 -0.6485  0.9547  2.4853
  169SAPE  H10Y19154   6.340   3.028   7.946  2.0403 -1.0559 -1.8469
  169SAPE  C31119155   6.409   3.030   8.158 -0.1999 -0.7495  0.0776
  169SAPE  H11X19156   6.338   3.109   8.191  0.9513  0.1250  0.5186
  169SAPE  H11Y19157   6.494   3.099   8.139 -2.8775  2.5968 -0.6827
  169SAPE  C31219158   6.442   2.938   8.272 -0.2531  0.4407 -0.2436
  169SAPE  H12X19159   6.483   3.006   8.349  2.4671  2.0446 -2.9145
  169SAPE  H12Y19160   6.517   2.860   8.248  2.4271  3.2931 -1.8098
  169SAPE  C31319161   6.317   2.874   8.337 -0.2176  0.5875  0.4331
  169SAPE  H13X19162   6.275   2.790   8.278  3.5865 -1.3008  0.0947
  169SAPE  H13Y19163   6.240   2.954   8.342 -0.2293  1.0016 -3.5851
  169SAPE  C31419164   6.328   2.837   8.487  0.1771 -0.2208  0.4640
  169SAPE  H14X19165   6.227   2.812   8.525 -0.2582  3.0905  1.7886
  169SAPE  H14Y19166   6.362   2.931   8.535  2.0997 -0.4691 -0.3006
  169SAPE  C31519167   6.418   2.715   8.508 -1.2471 -0.1932 -0.0591
  169SAPE  H15X19168   6.521   2.738   8.473 -0.9353  0.3544  1.1906
  169SAPE  H15Y19169   6.387   2.632   8.440 -1.4183 -0.8747  0.8324
  169SAPE  C31619170   6.425   2.653   8.649 -1.0532  0.0589 -1.0949
  169SAPE  H16X19171   6.325   2.625   8.687  0.1090 -3.6898 -0.4285
  169SAPE  H16Y19172   6.461   2.734   8.716 -2.6093 -0.4861  0.4809
  169SAPE  C31719173   6.515   2.530   8.662 -0.1594  1.1127 -0.1188
  169SAPE  H17X19174   6.604   2.534   8.596  0.0709  2.2449  0.2418
  169SAPE  H17Y19175   6.448   2.447   8.631 -1.2228  1.7516  0.3923
  169SAPE  C31819176   6.553   2.495   8.806  0.5816 -0.2053  0.8141
  169SAPE  H18X19177   6.461   2.504   8.867  0.2090 -0.1661  0.2519
  169SAPE  H18Y19178   6.631   2.570   8.832 -1.1507  1.7207  0.7125
  169SAPE  H18Z19179   6.589   2.390   8.809 -1.4100 -0.9272  1.0349
  170SAPE     N19180   2.352   2.334   6.499 -0.9861 -0.5694  0.0677
  170SAPE   HN119181   2.273   2.286   6.453 -0.5558 -1.4669  0.2551
  170SAPE   HN219182   2.351   2.329   6.603 -1.6860  0.7667  0.1472
  170SAPE   HN319183   2.343   2.434   6.471  1.8344 -0.1325  0.4002
  170SAPE   C1219184   2.495   2.290   6.467  0.5560  0.4153 -0.3557
  170SAPE  H12A19185   2.553   2.308   6.560 -2.3052  1.6772  1.3202
  170SAPE  H12B19186   2.542   2.352   6.388  0.8154 -0.9841 -1.3335
  170SAPE   C1119187   2.499   2.142   6.438  0.4087  0.3267  0.1439
  170SAPE  H11A19188   2.477   2.094   6.535 -1.9862  0.1900 -0.3934
  170SAPE  H11B19189   2.603   2.111   6.414  0.6958  0.4494  1.2045
  170SAPE     P19190   2.399   1.971   6.259 -0.1988  0.4722  0.1839
  170SAPE   O1319191   2.280   1.968   6.178  0.0108  0.6311  0.3387
  170SAPE   O1419192   2.525   1.960   6.186  0.5930 -0.2192  0.7009
  170SAPE   O1219193   2.400   2.111   6.338 -0.1645  0.4146  0.2056
  170SAPE   O1119194   2.390   1.870   6.373 -0.3413 -0.2892  0.1271
  170SAPE    C119195   2.412   1.729   6.342 -0.4799 -0.8793  0.6085
  170SAPE    HA19196   2.317   1.677   6.317  0.3156 -1.2236 -2.1015
  170SAPE    HB19197   2.479   1.721   6.254 -0.5716  0.3354  0.4053
  170SAPE    C219198   2.490   1.658   6.455  0.4715 -0.0751 -0.2257
  170SAPE    HS19199   2.489   1.547   6.447  0.7048 -0.2642  1.7906
  170SAPE   O2119200   2.431   1.694   6.578  0.2525  0.3730  0.0402
  170SAPE   C2119201   2.320   1.620   6.600 -0.6065 -0.3623  0.4198
  170SAPE   O2219202   2.263   1.558   6.508  0.0310  0.1200 -0.3562
  170SAPE   C2219203   2.274   1.629   6.743 -0.2997  0.1534 -0.5300
  170SAPE   H2R19204   2.245   1.731   6.776 -0.5837 -1.0381  3.2976
  170SAPE   H2S19205   2.175   1.580   6.730 -0.0736  0.0022 -1.9031
  170SAPE    C319206   2.638   1.707   6.467  0.7228  1.1116  0.7352
  170SAPE    HX19207   2.640   1.818   6.473 -2.5012  1.2648  0.8592
  170SAPE    HY19208   2.674   1.675   6.367 -1.0252 -0.7249  0.6118
  170SAPE   O3119209   2.700   1.646   6.586 -0.2205  0.1723  0.7410
  170SAPE   C3119210   2.794   1.556   6.569 -0.5429  0.1734 -0.2422
  170SAPE   O3219211   2.831   1.508   6.465 -0.0819 -0.0068  0.6768
  170SAPE   C3219212   2.868   1.538   6.704 -0.4049  1.2180 -0.3901
  170SAPE   H2X19213   2.816   1.592   6.786 -0.7457 -0.8348  0.8088
  170SAPE   H2Y19214   2.966   1.588   6.690  1.3225 -1.2340  1.9037
  170SAPE   C2319215   2.374   1.564   6.852 -0.1615  0.4534 -0.8691
  170SAPE   H3R19216   2.345   1.601   6.952 -0.5850  0.4404 -0.9868
  170SAPE   H3S19217   2.477   1.585   6.815  0.4528 -2.0846 -0.7768
  170SAPE   C2419218   2.361   1.408   6.848 -0.8700 -0.6522 -0.2090
  170SAPE   H4R19219   2.451   1.375   6.904  0.3918  1.6688 -0.7633
  170SAPE   H4S19220   2.359   1.366   6.746 -3.3647  0.8001 -0.8618
  170SAPE   C2519221   2.226   1.354   6.903 -0.5398  0.0749 -0.2932
  170SAPE   H5R19222   2.148   1.337   6.827 -0.4580  1.1467 -0.6418
  170SAPE   C2619223   2.197   1.311   7.025  0.4692 -0.7203  0.0944
  170SAPE   H6R19224   2.094   1.278   7.041 -0.0476  0.8895  0.2134
  170SAPE   C2719225   2.282   1.317   7.148  0.8313  0.2849  0.1809
  170SAPE   H7R19226   2.385   1.349   7.120 -0.1417  0.7974 -3.2643
  170SAPE   H7S19227   2.288   1.213   7.187  0.5999  0.0236 -0.4830
  170SAPE   C2819228   2.219   1.395   7.258  0.2478 -0.2474 -0.4625
  170SAPE   H8R19229   2.198   1.500   7.232  1.3158  0.6293  1.8497
  170SAPE   C2919230   2.189   1.358   7.380 -0.3696  0.2399  0.0312
  170SAPE   H9R19231   2.145   1.427   7.454 -1.0274 -0.2937  0.1430
  170SAPE  C21019232   2.206   1.225   7.440 -0.0617 -0.0197  0.3275
  170SAPE  H10R19233   2.195   1.157   7.352  0.3043 -0.1398  0.3744
  170SAPE  H10S19234   2.116   1.194   7.497 -0.2018  0.6088  0.4544
  170SAPE  C21119235   2.337   1.198   7.510  0.4379 -0.0960 -0.2108
  170SAPE  H11R19236   2.401   1.143   7.440  1.8855 -0.6411  1.4741
  170SAPE  C21219237   2.370   1.223   7.638  0.2898 -0.3934 -0.1714
  170SAPE  H12R19238   2.469   1.194   7.677 -0.4598  0.9376  3.0695
  170SAPE  C21319239   2.286   1.301   7.740  0.5265  0.0660 -0.1474
  170SAPE  H13R19240   2.236   1.386   7.689  0.3832  0.5739  0.8044
  170SAPE  H13S19241   2.360   1.350   7.807  2.9227 -2.1589 -1.0157
  170SAPE  C21419242   2.187   1.236   7.834  0.2440 -0.1396  0.6172
  170SAPE  H14R19243   2.083   1.272   7.826 -0.4472 -2.0848  0.2382
  170SAPE  C21519244   2.214   1.143   7.930 -0.0413 -0.6419  0.1197
  170SAPE  H15R19245   2.131   1.109   7.993 -3.2182  1.4971 -2.5924
  170SAPE  C21619246   2.341   1.073   7.970  0.1993  0.3873  1.2631
  170SAPE  H16R19247   2.423   1.148   7.976  0.3321  0.6218 -1.8235
  170SAPE  H16S19248   2.378   0.991   7.905  3.6093  1.8422  1.1280
  170SAPE  C21719249   2.332   1.015   8.118 -0.6489  0.2132  0.3505
  170SAPE  H17R19250   2.249   0.942   8.108 -1.1278  0.8125 -0.1855
  170SAPE  H17S19251   2.297   1.097   8.183  0.9222  1.7004 -0.5950
  170SAPE  C21819252   2.466   0.964   8.174 -0.5646  0.3057 -0.5543
  170SAPE  H18R19253   2.536   1.049   8.187 -2.0250  1.2674  1.7465
  170SAPE  H18S19254   2.499   0.894   8.094 -0.3778  0.6852 -0.8130
  170SAPE  C21919255   2.468   0.892   8.307  0.6496 -0.5515 -0.0951
  170SAPE  H19R19256   2.570   0.862   8.340  1.0674  2.8750  2.2349
  170SAPE  H19S19257   2.404   0.801   8.305  2.0299 -1.5395 -0.8432
  170SAPE  C22019258   2.405   0.985   8.407 -0.2624 -0.3838  0.2230
  170SAPE  H20R19259   2.384   0.940   8.506  1.3416  0.8287  1.1582
  170SAPE  H20S19260   2.307   1.030   8.379 -0.9761 -0.8364  1.8583
  170SAPE  H20T19261   2.475   1.069   8.427  1.8329 -1.4611 -2.1624
  170SAPE   C3319262   2.894   1.396   6.750 -0.2070 -0.7833  0.5066
  170SAPE   H3X19263   2.977   1.401   6.824  0.7121 -0.1032 -0.5428
  170SAPE   H3Y19264   2.918   1.327   6.667  0.2708 -1.8617  1.5054
  170SAPE   C3419265   2.770   1.342   6.823 -0.1721 -0.2308 -0.1235
  170SAPE   H4X19266   2.809   1.241   6.847 -0.4600 -0.7706 -1.7901
  170SAPE   H4Y19267   2.675   1.331   6.767 -0.0958  2.0007 -0.8085
  170SAPE   C3519268   2.755   1.414   6.964  0.8833 -0.1966  0.3848
  170SAPE   H5X19269   2.680   1.496   6.955  0.4150 -0.4120  2.0435
  170SAPE   H5Y19270   2.853   1.456   6.993  1.4487 -1.1878 -0.0788
  170SAPE   C3619271   2.720   1.310   7.072 -0.4763 -0.4301  0.3216
  170SAPE   H6X19272   2.789   1.224   7.058  0.8952  0.9861 -2.5016
  170SAPE   H6Y19273   2.616   1.274   7.054  0.7413 -3.4853 -1.4519
  170SAPE   C3719274   2.748   1.368   7.211 -0.2591  0.2361 -0.0085
  170SAPE   H7X19275   2.705   1.470   7.224 -3.1554 -1.0032  0.9881
  170SAPE   H7Y19276   2.858   1.378   7.225 -0.4495  1.4490  0.7550
  170SAPE   C3819277   2.714   1.275   7.328  0.1205  0.4623  0.3339
  170SAPE   H8X19278   2.764   1.176   7.318 -3.1447 -1.2235 -1.0284
  170SAPE   H8Y19279   2.604   1.257   7.332  0.1370  0.1622 -0.4178
  170SAPE   C3919280   2.749   1.329   7.462 -0.0105 -0.5112 -0.6482
  170SAPE   H9X19281   2.686   1.419   7.482  2.3231  1.1688 -0.4508
  170SAPE   H9Y19282   2.852   1.370   7.469 -0.5395  0.7334  0.2513
  170SAPE  C31019283   2.737   1.222   7.570  0.5222 -0.0698  0.3113
  170SAPE  H10X19284   2.831   1.163   7.559  2.4483  2.6016  1.4530
  170SAPE  H10Y19285   2.649   1.157   7.550 -0.0122  0.4691  0.8952
  170SAPE  C31119286   2.737   1.288   7.708 -0.0068  0.0981 -0.0187
  170SAPE  H11X19287   2.641   1.343   7.710  0.5152  1.0442  2.7303
  170SAPE  H11Y19288   2.812   1.369   7.710  0.5882 -0.4436  0.1443
  170SAPE  C31219289   2.738   1.194   7.826  0.1731 -1.1255 -1.1229
  170SAPE  H12X19290   2.826   1.126   7.815  0.8824 -0.3211 -0.5807
  170SAPE  H12Y19291   2.643   1.137   7.824 -0.3785 -0.2472 -0.4816
  170SAPE  C31319292   2.752   1.273   7.953 -0.2303 -0.0432 -0.7656
  170SAPE  H13X19293   2.653   1.312   7.983 -0.6111 -2.6822  1.9181
  170SAPE  H13Y19294   2.826   1.355   7.945 -0.0319  0.3483  3.3411
  170SAPE  C31419295   2.804   1.180   8.067 -0.8443 -0.4392  0.0419
  170SAPE  H14X19296   2.766   1.078   8.044 -0.4044 -0.4979 -0.4298
  170SAPE  H14Y19297   2.761   1.218   8.162  1.0197 -2.0068  1.5774
  170SAPE  C31519298   2.959   1.172   8.096  0.7868  0.0216 -0.0263
  170SAPE  H15X19299   2.997   1.273   8.071 -2.8488  2.3875  2.9950
  170SAPE  H15Y19300   3.010   1.104   8.024 -0.3244  0.5163 -1.3263
  170SAPE  C31619301   2.987   1.151   8.245 -0.1395  0.0970  0.0843
  170SAPE  H16X19302   2.937   1.057   8.279  1.0825 -1.0346 -1.1383
  170SAPE  H16Y19303   2.948   1.238   8.302  0.5291  0.0085  0.6724
  170SAPE  C31719304   3.138   1.138   8.262  0.2499  0.8330 -0.4383
  170SAPE  H17X19305   3.191   1.236   8.266  0.2102  0.8747 -0.9266
  170SAPE  H17Y19306   3.178   1.097   8.167  1.0602  0.8748 -0.1200
  170SAPE  C31819307   3.178   1.061   8.387  0.1734 -0.3371 -0.4531
  170SAPE  H18X19308   3.130   1.105   8.478 -0.0254 -0.4275 -0.5137
  170SAPE  H18Y19309   3.286   1.052   8.412 -0.6277 -0.2664  3.9764
  170SAPE  H18Z19310   3.145   0.955   8.384 -0.5020 -0.1585  0.3069
  171SAPE     N19311   4.983   2.153   6.461 -0.2607  0.3784  0.1400
  171SAPE   HN119312   4.993   2.098   6.373  0.7420 -1.0710  1.1018
  171SAPE   HN219313   4.888   2.144   6.502  0.2733 -0.4148  1.2628
  171SAPE   HN319314   4.993   2.256   6.449  2.9269  0.3834  1.6500
  171SAPE   C1219315   5.089   2.095   6.555  0.1714 -0.4274  0.5925
  171SAPE  H12A19316   5.190   2.088   6.510  0.5313  0.8789  1.1657
  171SAPE  H12B19317   5.058   1.992   6.582  1.2151 -0.6265  1.0907
  171SAPE   C1119318   5.082   2.186   6.675  1.0247 -0.9296 -0.5997
  171SAPE  H11A19319   5.154   2.134   6.741 -0.6744  0.0338  2.1827
  171SAPE  H11B19320   4.983   2.189   6.724  1.2160 -2.3874 -0.0964
  171SAPE     P19321   5.047   2.445   6.632 -0.7083 -0.0902 -0.3021
  171SAPE   O1319322   5.134   2.562   6.634  0.7568  0.3125  0.4901
  171SAPE   O1419323   4.968   2.431   6.512 -0.1455 -0.3115  0.3420
  171SAPE   O1219324   5.139   2.315   6.656  1.0447  0.3826  0.3267
  171SAPE   O1119325   4.949   2.433   6.756  0.3315 -0.5569 -0.3674
  171SAPE    C119326   5.009   2.445   6.890  0.4006 -0.3859  0.6540
  171SAPE    HA19327   5.070   2.356   6.918  2.2725  1.5123  3.1329
  171SAPE    HB19328   5.077   2.533   6.886  2.0782 -1.6845 -2.2891
  171SAPE    C219329   4.898   2.465   6.992 -0.1105  0.7167 -0.1523
  171SAPE    HS19330   4.841   2.559   6.977  0.3524  1.0960  0.4208
  171SAPE   O2119331   4.957   2.465   7.119  0.1789 -0.5905 -0.5890
  171SAPE   C2119332   4.895   2.544   7.214 -1.1077  0.3375  1.0414
  171SAPE   O2219333   4.791   2.599   7.192 -0.1834  0.0525  0.8097
  171SAPE   C2219334   4.975   2.550   7.339  0.5699 -0.2216  0.5777
  171SAPE   H2R19335   4.996   2.449   7.379 -0.0071 -0.5462  0.0798
  171SAPE   H2S19336   5.077   2.588   7.315  1.6236 -1.8551  2.2709
  171SAPE    C319337   4.805   2.334   6.987 -0.9038  0.2717  0.1967
  171SAPE    HX19338   4.872   2.249   7.011  1.0811  0.6301 -3.3182
  171SAPE    HY19339   4.774   2.323   6.881 -1.3985 -0.0516  0.3692
  171SAPE   O3119340   4.691   2.340   7.077  0.2216 -0.7966  0.4123
  171SAPE   C3119341   4.593   2.419   7.036  0.1760 -0.3545  0.5886
  171SAPE   O3219342   4.593   2.491   6.937  0.7523 -0.1487 -0.5190
  171SAPE   C3219343   4.477   2.406   7.142  0.6859 -0.2987 -0.4096
  171SAPE   H2X19344   4.419   2.312   7.126 -1.7546  0.8528  1.0556
  171SAPE   H2Y19345   4.412   2.493   7.122 -1.1563 -1.8318 -1.4631
  171SAPE   C2319346   4.895   2.646   7.430  0.2179 -0.4234  0.4314
  171SAPE   H3R19347   4.796   2.603   7.455 -0.0639 -0.2381 -0.3230
  171SAPE   H3S19348   4.871   2.741   7.379 -0.9676 -0.7331  0.3721
  171SAPE   C2419349   4.970   2.675   7.557  0.3539  0.1289 -0.5805
  171SAPE   H4R19350   5.076   2.705   7.543  1.2487 -2.6961 -0.4802
  171SAPE   H4S19351   4.980   2.582   7.618 -0.7267  0.1471 -0.3647
  171SAPE   C2519352   4.898   2.782   7.642  0.4223  0.0201 -0.1983
  171SAPE   H5R19353   4.864   2.867   7.581 -2.5673 -0.3512  0.8074
  171SAPE   C2619354   4.882   2.786   7.777  0.7795 -0.9713 -0.2447
  171SAPE   H6R19355   4.830   2.870   7.825  1.9109 -1.2608  1.5624
  171SAPE   C2719356   4.929   2.684   7.871  0.4639 -0.4439 -0.4385
  171SAPE   H7R19357   5.019   2.724   7.923 -0.5346  0.4993  0.6003
  171SAPE   H7S19358   4.962   2.590   7.820 -1.3926 -2.3070  1.5626
  171SAPE   C2819359   4.809   2.633   7.952 -0.2627 -0.7600 -0.4559
  171SAPE   H8R19360   4.708   2.641   7.908 -0.4680  1.1187  0.2223
  171SAPE   C2919361   4.828   2.581   8.076  0.6168  0.6726  0.2630
  171SAPE   H9R19362   4.744   2.551   8.140  2.0589  0.6475  2.2648
  171SAPE  C21019363   4.954   2.571   8.155 -0.6639  0.0691 -0.3672
  171SAPE  H10R19364   4.929   2.587   8.262 -2.4061 -0.3814 -0.6770
  171SAPE  H10S19365   5.024   2.649   8.120  0.7598 -1.5874 -1.3864
  171SAPE  C21119366   5.020   2.435   8.140  0.3198 -0.5725  0.3715
  171SAPE  H11R19367   5.033   2.389   8.041 -0.2233 -0.3044  0.1670
  171SAPE  C21219368   5.061   2.356   8.236  0.0248  0.5188  0.3869
  171SAPE  H12R19369   5.116   2.263   8.216  2.6333  1.5833  2.1570
  171SAPE  C21319370   5.054   2.386   8.383  0.1210  0.2926 -0.8094
  171SAPE  H13R19371   5.009   2.484   8.408  1.8093  1.2516 -1.3500
  171SAPE  H13S19372   5.152   2.397   8.433 -1.6883  1.5337  2.7746
  171SAPE  C21419373   4.978   2.285   8.459 -0.3272  0.2673 -0.8924
  171SAPE  H14R19374   4.872   2.311   8.475  0.0210  1.3251 -0.1518
  171SAPE  C21519375   5.016   2.163   8.502 -0.5187 -0.1105 -0.6061
  171SAPE  H15R19376   4.952   2.098   8.563  0.7190 -2.5084 -1.7398
  171SAPE  C21619377   5.155   2.108   8.485  0.5099 -0.0299 -0.5422
  171SAPE  H16R19378   5.217   2.178   8.424 -0.5202  0.8115 -0.6610
  171SAPE  H16S19379   5.132   2.019   8.424 -3.1926 -0.4699  1.2413
  171SAPE  C21719380   5.221   2.061   8.619 -0.0718 -0.7458  0.1276
  171SAPE  H17R19381   5.314   2.014   8.582  0.8592  0.9188  0.2252
  171SAPE  H17S19382   5.164   1.977   8.663  2.4451 -1.7822  1.6598
  171SAPE  C21819383   5.250   2.169   8.719  0.8351 -0.6237  0.2439
  171SAPE  H18R19384   5.162   2.232   8.740 -1.9681 -3.9842 -0.5443
  171SAPE  H18S19385   5.320   2.237   8.665 -1.7310  0.6428 -1.6826
  171SAPE  C21919386   5.323   2.117   8.840  0.2778 -0.7166 -0.9392
  171SAPE  H19R19387   5.423   2.085   8.804 -0.2366 -1.7413 -1.5088
  171SAPE  H19S19388   5.261   2.043   8.896  0.0968 -0.1105 -0.3267
  171SAPE  C22019389   5.366   2.223   8.947 -0.1983 -0.3704 -0.3481
  171SAPE  H20R19390   5.266   2.254   8.986 -0.5354 -1.7589 -0.0280
  171SAPE  H20S19391   5.427   2.303   8.901  2.6170 -1.4078  1.3069
  171SAPE  H20T19392   5.431   2.164   9.015  0.3286 -0.6080 -1.0512
  171SAPE   C3319393   4.540   2.415   7.285 -0.0695 -0.2714 -0.0468
  171SAPE   H3X19394   4.609   2.502   7.287  1.9549 -1.8058  1.7862
  171SAPE   H3Y19395   4.586   2.315   7.304  0.6213  0.0301 -0.1233
  171SAPE   C3419396   4.428   2.454   7.382  0.0745 -0.7184 -0.2144
  171SAPE   H4X19397   4.355   2.371   7.391 -1.1347  0.0037 -2.5140
  171SAPE   H4Y19398   4.368   2.538   7.341 -2.3465 -1.3642  1.7498
  171SAPE   C3519399   4.473   2.483   7.523 -0.5572  0.5372 -0.2638
  171SAPE   H5X19400   4.507   2.589   7.514 -3.0267  1.1934 -4.5304
  171SAPE   H5Y19401   4.559   2.417   7.548  2.2917  3.3489 -1.9563
  171SAPE   C3619402   4.357   2.473   7.621 -0.6215  0.3789 -0.2811
  171SAPE   H6X19403   4.361   2.364   7.644  0.1842  0.2917 -0.7722
  171SAPE   H6Y19404   4.259   2.507   7.580 -0.1810 -0.7461 -2.4234
  171SAPE   C3719405   4.399   2.542   7.751 -0.2044 -0.2542  0.2095
  171SAPE   H7X19406   4.392   2.652   7.738 -0.7082 -0.4730 -1.6600
  171SAPE   H7Y19407   4.507   2.521   7.770 -0.1185  0.1561  0.1769
  171SAPE   C3819408   4.305   2.497   7.866 -0.1895 -0.2000  0.0687
  171SAPE   H8X19409   4.305   2.386   7.864  2.9423 -0.2910  0.9211
  171SAPE   H8Y19410   4.204   2.535   7.841 -0.6767 -0.1625  1.9405
  171SAPE   C3919411   4.332   2.552   8.002  0.6797 -0.1976 -0.2354
  171SAPE   H9X19412   4.325   2.661   7.982 -2.2215 -0.3166 -0.2904
  171SAPE   H9Y19413   4.441   2.537   8.021  0.9249  0.8134 -0.8203
  171SAPE  C31019414   4.246   2.514   8.124 -0.3323 -0.1864 -0.4843
  171SAPE  H10X19415   4.260   2.412   8.166  0.9694  1.4745  3.6542
  171SAPE  H10Y19416   4.139   2.522   8.094 -0.6321  0.3789  0.6435
  171SAPE  C31119417   4.264   2.610   8.238 -0.3477  0.1352  0.6919
  171SAPE  H11X19418   4.270   2.712   8.194 -1.2920 -0.3313 -0.5739
  171SAPE  H11Y19419   4.365   2.596   8.282  0.5732 -1.0316 -1.6627
  171SAPE  C31219420   4.158   2.606   8.343 -0.0229 -0.1993  0.6754
  171SAPE  H12X19421   4.060   2.619   8.291 -0.4659  1.1426  1.7784
  171SAPE  H12Y19422   4.159   2.701   8.401 -2.9442 -0.4388  1.3062
  171SAPE  C31319423   4.164   2.484   8.434 -0.6111 -0.3817 -0.6581
  171SAPE  H13X19424   4.271   2.467   8.461 -0.3668  2.0368  0.0700
  171SAPE  H13Y19425   4.118   2.396   8.383 -2.5823  1.1515 -1.6428
  171SAPE  C31419426   4.092   2.504   8.566  0.5892 -0.0195 -0.3916
  171SAPE  H14X19427   3.983   2.524   8.559  0.4546  0.3747  2.0731
  171SAPE  H14Y19428   4.128   2.595   8.618 -0.4945  0.3179 -0.1966
  171SAPE  C31519429   4.115   2.394   8.665 -0.3485 -0.1793  0.3358
  171SAPE  H15X19430   4.216   2.350   8.656 -0.5037 -0.1989 -1.9257
  171SAPE  H15Y19431   4.042   2.319   8.627 -1.3272  0.1990  1.4229
  171SAPE  C31619432   4.085   2.428   8.811 -0.1088 -0.4410  0.7543
  171SAPE  H16X19433   3.994   2.491   8.823  1.3104  1.1781  4.6858
  171SAPE  H16Y19434   4.167   2.492   8.850  0.1296 -0.8219  0.8841
  171SAPE  C31719435   4.069   2.313   8.907  0.4788 -0.1344 -0.1466
  171SAPE  H17X19436   4.148   2.242   8.874  2.1023  2.6693 -2.8673
  171SAPE  H17Y19437   3.976   2.258   8.886  1.8950 -2.5430 -0.4752
  171SAPE  C31819438   4.064   2.351   9.057 -0.1670  0.4117  1.1836
  171SAPE  H18X19439   4.057   2.253   9.109 -0.2634 -2.0187 -2.9401
  171SAPE  H18Y19440   3.980   2.417   9.088  0.9970  1.7295  1.6228
  171SAPE  H18Z19441   4.152   2.407   9.096 -1.3476  2.4835  1.0307
  172SAPE     N19442   1.578   6.066   6.374  0.0968  0.4766  0.6040
  172SAPE   HN119443   1.624   5.987   6.327 -0.2862  2.2331 -3.0629
  172SAPE   HN219444   1.560   6.034   6.472  1.9117 -0.9834  0.5076
  172SAPE   HN319445   1.490   6.078   6.320 -0.1836  0.9956  1.1538
  172SAPE   C1219446   1.669   6.191   6.375 -0.5891  0.0775  0.3833
  172SAPE  H12A19447   1.608   6.271   6.423 -0.3963  1.4474 -1.5236
  172SAPE  H12B19448   1.688   6.219   6.269  0.7424 -1.6254  0.1323
  172SAPE   C1119449   1.803   6.161   6.444 -0.1356  0.4736 -0.7911
  172SAPE  H11A19450   1.853   6.067   6.412  2.5825  1.0848  1.2877
  172SAPE  H11B19451   1.780   6.140   6.551 -0.7772  1.7494 -0.6604
  172SAPE     P19452   2.043   6.253   6.468 -0.0589 -0.2337 -0.0969
  172SAPE   O1319453   2.066   6.117   6.526  0.7059 -0.3653  0.3118
  172SAPE   O1419454   2.108   6.281   6.340 -0.4195  0.1279 -0.0552
  172SAPE   O1219455   1.889   6.277   6.440 -0.4733  0.4778 -0.9616
  172SAPE   O1119456   2.071   6.371   6.582 -0.5344  0.8959  0.0268
  172SAPE    C119457   2.032   6.506   6.559  0.1886  0.3416  0.1843
  172SAPE    HA19458   2.103   6.569   6.502 -0.3665 -0.1337 -1.0783
  172SAPE    HB19459   1.937   6.516   6.501  0.5515 -0.3773 -0.5641
  172SAPE    C219460   2.018   6.580   6.691  0.2051 -0.0724  0.4059
  172SAPE    HS19461   1.963   6.674   6.672 -2.1535 -1.5242 -0.3946
  172SAPE   O2119462   2.148   6.612   6.748 -0.0051  0.2571 -0.2003
  172SAPE   C2119463   2.229   6.697   6.686  0.6031 -0.0669 -0.1421
  172SAPE   O2219464   2.206   6.766   6.585 -0.1340  0.2164 -0.2058
  172SAPE   C2219465   2.368   6.684   6.742 -0.5655 -0.0757 -1.4349
  172SAPE   H2R19466   2.399   6.588   6.788  0.7226  1.2733  0.6684
  172SAPE   H2S19467   2.437   6.690   6.656  1.1865  0.2582 -0.0604
  172SAPE    C319468   1.929   6.490   6.792 -0.2868  0.0648 -0.2118
  172SAPE    HX19469   1.979   6.391   6.789 -0.5218 -0.0906  0.9109
  172SAPE    HY19470   1.829   6.479   6.744 -0.9007  4.0888 -0.2502
  172SAPE   O3119471   1.916   6.545   6.927 -0.0847  0.0904 -0.4926
  172SAPE   C3119472   1.996   6.488   7.010  0.1745 -0.5006  0.3948
  172SAPE   O3219473   2.065   6.390   6.990 -0.0318  0.8181  0.0706
  172SAPE   C3219474   1.999   6.567   7.143  0.7125  0.0140 -0.1784
  172SAPE   H2X19475   1.898   6.611   7.154  0.3894 -0.7294 -0.1562
  172SAPE   H2Y19476   2.065   6.654   7.120 -0.0707  0.8301  0.5782
  172SAPE   C2319477   2.396   6.792   6.849  0.9832 -0.0283 -0.4951
  172SAPE   H3R19478   2.312   6.779   6.921  0.2934 -1.4609 -1.5154
  172SAPE   H3S19479   2.386   6.893   6.803 -0.9772 -1.4901 -3.5888
  172SAPE   C2419480   2.539   6.771   6.908  0.0239 -0.1271  0.0815
  172SAPE   H4R19481   2.614   6.791   6.829  0.3774  2.7358  1.0397
  172SAPE   H4S19482   2.544   6.665   6.941 -0.3766 -0.7703 -1.7930
  172SAPE   C2519483   2.558   6.870   7.020  0.6626  0.1391  0.1878
  172SAPE   H5R19484   2.612   6.963   6.994  0.4925  0.3478  0.5815
  172SAPE   C2619485   2.516   6.856   7.148  0.5848  0.3778 -0.4779
  172SAPE   H6R19486   2.533   6.941   7.216 -1.8726  0.1654  0.5213
  172SAPE   C2719487   2.434   6.741   7.202 -0.8184 -0.4302  0.3312
  172SAPE   H7R19488   2.396   6.675   7.121 -1.3788  1.1395 -0.7356
  172SAPE   H7S19489   2.344   6.776   7.257 -0.9647  2.2942 -1.4426
  172SAPE   C2819490   2.521   6.653   7.295  0.3736 -0.1891  0.0544
  172SAPE   H8R19491   2.573   6.575   7.237 -1.2580 -0.9039 -0.5147
  172SAPE   C2919492   2.517   6.653   7.425  0.1297  0.1288 -0.5341
  172SAPE   H9R19493   2.577   6.581   7.483 -1.2287 -1.1652 -0.6628
  172SAPE  C21019494   2.434   6.741   7.506  0.3881  0.3981 -0.1178
  172SAPE  H10R19495   2.376   6.817   7.449  0.9628  0.1402 -1.0820
  172SAPE  H10S19496   2.497   6.800   7.576  0.3581 -2.6952  2.7291
  172SAPE  C21119497   2.336   6.656   7.588 -0.4541 -0.5972  0.2282
  172SAPE  H11R19498   2.251   6.607   7.538 -2.8896  2.7867  0.6637
  172SAPE  C21219499   2.345   6.629   7.716  0.1087 -0.4225  0.1581
  172SAPE  H12R19500   2.258   6.584   7.767 -1.9492  3.2361  0.2206
  172SAPE  C21319501   2.453   6.678   7.808  0.2120 -0.0904 -0.0893
  172SAPE  H13R19502   2.548   6.675   7.750 -0.6258  0.6659 -1.5486
  172SAPE  H13S19503   2.465   6.599   7.885  0.8713 -1.7132 -1.7792
  172SAPE  C21419504   2.423   6.811   7.864  0.3490 -0.9093  0.4524
  172SAPE  H14R19505   2.414   6.889   7.786  1.0950  1.4387  2.5765
  172SAPE  C21519506   2.415   6.849   7.991 -0.1016 -0.4519  0.2216
  172SAPE  H15R19507   2.393   6.956   8.007  1.9671 -0.0999  0.9826
  172SAPE  C21619508   2.419   6.770   8.115  0.0329  0.0388  0.5672
  172SAPE  H16R19509   2.481   6.819   8.193  2.3747  2.2899 -2.4852
  172SAPE  H16S19510   2.459   6.668   8.097  3.3351  1.6275 -2.1720
  172SAPE  C21719511   2.276   6.762   8.163  0.3604 -0.2321 -0.6240
  172SAPE  H17R19512   2.273   6.688   8.246 -0.4166 -0.5765 -0.9474
  172SAPE  H17S19513   2.218   6.717   8.079  0.3349  1.3459 -1.4860
  172SAPE  C21819514   2.218   6.887   8.221 -0.0680  0.3632 -0.0858
  172SAPE  H18R19515   2.195   6.959   8.140  0.2531  1.3154  0.6541
  172SAPE  H18S19516   2.283   6.932   8.298  0.2535  0.1459 -0.2262
  172SAPE  C21919517   2.083   6.869   8.294 -0.2733 -0.0143  0.2630
  172SAPE  H19R19518   2.100   6.785   8.365  1.5125  0.0308 -0.0658
  172SAPE  H19S19519   1.992   6.846   8.235  0.3137 -1.8227  0.0003
  172SAPE  C22019520   2.060   6.994   8.383  0.0551 -1.1137 -0.3358
  172SAPE  H20R19521   1.964   6.982   8.438  0.2886  1.9176  0.8764
  172SAPE  H20S19522   2.044   7.087   8.324 -3.9101 -0.9392  0.7526
  172SAPE  H20T19523   2.142   7.015   8.454  0.0930 -1.8015 -0.1637
  172SAPE   C3319524   2.036   6.476   7.263  0.6764 -0.3500  0.2496
  172SAPE   H3X19525   2.143   6.446   7.267  0.0136 -2.7896  1.5931
  172SAPE   H3Y19526   1.974   6.384   7.252 -1.5573  1.2378 -1.7745
  172SAPE   C3419527   2.001   6.543   7.395  0.4578 -0.7153 -0.3642
  172SAPE   H4X19528   1.893   6.565   7.388  0.8716  1.1866 -1.5999
  172SAPE   H4Y19529   2.059   6.635   7.419 -0.0545 -0.5928  0.4304
  172SAPE   C3519530   2.002   6.444   7.512 -0.6516  1.1014 -0.6233
  172SAPE   H5X19531   2.107   6.411   7.527 -0.8286  0.6509 -0.3466
  172SAPE   H5Y19532   1.934   6.356   7.501 -0.5408  0.8307  0.6901
  172SAPE   C3619533   1.969   6.512   7.647 -0.0879  0.5031 -0.2597
  172SAPE   H6X19534   1.866   6.553   7.655 -0.4591 -0.6288  1.1567
  172SAPE   H6Y19535   2.039   6.599   7.649  1.7791 -0.9509  0.0720
  172SAPE   C3719536   1.994   6.416   7.766 -0.1261  0.3915  0.7995
  172SAPE   H7X19537   2.101   6.387   7.761  0.1754  1.4994  0.4440
  172SAPE   H7Y19538   1.938   6.322   7.750 -1.2267  1.0387  0.7580
  172SAPE   C3819539   1.983   6.477   7.908  0.2987 -0.4291 -0.3577
  172SAPE   H8X19540   1.877   6.503   7.930  0.3803  0.8214 -1.3454
  172SAPE   H8Y19541   2.031   6.576   7.893 -0.6232 -0.1804 -1.8585
  172SAPE   C3919542   2.049   6.411   8.037 -0.1235 -0.0622  0.9466
  172SAPE   H9X19543   2.158   6.421   8.023 -0.0819 -0.1980  1.1734
  172SAPE   H9Y19544   2.008   6.307   8.039 -0.1630 -0.0618  0.3216
  172SAPE  C31019545   2.007   6.484   8.166  0.3555  0.1399  0.3490
  172SAPE  H10X19546   1.899   6.508   8.158 -0.2081 -2.5133 -1.4744
  172SAPE  H10Y19547   2.064   6.578   8.175 -0.1242  0.4339  0.3843
  172SAPE  C31119548   2.022   6.384   8.282  0.2912  0.1819 -0.5277
  172SAPE  H11X19549   2.130   6.359   8.286  0.4471  1.0146  1.1633
  172SAPE  H11Y19550   1.961   6.293   8.264  0.6734 -0.0443 -0.6763
  172SAPE  C31219551   1.980   6.433   8.421 -0.3862  0.2462 -0.0117
  172SAPE  H12X19552   2.030   6.527   8.451  0.6752 -0.7148  1.3619
  172SAPE  H12Y19553   2.007   6.351   8.491 -1.5205 -0.7586 -0.6952
  172SAPE  C31319554   1.830   6.461   8.435 -0.2737  0.4318  0.3941
  172SAPE  H13X19555   1.783   6.378   8.378 -2.3087  0.3866  2.0214
  172SAPE  H13Y19556   1.801   6.556   8.386  0.6967  0.2080 -0.6561
  172SAPE  C31419557   1.782   6.463   8.589  0.2157  0.2004  0.4578
  172SAPE  H14X19558   1.816   6.561   8.629  0.9026  0.1905 -0.0815
  172SAPE  H14Y19559   1.833   6.380   8.642 -1.0371 -2.0906 -1.7356
  172SAPE  C31519560   1.631   6.448   8.596 -0.1620  0.0854 -1.0296
  172SAPE  H15X19561   1.585   6.464   8.497 -2.3225  1.7531  0.1464
  172SAPE  H15Y19562   1.597   6.532   8.660  1.1238 -0.8566  1.0005
  172SAPE  C31619563   1.586   6.317   8.661  0.4643  0.2035 -0.1162
  172SAPE  H16X19564   1.626   6.312   8.765  2.0309 -2.1312 -0.7615
  172SAPE  H16Y19565   1.636   6.230   8.613  0.5061  1.9790 -3.5543
  172SAPE  C31719566   1.433   6.297   8.653  0.5144 -0.2852 -0.7438
  172SAPE  H17X19567   1.403   6.191   8.661 -1.0816  0.2517  0.9883
  172SAPE  H17Y19568   1.403   6.326   8.550 -2.2098 -1.7121 -0.4296
  172SAPE  C31819569   1.352   6.385   8.747  0.8756  0.3000 -0.7563
  172SAPE  H18X19570   1.244   6.359   8.747  0.8887  0.2474 -1.0960
  172SAPE  H18Y19571   1.363   6.494   8.729 -1.7256  0.4841 -1.6995
  172SAPE  H18Z19572   1.393   6.370   8.850 -0.5241  2.0028  0.0881
  173SOPE     N19573   3.077   2.467  11.462  0.3211 -0.2053 -0.6025
  173SOPE   HN119574   3.133   2.503  11.542 -1.1925  2.2484 -0.5519
  173SOPE   HN219575   3.006   2.542  11.447  2.3054  1.5280 -1.9421
  173SOPE   HN319576   3.021   2.385  11.493  1.8468 -1.1405 -0.2105
  173SOPE   C1219577   3.165   2.420  11.344  0.7504  0.2619 -0.2670
  173SOPE  H12A19578   3.253   2.375  11.394  2.0534  0.7877 -1.9776
  173SOPE  H12B19579   3.199   2.506  11.282  0.2549  1.2312  0.7593
  173SOPE   C1119580   3.098   2.326  11.241  0.1464 -0.5256  0.3670
  173SOPE  H11A19581   3.051   2.244  11.298 -0.3112 -0.3562  0.2391
  173SOPE  H11B19582   3.174   2.276  11.177 -2.6878  0.0054 -3.8479
  173SOPE     P19583   3.028   2.454  11.025  0.1359  0.4183 -0.0309
  173SOPE   O1319584   2.930   2.382  10.942 -0.1457 -0.4123 -0.4315
  173SOPE   O1419585   3.172   2.433  10.992 -0.1337 -0.2722  0.4661
  173SOPE   O1219586   3.002   2.399  11.163  0.3615 -0.2443 -1.0329
  173SOPE   O1119587   2.996   2.612  11.037  0.0900 -0.7375 -0.1754
  173SOPE    C119588   2.997   2.692  10.921  0.2374 -0.0214 -0.6492
  173SOPE    HA19589   3.053   2.651  10.835  0.2226  0.0142 -0.6764
  173SOPE    HB19590   3.052   2.784  10.949 -0.8097 -0.2278  2.4245
  173SOPE    C219591   2.853   2.741  10.879 -0.0802 -0.5581 -0.4210
  173SOPE    HS19592   2.783   2.655  10.871 -0.5175 -0.3355  0.7682
  173SOPE   O2119593   2.852   2.829  10.766 -0.2668 -0.0860 -0.6320
  173SOPE   C2119594   2.871   2.781  10.648 -0.4225 -0.3869  0.7182
  173SOPE   O2219595   2.883   2.664  10.618 -0.3283  0.1461  0.7093
  173SOPE   C2219596   2.844   2.896  10.551 -0.2715 -0.2111 -0.4404
  173SOPE   H2R19597   2.921   2.971  10.583 -0.2821 -1.0177  1.6561
  173SOPE   H2S19598   2.741   2.934  10.567 -1.4201 -2.8221 -1.2281
  173SOPE    C319599   2.774   2.820  10.997 -0.1748 -0.7267 -0.0979
  173SOPE    HX19600   2.833   2.909  11.028  1.5719 -1.6310 -0.7054
  173SOPE    HY19601   2.776   2.752  11.085  1.5931 -0.0247  0.4477
  173SOPE   O3119602   2.641   2.829  10.945  0.0618 -0.7281  0.1595
  173SOPE   C3119603   2.568   2.918  11.015 -0.0905 -0.0531 -0.1118
  173SOPE   O3219604   2.607   2.981  11.115 -0.1816 -0.2054  0.0497
  173SOPE   C3219605   2.435   2.941  10.949 -0.2176  0.2257 -0.1901
  173SOPE   H2X19606   2.377   3.014  11.009  1.8953 -0.5896  3.1103
  173SOPE   H2Y19607   2.378   2.846  10.952  2.0871 -1.2199  1.3460
  173SOPE   C2319608   2.864   2.854  10.402  0.0130 -0.8455  0.4624
  173SOPE   H3R19609   2.797   2.767  10.385  0.6243 -0.9895 -1.5521
  173SOPE   H3S19610   2.971   2.825  10.398  0.6532  1.3952 -0.5679
  173SOPE   C2419611   2.829   2.962  10.311  0.0037 -0.1119 -0.1742
  173SOPE   H4R19612   2.722   2.992  10.322 -0.4292 -1.3763 -0.6991
  173SOPE   H4S19613   2.896   3.044  10.343 -1.6418  0.8744  0.9023
  173SOPE   C2519614   2.864   2.925  10.162  0.0114  0.5018 -0.7594
  173SOPE   H5R19615   2.971   2.898  10.154 -0.0849  0.1641 -0.9164
  173SOPE   H5S19616   2.805   2.835  10.134 -0.2894  0.6998 -0.7745
  173SOPE   C2619617   2.828   3.042  10.071 -0.1150 -0.3831  0.0187
  173SOPE   H6R19618   2.724   3.068  10.102 -0.3443  1.0098 -1.7940
  173SOPE   H6S19619   2.887   3.136  10.075 -0.9379  0.1189  0.8881
  173SOPE   C2719620   2.820   2.989   9.929  0.1252  0.0243  0.3201
  173SOPE   H7R19621   2.912   2.939   9.894 -1.1972 -1.3578 -1.3850
  173SOPE   H7S19622   2.739   2.913   9.939 -1.3338  1.5251  0.4072
  173SOPE   C2819623   2.786   3.105   9.838  0.1128 -0.6257  0.8590
  173SOPE   H8R19624   2.709   3.173   9.880  1.6514  0.9001  1.3193
  173SOPE   H8S19625   2.879   3.164   9.825  0.1088 -0.7174  0.3906
  173SOPE   C2919626   2.719   3.047   9.708  0.4198  0.0489 -0.2691
  173SOPE   H9119627   2.624   2.996   9.732  1.3976 -0.4813  3.0024
  173SOPE  C21019628   2.761   3.053   9.581 -0.0687 -0.0866 -0.5182
  173SOPE  H10119629   2.698   3.010   9.503 -1.4486  0.8743  0.0255
  173SOPE  C21119630   2.895   3.109   9.523  0.4832 -0.4550 -0.4693
  173SOPE  H11R19631   2.956   3.175   9.587 -0.2001  0.3116 -0.5849
  173SOPE  H11S19632   2.878   3.169   9.431  1.0981  0.4209 -0.0177
  173SOPE  C21219633   2.980   2.987   9.490 -0.6425  1.1862  0.2363
  173SOPE  H12R19634   2.999   2.920   9.577 -0.8598  1.3440  0.4098
  173SOPE  H12S19635   3.080   3.027   9.464 -1.4231  2.0482 -1.5660
  173SOPE  C21319636   2.938   2.890   9.367 -0.1305 -0.3680  1.1933
  173SOPE  H13R19637   2.837   2.846   9.383 -0.9099 -0.3383 -2.6029
  173SOPE  H13S19638   3.003   2.800   9.366  2.5256  1.1849 -4.1825
  173SOPE  C21419639   2.940   2.960   9.233  0.6270  0.1727 -0.3060
  173SOPE  H14R19640   3.041   3.001   9.212  0.7784  0.6574  1.2020
  173SOPE  H14S19641   2.875   3.048   9.256  0.4589  0.3045 -1.2523
  173SOPE  C21519642   2.884   2.877   9.119  0.1742  0.7715 -0.1553
  173SOPE  H15R19643   2.843   2.941   9.037 -2.0063 -1.7651 -1.2169
  173SOPE  H15S19644   2.801   2.807   9.143 -1.4779  2.4809 -0.7024
  173SOPE  C21619645   2.992   2.795   9.046 -0.6677  0.4587  0.2196
  173SOPE  H16R19646   3.034   2.716   9.111  2.0993  0.8478 -0.9511
  173SOPE  H16S19647   3.079   2.857   9.015 -0.6459  0.2219 -0.1988
  173SOPE  C21719648   2.948   2.729   8.915  0.2385 -0.1995  0.3356
  173SOPE  H17R19649   2.917   2.805   8.841 -0.9299  1.2482  2.2264
  173SOPE  H17S19650   2.858   2.664   8.922  1.0682 -1.3175  1.1860
  173SOPE  C21819651   3.052   2.635   8.852 -0.4648 -0.1139 -0.0403
  173SOPE  H18R19652   3.020   2.588   8.757 -0.9116  0.7184 -0.3020
  173SOPE  H18S19653   3.083   2.553   8.921  0.4143  0.5270  0.3430
  173SOPE  H18T19654   3.141   2.698   8.830 -0.4338  0.5348  1.7534
  173SOPE   C3319655   2.440   2.983  10.801  0.7882 -0.5515  0.4968
  173SOPE   H3X19656   2.457   2.903  10.726 -0.9235  0.5780 -1.1817
  173SOPE   H3Y19657   2.522   3.057  10.790  0.7715 -0.5620  0.2980
  173SOPE   C3419658   2.316   3.062  10.757  0.0868 -0.2125  0.6733
  173SOPE   H4X19659   2.276   3.130  10.836  0.1411 -2.5779  2.8741
  173SOPE   H4Y19660   2.233   2.990  10.743  0.3104 -0.0620 -1.8146
  173SOPE   C3519661   2.330   3.137  10.621 -0.5499 -0.0314  0.4030
  173SOPE   H5X19662   2.404   3.219  10.628  1.2116 -1.6036  1.1538
  173SOPE   H5Y19663   2.228   3.179  10.610 -0.9656 -0.4064  2.3793
  173SOPE   C3619664   2.353   3.059  10.498  0.0142  0.2117  0.6090
  173SOPE   H6X19665   2.279   2.979  10.478 -0.4511  0.2850  1.9565
  173SOPE   H6Y19666   2.447   3.000  10.511  0.7491  1.3874  0.7485
  173SOPE   C3719667   2.360   3.145  10.372 -1.0560  0.3153 -0.3241
  173SOPE   H7X19668   2.437   3.224  10.376  0.3397 -1.0598  1.7800
  173SOPE   H7Y19669   2.262   3.194  10.356 -0.9098  0.0896 -2.2424
  173SOPE   C3819670   2.389   3.068  10.245  0.5777 -0.2890  0.3939
  173SOPE   H8X19671   2.318   2.983  10.231  0.6858 -0.3659  0.3148
  173SOPE   H8Y19672   2.487   3.017  10.245  0.3336 -0.8015  1.6321
  173SOPE   C3919673   2.373   3.134  10.108  0.1237 -0.1526  0.1780
  173SOPE   H9X19674   2.452   3.210  10.090 -0.7437  0.3104 -1.8589
  173SOPE   H9Y19675   2.278   3.192  10.108 -0.3600 -0.8380  2.2315
  173SOPE  C31019676   2.376   3.032   9.991  1.1699  0.4270  0.4881
  173SOPE  H10X19677   2.305   2.949  10.010  0.3274  0.6835 -1.2987
  173SOPE  H10Y19678   2.471   2.978   9.974 -0.0759 -1.2522 -1.6640
  173SOPE  C31119679   2.340   3.097   9.860 -0.7135  0.5595  0.4318
  173SOPE  H11X19680   2.430   3.147   9.819 -2.4618  2.4159 -1.3530
  173SOPE  H11Y19681   2.250   3.162   9.871 -1.7034 -0.7669  0.4703
  173SOPE  C31219682   2.298   2.977   9.770 -0.9837  0.4896  0.1121
  173SOPE  H12X19683   2.224   2.910   9.819  0.4540 -3.0822 -2.1938
  173SOPE  H12Y19684   2.391   2.922   9.744 -0.8367  0.6414  0.3154
  173SOPE  C31319685   2.244   3.036   9.637  0.1386  0.0832 -0.1103
  173SOPE  H13X19686   2.196   3.137   9.641  1.3853  0.7031 -0.4946
  173SOPE  H13Y19687   2.165   2.961   9.612  0.6082 -1.9536  3.8017
  173SOPE  C31419688   2.342   3.062   9.526  0.6528  0.2803  0.4063
  173SOPE  H14X19689   2.402   2.969   9.519  2.3131  1.1725  2.0009
  173SOPE  H14Y19690   2.410   3.136   9.573  0.5784 -0.9241  2.5132
  173SOPE  C31519691   2.272   3.109   9.398  0.4919 -0.0849  0.1452
  173SOPE  H15X19692   2.219   3.204   9.418  0.5986 -0.0557  0.2851
  173SOPE  H15Y19693   2.204   3.030   9.360  1.1301 -1.1879  1.2469
  173SOPE  C31619694   2.363   3.113   9.275 -0.6933  0.0230 -0.5685
  173SOPE  H16X19695   2.323   3.146   9.177  1.0672  1.7805 -0.7561
  173SOPE  H16Y19696   2.404   3.010   9.264 -3.4659 -1.0079 -2.3540
  173SOPE  C31719697   2.489   3.200   9.292  0.0325 -0.3469 -0.3193
  173SOPE  H17X19698   2.524   3.209   9.397  0.1823  1.8594 -0.5219
  173SOPE  H17Y19699   2.458   3.304   9.268  0.0975  0.5940  3.1125
  173SOPE  C31819700   2.606   3.157   9.201 -0.3339  0.1694 -0.1730
  173SOPE  H18X19701   2.682   3.237   9.212 -1.6901  1.3959  0.5166
  173SOPE  H18Y19702   2.581   3.147   9.093  0.1324 -0.2929 -0.2411
  173SOPE  H18Z19703   2.649   3.061   9.238 -0.0949  0.0309 -0.7949
  174SOPE     N19704   2.356   2.217  11.263 -0.0922  0.0354 -0.2468
  174SOPE   HN119705   2.375   2.177  11.358 -1.7602 -0.1588  0.0250
  174SOPE   HN219706   2.254   2.224  11.248 -0.6253 -2.7863  1.2216
  174SOPE   HN319707   2.395   2.146  11.197 -3.1464 -2.0110 -0.0746
  174SOPE   C1219708   2.420   2.348  11.239 -0.1476 -0.5380  0.0251
  174SOPE  H12A19709   2.530   2.335  11.242  0.1813  1.9252  1.6092
  174SOPE  H12B19710   2.385   2.424  11.312  1.1118  0.4982 -0.4134
  174SOPE   C1119711   2.388   2.395  11.093 -0.0072 -0.2303 -0.0286
  174SOPE  H11A19712   2.463   2.336  11.036  1.3462  3.1867 -2.0634
  174SOPE  H11B19713   2.407   2.504  11.085  1.3378 -0.4944 -0.7558
  174SOPE     P19714   2.136   2.467  11.070 -0.0997 -0.4771  0.1448
  174SOPE   O1319715   2.160   2.538  11.191 -0.2254  0.3600  0.0319
  174SOPE   O1419716   1.998   2.407  11.065 -0.3465  0.6044 -0.2951
  174SOPE   O1219717   2.252   2.365  11.050 -0.2072 -0.2343 -0.3054
  174SOPE   O1119718   2.166   2.563  10.945  0.3375  0.3123 -0.1070
  174SOPE    C119719   2.106   2.524  10.817 -0.3808  0.3134  0.2473
  174SOPE    HA19720   2.069   2.615  10.765 -0.1250 -0.4713 -1.3596
  174SOPE    HB19721   2.017   2.461  10.833 -0.3218  0.5660  1.6846
  174SOPE    C219722   2.203   2.450  10.723  0.0351 -0.8409  0.4176
  174SOPE    HS19723   2.217   2.351  10.772  2.7747 -0.4905  0.4804
  174SOPE   O2119724   2.329   2.527  10.720 -0.1165 -0.2810 -0.1817
  174SOPE   C2119725   2.431   2.455  10.703  0.3225 -0.4289  0.3545
  174SOPE   O2219726   2.435   2.332  10.699  0.2818  0.2014  0.0735
  174SOPE   C2219727   2.554   2.545  10.678  0.8191 -0.1845 -0.5598
  174SOPE   H2R19728   2.632   2.474  10.641 -3.4358 -4.1294 -3.0567
  174SOPE   H2S19729   2.596   2.578  10.775  0.7442 -3.2169  0.6196
  174SOPE    C319730   2.146   2.439  10.580 -0.0975 -0.3543  0.3705
  174SOPE    HX19731   2.210   2.370  10.522 -0.4342  1.6117 -2.5681
  174SOPE    HY19732   2.154   2.543  10.541 -3.1756 -0.0473  0.2945
  174SOPE   O3119733   2.004   2.394  10.574  0.1514  0.2407 -0.1544
  174SOPE   C3119734   2.003   2.255  10.574 -0.5080 -0.3075  0.8448
  174SOPE   O3219735   2.102   2.183  10.579 -0.0580 -0.1281  0.1152
  174SOPE   C3219736   1.857   2.208  10.574  0.8549 -0.2640 -0.9204
  174SOPE   H2X19737   1.788   2.294  10.563  1.3255  0.6577  2.2681
  174SOPE   H2Y19738   1.837   2.170  10.676 -0.2663 -2.0591 -1.7515
  174SOPE   C2319739   2.526   2.671  10.594 -0.3489  0.5538  0.1414
  174SOPE   H3R19740   2.604   2.750  10.600 -0.8741  1.3516 -2.3986
  174SOPE   H3S19741   2.428   2.719  10.615  0.5789  1.4490  2.8386
  174SOPE   C2419742   2.519   2.620  10.445 -0.5184 -0.1029 -0.2926
  174SOPE   H4R19743   2.622   2.598  10.408 -0.1225 -0.6971  1.1162
  174SOPE   H4S19744   2.469   2.522  10.433 -3.6996  1.3047  0.4394
  174SOPE   C2519745   2.445   2.728  10.360 -0.6175  0.4234  0.3146
  174SOPE   H5R19746   2.337   2.734  10.387 -0.7182  2.5583 -0.3708
  174SOPE   H5S19747   2.504   2.821  10.367  1.3125 -0.4860 -2.1868
  174SOPE   C2619748   2.438   2.671  10.214 -0.1533  0.3641 -0.3391
  174SOPE   H6R19749   2.382   2.575  10.211  0.7046 -0.1910  0.6911
  174SOPE   H6S19750   2.364   2.739  10.166 -2.2736 -0.7649  1.1472
  174SOPE   C2719751   2.573   2.652  10.146 -0.3477 -0.4252  0.2578
  174SOPE   H7R19752   2.630   2.747  10.132  1.5329 -1.5860 -0.2819
  174SOPE   H7S19753   2.637   2.585  10.207 -0.8724 -1.7471 -0.5896
  174SOPE   C2819754   2.563   2.562  10.021  0.8106  0.1474  0.1673
  174SOPE   H8R19755   2.659   2.539   9.970  1.7540  2.0818  0.9484
  174SOPE   H8S19756   2.516   2.464  10.044 -0.5990  1.2013  2.0368
  174SOPE   C2919757   2.476   2.627   9.920  0.4084 -0.2966 -0.0606
  174SOPE   H9119758   2.378   2.661   9.957  0.3746  0.8192 -1.1033
  174SOPE  C21019759   2.509   2.663   9.788 -0.7396  0.5449 -0.0276
  174SOPE  H10119760   2.438   2.719   9.725  0.5715  0.0058 -2.0781
  174SOPE  C21119761   2.648   2.648   9.721  0.7315  0.4319 -0.7677
  174SOPE  H11R19762   2.723   2.573   9.756  1.1099 -0.4031 -3.1720
  174SOPE  H11S19763   2.699   2.743   9.749 -1.0879  1.1986  0.0552
  174SOPE  C21219764   2.639   2.645   9.566  0.4726  0.3397 -0.1836
  174SOPE  H12R19765   2.742   2.640   9.524  1.1673 -0.1924  1.5204
  174SOPE  H12S19766   2.597   2.739   9.526  0.3471  0.9581  1.3525
  174SOPE  C21319767   2.561   2.520   9.521  0.3137 -0.2011  0.8176
  174SOPE  H13R19768   2.455   2.521   9.554  0.9154  1.0291  2.9324
  174SOPE  H13S19769   2.597   2.423   9.562 -0.6490 -1.4485 -1.1647
  174SOPE  C21419770   2.561   2.515   9.370 -0.1198 -1.0285  0.3364
  174SOPE  H14R19771   2.510   2.421   9.341  1.3874 -1.0982 -2.3965
  174SOPE  H14S19772   2.664   2.516   9.329 -0.5520 -1.2113 -0.7903
  174SOPE  C21519773   2.473   2.624   9.310  0.1251  0.0025  1.1296
  174SOPE  H15R19774   2.515   2.726   9.322  0.7419 -0.1804  0.6118
  174SOPE  H15S19775   2.374   2.607   9.358  0.2429  0.3945  1.5147
  174SOPE  C21619776   2.462   2.601   9.153 -0.8566  0.1723 -0.3278
  174SOPE  H16R19777   2.398   2.511   9.145  0.6779 -0.9638 -0.2488
  174SOPE  H16S19778   2.559   2.559   9.120 -0.1631 -0.8967  2.7550
  174SOPE  C21719779   2.417   2.722   9.071 -0.7534 -0.9511  0.4728
  174SOPE  H17R19780   2.465   2.808   9.122 -1.2876 -0.7737  0.6865
  174SOPE  H17S19781   2.309   2.732   9.095 -1.0094  4.1736 -1.5160
  174SOPE  C21819782   2.444   2.714   8.924  0.2586 -0.2031 -0.5121
  174SOPE  H18R19783   2.429   2.820   8.895  2.0321  0.5495  1.1442
  174SOPE  H18S19784   2.389   2.637   8.864 -1.4963 -0.0809  0.8399
  174SOPE  H18T19785   2.551   2.696   8.901  0.0042 -1.6134 -0.6878
  174SOPE   C3319786   1.819   2.090  10.474  0.0336 -0.1273  0.4533
  174SOPE   H3X19787   1.712   2.062  10.469 -0.4082  1.3738  1.0867
  174SOPE   H3Y19788   1.883   2.005  10.507  0.9205 -0.0477 -0.9431
  174SOPE   C3419789   1.854   2.133  10.327  0.4463  0.4269  0.4847
  174SOPE   H4X19790   1.962   2.156  10.316  0.6359 -1.1366 -1.4629
  174SOPE   H4Y19791   1.806   2.232  10.315 -1.6250 -0.4559  0.9649
  174SOPE   C3519792   1.808   2.043  10.215 -0.0233 -0.1110  0.0683
  174SOPE   H5X19793   1.698   2.030  10.223  0.0378 -3.7484 -2.5854
  174SOPE   H5Y19794   1.865   1.947  10.218 -1.1420 -0.8309 -0.8586
  174SOPE   C3619795   1.834   2.114  10.074  0.0602 -0.9507  0.1753
  174SOPE   H6X19796   1.943   2.132  10.078  0.1510 -1.4809  0.1907
  174SOPE   H6Y19797   1.783   2.212  10.068  0.8774 -0.5932 -1.4748
  174SOPE   C3719798   1.769   2.037   9.953 -0.7820  0.0107 -0.6063
  174SOPE   H7X19799   1.660   2.040   9.973 -0.5635  0.9497  0.5655
  174SOPE   H7Y19800   1.799   1.931   9.965 -1.6417 -0.2185 -0.4065
  174SOPE   C3819801   1.806   2.093   9.814  1.1979 -0.3719 -0.0281
  174SOPE   H8X19802   1.894   2.047   9.763  2.8177  2.1099  0.3403
  174SOPE   H8Y19803   1.827   2.202   9.817 -1.5744  0.2843 -1.1397
  174SOPE   C3919804   1.682   2.083   9.712 -0.4473  0.4726 -0.4252
  174SOPE   H9X19805   1.593   2.117   9.769 -0.1616 -0.4159  0.5999
  174SOPE   H9Y19806   1.642   1.983   9.685 -1.0235  0.4797  0.3500
  174SOPE  C31019807   1.689   2.170   9.587  1.2497 -0.1503  0.3078
  174SOPE  H10X19808   1.740   2.266   9.609  1.5639 -0.7922  2.6696
  174SOPE  H10Y19809   1.582   2.196   9.573  1.3262  0.7003  1.2369
  174SOPE  C31119810   1.740   2.109   9.459  0.0182  0.2260 -0.3594
  174SOPE  H11X19811   1.685   2.015   9.440 -1.5725  1.1685 -0.6486
  174SOPE  H11Y19812   1.845   2.075   9.472 -0.3163 -1.3047 -1.5006
  174SOPE  C31219813   1.715   2.206   9.346  0.0684 -0.3264  0.9119
  174SOPE  H12X19814   1.778   2.296   9.356  0.4173 -0.1357 -2.0589
  174SOPE  H12Y19815   1.608   2.236   9.338  0.7726  2.3523  0.7991
  174SOPE  C31319816   1.741   2.151   9.204  0.0730  0.0741 -0.6111
  174SOPE  H13X19817   1.697   2.220   9.129 -3.4124 -4.1265 -2.9714
  174SOPE  H13Y19818   1.667   2.067   9.197 -0.7785  0.8205 -0.7745
  174SOPE  C31419819   1.885   2.106   9.175 -0.0194 -0.1506 -0.1451
  174SOPE  H14X19820   1.914   2.031   9.251  1.7969  0.2676 -0.3838
  174SOPE  H14Y19821   1.953   2.194   9.174  0.9882 -0.9135 -0.3302
  174SOPE  C31519822   1.911   2.036   9.043  1.1244 -1.4123 -0.5350
  174SOPE  H15X19823   1.879   2.103   8.960  2.3917 -0.0928  0.0124
  174SOPE  H15Y19824   1.844   1.947   9.049  0.5332 -0.9847 -0.6459
  174SOPE  C31619825   2.056   2.004   9.018  0.2855  0.4404 -0.7368
  174SOPE  H16X19826   2.085   1.959   9.116 -1.9940  1.6702  0.5940
  174SOPE  H16Y19827   2.117   2.096   9.004  0.0302  0.8901  0.8942
  174SOPE  C31719828   2.086   1.901   8.907  0.3185  0.3425  0.2988
  174SOPE  H17X19829   2.068   1.953   8.810 -0.4289  1.1944  0.8776
  174SOPE  H17Y19830   2.023   1.810   8.912  1.2341 -0.2249  2.1393
  174SOPE  C31819831   2.231   1.869   8.918 -0.0912  0.4645  0.1765
  174SOPE  H18X19832   2.278   1.816   8.832 -3.4060 -1.2733 -0.7359
  174SOPE  H18Y19833   2.247   1.803   9.006  1.3745  1.7516  0.9230
  174SOPE  H18Z19834   2.280   1.966   8.937 -0.8824  1.0415 -0.6491
  175SOPE     N19835   4.817   3.898  11.082  0.5046  1.0101 -0.6762
  175SOPE   HN119836   4.851   3.862  11.174 -1.1801 -2.1040 -1.1497
  175SOPE   HN219837   4.901   3.946  11.043  1.6436  0.8734  1.4437
  175SOPE   HN319838   4.740   3.967  11.090  1.4201  2.0302 -0.3099
  175SOPE   C1219839   4.755   3.790  10.993  0.0851  0.6690 -0.2753
  175SOPE  H12A19840   4.653   3.828  10.972 -0.8189 -0.2143  2.1110
  175SOPE  H12B19841   4.755   3.691  11.043  0.8718 -1.0059 -3.3410
  175SOPE   C1119842   4.819   3.781  10.855 -0.1087 -0.5693  0.4959
  175SOPE  H11A19843   4.774   3.693  10.804 -0.1995 -0.9951  1.2988
  175SOPE  H11B19844   4.925   3.748  10.869  0.0814 -1.3326 -2.1113
  175SOPE     P19845   4.872   3.951  10.660 -0.2574  0.1189  0.2094
  175SOPE   O1319846   5.005   4.024  10.673 -0.5151 -0.6653  0.4575
  175SOPE   O1419847   4.764   4.009  10.580  0.2418  0.0027 -0.0804
  175SOPE   O1219848   4.811   3.918  10.800  0.2345  1.0218  0.2338
  175SOPE   O1119849   4.909   3.810  10.607  0.6272  0.0639 -0.4607
  175SOPE    C119850   4.881   3.772  10.477 -0.5529 -0.3712 -0.6979
  175SOPE    HA19851   4.930   3.841  10.405 -1.3038  0.1187 -0.7451
  175SOPE    HB19852   4.774   3.783  10.450 -0.5991 -1.7511 -1.1674
  175SOPE    C219853   4.910   3.626  10.454 -0.1524  0.4024  0.0525
  175SOPE    HS19854   5.020   3.610  10.458 -0.2334  0.0591  1.4870
  175SOPE   O2119855   4.840   3.576  10.340  0.4913 -0.4535  0.0047
  175SOPE   C2119856   4.897   3.591  10.223  0.3476  0.1359  0.1941
  175SOPE   O2219857   5.002   3.648  10.202  0.2978  0.5477 -0.2411
  175SOPE   C2219858   4.819   3.516  10.115  0.9762 -0.0504  0.0203
  175SOPE   H2R19859   4.711   3.544  10.113  0.9925  0.0083 -2.1216
  175SOPE   H2S19860   4.835   3.411  10.146  2.1470  0.3625  0.8958
  175SOPE    C319861   4.858   3.547  10.578 -0.6326  0.0380  0.4028
  175SOPE    HX19862   4.756   3.579  10.608 -0.6024  1.0142 -0.4502
  175SOPE    HY19863   4.925   3.582  10.659  0.9667  0.6633 -1.1297
  175SOPE   O3119864   4.878   3.407  10.555 -0.2528 -0.2104  0.3633
  175SOPE   C3119865   4.824   3.324  10.640 -0.5852 -0.2317 -0.1319
  175SOPE   O3219866   4.747   3.353  10.731  0.2088  0.2803 -0.2343
  175SOPE   C3219867   4.882   3.180  10.615 -0.3511  0.1850  0.0512
  175SOPE   H2X19868   4.868   3.119  10.706  1.1608 -1.4075 -0.7230
  175SOPE   H2Y19869   4.984   3.173  10.570 -1.1341 -1.9326 -1.5356
  175SOPE   C2319870   4.874   3.530   9.971  0.4386  0.2208  0.3170
  175SOPE   H3R19871   4.985   3.539   9.973  0.4818  0.8216 -1.9831
  175SOPE   H3S19872   4.828   3.617   9.919  0.0906 -1.0644 -1.5890
  175SOPE   C2419873   4.835   3.414   9.879  0.0426 -0.3356 -0.0619
  175SOPE   H4R19874   4.916   3.338   9.881 -0.1542 -0.5330  0.9115
  175SOPE   H4S19875   4.735   3.375   9.907  0.0318 -0.7632 -0.6703
  175SOPE   C2519876   4.817   3.449   9.728  0.4559 -0.3260 -0.3621
  175SOPE   H5R19877   4.775   3.362   9.673 -2.0099  1.4537 -1.4649
  175SOPE   H5S19878   4.734   3.520   9.710 -1.0111 -1.7823  0.4209
  175SOPE   C2619879   4.948   3.501   9.664  0.0593 -0.3649  0.7123
  175SOPE   H6R19880   4.996   3.583   9.722 -1.7526  2.4505 -1.5200
  175SOPE   H6S19881   5.012   3.413   9.644 -0.3337 -0.6350  0.6226
  175SOPE   C2719882   4.923   3.567   9.525 -0.5682 -0.2633  0.2372
  175SOPE   H7R19883   4.872   3.663   9.543  0.3983  0.3818 -0.4003
  175SOPE   H7S19884   5.025   3.578   9.483 -0.9181 -0.3220 -0.6357
  175SOPE   C2819885   4.852   3.480   9.424  0.3810 -0.4558 -0.3852
  175SOPE   H8R19886   4.755   3.474   9.477  1.1503  1.8207  1.4871
  175SOPE   H8S19887   4.844   3.544   9.333 -1.2738  1.8082  1.2440
  175SOPE   C2919888   4.923   3.349   9.407  0.6345  0.2124 -0.1848
  175SOPE   H9119889   4.953   3.299   9.501 -3.6586 -1.2362  0.6404
  175SOPE  C21019890   4.948   3.289   9.290 -0.7075  1.5027 -0.5640
  175SOPE  H10119891   5.023   3.210   9.305 -3.0770 -0.6318  0.7759
  175SOPE  C21119892   4.897   3.323   9.162 -0.0506  0.3652 -0.3124
  175SOPE  H11R19893   4.809   3.390   9.172  0.9462  1.5937  0.4530
  175SOPE  H11S19894   4.876   3.225   9.113  0.7484 -0.0081  0.0737
  175SOPE  C21219895   4.992   3.399   9.070  0.5043  0.3720  0.0450
  175SOPE  H12R19896   5.096   3.364   9.085  1.4812  1.9801 -2.4058
  175SOPE  H12S19897   4.987   3.509   9.089  1.5065  0.3288  0.6354
  175SOPE  C21319898   4.958   3.378   8.919  0.1933  0.4091  0.1423
  175SOPE  H13R19899   4.977   3.269   8.910 -1.0376  0.1097  1.0453
  175SOPE  H13S19900   5.007   3.437   8.838 -0.5060  3.2367  1.6408
  175SOPE  C21419901   4.801   3.400   8.891 -0.5842 -0.2741 -0.0362
  175SOPE  H14R19902   4.773   3.498   8.934 -0.0200  0.4763 -1.3084
  175SOPE  H14S19903   4.744   3.319   8.942 -1.4613  1.4684  1.9076
  175SOPE  C21519904   4.761   3.400   8.741  0.1762 -0.7125 -0.3994
  175SOPE  H15R19905   4.810   3.315   8.688 -0.6937 -1.9692  0.7619
  175SOPE  H15S19906   4.802   3.493   8.695 -0.7250 -0.6729 -1.1381
  175SOPE  C21619907   4.612   3.401   8.733 -0.2325 -0.0432 -0.5179
  175SOPE  H16R19908   4.582   3.487   8.796  0.1804 -0.9732  0.9838
  175SOPE  H16S19909   4.579   3.304   8.775  0.2364  0.0302  0.0352
  175SOPE  C21719910   4.559   3.423   8.587 -0.3337 -0.0845  0.1760
  175SOPE  H17R19911   4.625   3.501   8.545 -1.5865  1.4700  0.9768
  175SOPE  H17S19912   4.451   3.450   8.587 -0.7217 -1.3959 -1.7514
  175SOPE  C21819913   4.572   3.294   8.513  0.0116 -0.3340  0.8292
  175SOPE  H18R19914   4.569   3.298   8.402 -1.7927 -0.8079  0.8284
  175SOPE  H18S19915   4.483   3.238   8.550 -1.7109  1.9103  0.3270
  175SOPE  H18T19916   4.662   3.235   8.536  2.1358  1.8310 -1.3385
  175SOPE   C3319917   4.813   3.097  10.505 -0.2172 -0.4172  0.5326
  175SOPE   H3X19918   4.704   3.116  10.521 -0.5318 -0.7337 -1.0880
  175SOPE   H3Y19919   4.826   2.989  10.529  1.7208 -0.3116  0.0809
  175SOPE   C3419920   4.847   3.130  10.364 -0.2540 -0.3969 -0.1634
  175SOPE   H4X19921   4.956   3.113  10.356  0.3508  2.7332 -0.1577
  175SOPE   H4Y19922   4.830   3.236  10.334 -1.2859 -1.1348 -2.4005
  175SOPE   C3519923   4.771   3.039  10.269 -0.5410  0.2080 -0.3719
  175SOPE   H5X19924   4.661   3.057  10.278 -0.6922 -0.9714  0.4302
  175SOPE   H5Y19925   4.800   2.937  10.302 -0.0262  0.4942  0.0821
  175SOPE   C3619926   4.815   3.076  10.121 -0.2887  0.2803 -0.7370
  175SOPE   H6X19927   4.926   3.075  10.120 -0.2654 -1.7653 -2.2827
  175SOPE   H6Y19928   4.768   3.174  10.100 -0.3605  0.4765  0.2603
  175SOPE   C3719929   4.771   2.978  10.015  0.2809 -0.5279 -0.3086
  175SOPE   H7X19930   4.665   2.952  10.034  0.4000  0.1613  1.4381
  175SOPE   H7Y19931   4.827   2.883  10.030  1.9750  0.5775  0.6430
  175SOPE   C3819932   4.799   3.037   9.876 -0.0942  0.2152 -0.7477
  175SOPE   H8X19933   4.909   3.056   9.882 -0.0559 -0.3397  0.9895
  175SOPE   H8Y19934   4.743   3.130   9.857  0.4575  0.4695 -1.1656
  175SOPE   C3919935   4.756   2.948   9.755 -0.1233 -0.5948 -0.3844
  175SOPE   H9X19936   4.655   2.903   9.766 -0.2461 -0.0022  1.3731
  175SOPE   H9Y19937   4.826   2.862   9.753  0.9879  0.3131 -1.7563
  175SOPE  C31019938   4.767   3.028   9.623 -0.2031  0.3840  0.2844
  175SOPE  H10X19939   4.862   3.085   9.614  0.3683 -0.6600 -0.6363
  175SOPE  H10Y19940   4.681   3.097   9.612 -2.6202 -2.1183  2.0829
  175SOPE  C31119941   4.744   2.935   9.504 -0.4881 -0.0853  0.0826
  175SOPE  H11X19942   4.649   2.877   9.507 -0.0888 -0.8155 -0.9355
  175SOPE  H11Y19943   4.821   2.857   9.521 -0.7510  0.3524  4.4862
  175SOPE  C31219944   4.750   3.001   9.372 -0.6830 -0.0767 -0.6345
  175SOPE  H12X19945   4.856   3.018   9.346 -0.7395 -1.2780 -1.7539
  175SOPE  H12Y19946   4.692   3.095   9.384 -1.1076 -0.3867 -0.2117
  175SOPE  C31319947   4.684   2.929   9.257  0.1685 -0.8761  0.4056
  175SOPE  H13X19948   4.575   2.940   9.272  0.2143  2.8231 -1.1062
  175SOPE  H13Y19949   4.712   2.821   9.254  0.2340 -0.8780  1.0072
  175SOPE  C31419950   4.713   3.001   9.122 -0.4374  0.5825 -1.1135
  175SOPE  H14X19951   4.819   3.033   9.131  0.1587 -1.3658 -0.8222
  175SOPE  H14Y19952   4.649   3.092   9.123 -1.0965  0.1276 -0.7547
  175SOPE  C31519953   4.703   2.906   8.998 -0.1391  0.4719  0.5041
  175SOPE  H15X19954   4.601   2.862   8.995  0.4635 -1.3496  3.2322
  175SOPE  H15Y19955   4.777   2.824   9.006 -0.4842  0.0121 -0.8339
  175SOPE  C31619956   4.729   2.990   8.871  0.3743  0.4244  0.0871
  175SOPE  H16X19957   4.823   3.048   8.883  1.4180 -1.1309 -0.2028
  175SOPE  H16Y19958   4.651   3.068   8.860  0.9898  1.0195 -0.1773
  175SOPE  C31719959   4.744   2.894   8.756 -0.2817  0.3428  0.5012
  175SOPE  H17X19960   4.735   2.951   8.662  0.0308 -0.9551 -0.3383
  175SOPE  H17Y19961   4.668   2.813   8.753  1.7324 -1.6118 -1.3750
  175SOPE  C31819962   4.879   2.821   8.755 -0.2978  0.2676  0.4350
  175SOPE  H18X19963   4.969   2.886   8.746 -0.2259  0.3426  1.6190
  175SOPE  H18Y19964   4.880   2.753   8.667  2.3588 -0.2245  0.7729
  175SOPE  H18Z19965   4.893   2.750   8.839  1.6612  1.3822  1.1106
  176SOPE     N19966   3.142   3.597  11.071  0.3227 -0.2248 -0.0997
  176SOPE   HN119967   3.109   3.687  11.110  0.2501  0.0546 -0.7785
  176SOPE   HN219968   3.067   3.526  11.084  1.1858 -0.6274  3.5606
  176SOPE   HN319969   3.223   3.573  11.131  0.0955  0.0121  0.3072
  176SOPE   C1219970   3.178   3.623  10.928 -0.0872  0.4110 -0.0838
  176SOPE  H12A19971   3.088   3.625  10.862  1.3414  0.5352 -2.1310
  176SOPE  H12B19972   3.226   3.531  10.889 -1.8640 -0.5654 -0.0720
  176SOPE   C1119973   3.270   3.743  10.912 -0.2386  0.0398 -0.4569
  176SOPE  H11A19974   3.292   3.765  10.805 -0.1505 -0.5591 -0.5612
  176SOPE  H11B19975   3.368   3.716  10.956  0.7099  0.9234 -1.9313
  176SOPE     P19976   3.297   3.984  10.997  0.1552  0.3019 -0.3446
  176SOPE   O1319977   3.372   3.960  11.124  0.0427 -0.2828  0.5369
  176SOPE   O1419978   3.205   4.103  10.994 -0.4588  0.0564  0.8532
  176SOPE   O1219979   3.210   3.863  10.960 -0.2185 -0.2388 -0.2779
  176SOPE   O1119980   3.401   4.001  10.877  0.2326  0.0136  0.3501
  176SOPE    C119981   3.524   4.067  10.895  0.6511  0.5532 -0.7164
  176SOPE    HA19982   3.595   4.019  10.965  1.3289  2.0598 -0.3366
  176SOPE    HB19983   3.503   4.167  10.939  1.4007 -0.1144  1.2651
  176SOPE    C219984   3.597   4.101  10.761 -0.0206 -0.0205 -0.0868
  176SOPE    HS19985   3.666   4.024  10.721  1.2003  2.6555 -3.6921
  176SOPE   O2119986   3.680   4.217  10.795 -0.4365  0.4847  0.1939
  176SOPE   C2119987   3.784   4.248  10.708  0.4923  0.1808  0.2151
  176SOPE   O2219988   3.831   4.181  10.621 -0.5163  0.0643  0.2711
  176SOPE   C2219989   3.821   4.393  10.724  0.0664 -0.1035 -0.0452
  176SOPE   H2R19990   3.866   4.402  10.825 -1.3859  3.6315  0.4466
  176SOPE   H2S19991   3.727   4.451  10.732  0.4457  0.8942 -2.2340
  176SOPE    C319992   3.495   4.153  10.655 -0.2792 -0.3178 -0.2770
  176SOPE    HX19993   3.448   4.244  10.698 -1.3435 -0.7840 -0.4254
  176SOPE    HY19994   3.415   4.076  10.650  1.1450 -1.9351  0.4096
  176SOPE   O3119995   3.556   4.184  10.532  0.0198 -0.1381  0.1503
  176SOPE   C3119996   3.599   4.072  10.469  0.1662  0.0256  0.0182
  176SOPE   O3219997   3.583   3.957  10.498  0.1516 -0.2094  0.7574
  176SOPE   C3219998   3.664   4.117  10.335 -0.1668 -0.1612 -0.5368
  176SOPE   H2X19999   3.746   4.050  10.300  0.3686  0.4446 -0.4610
  176SOPE   H2Y20000   3.714   4.215  10.351  1.0065 -0.8814  0.3474
  176SOPE   C2320001   3.891   4.453  10.598 -0.0377 -0.1589  0.1397
  176SOPE   H3R20002   3.967   4.380  10.564  0.2769 -0.5413  1.6291
  176SOPE   H3S20003   3.948   4.547  10.616 -0.4779  0.5579 -1.8866
  176SOPE   C2420004   3.792   4.499  10.484  0.1275  0.2850 -0.0032
  176SOPE   H4R20005   3.713   4.421  10.478  0.3716  0.0170  0.2029
  176SOPE   H4S20006   3.747   4.589  10.531  0.5694  0.0685  0.8560
  176SOPE   C2520007   3.854   4.508  10.352  0.0062 -0.0923 -0.2844
  176SOPE   H5R20008   3.922   4.596  10.354  0.4000 -0.4055  0.3544
  176SOPE   H5S20009   3.919   4.422  10.324  2.2244  1.4311 -0.0943
  176SOPE   C2620010   3.750   4.531  10.238 -0.1698  0.3770 -0.6476
  176SOPE   H6R20011   3.695   4.438  10.213 -4.0249  2.2375  0.1073
  176SOPE   H6S20012   3.677   4.600  10.287  0.2318 -0.3892  1.1278
  176SOPE   C2720013   3.802   4.606  10.116 -0.6712  0.5981 -0.4171
  176SOPE   H7R20014   3.860   4.700  10.130 -1.3987  1.3680 -2.2141
  176SOPE   H7S20015   3.875   4.544  10.060  1.3893  2.1340  0.4373
  176SOPE   C2820016   3.690   4.654  10.024  0.8623 -0.1969 -0.2520
  176SOPE   H8R20017   3.621   4.720  10.082  3.2355  2.6268 -0.3912
  176SOPE   H8S20018   3.734   4.720   9.947 -0.9182  2.1572  0.6280
  176SOPE   C2920019   3.613   4.538   9.968  0.6914  0.2384  0.9125
  176SOPE   H9120020   3.589   4.463  10.045 -1.4284  0.0381  0.1169
  176SOPE  C21020021   3.575   4.517   9.836  0.3306 -1.1653  0.2823
  176SOPE  H10120022   3.526   4.424   9.804 -2.6725  0.4340 -0.0541
  176SOPE  C21120023   3.610   4.607   9.727 -0.4581  0.0244  0.3263
  176SOPE  H11R20024   3.718   4.598   9.699  0.2559  1.4315  2.3366
  176SOPE  H11S20025   3.603   4.712   9.764 -2.4397  0.0576 -0.0534
  176SOPE  C21220026   3.507   4.578   9.612 -0.0543  0.1180  0.1102
  176SOPE  H12R20027   3.423   4.646   9.639  0.5910  0.8674  0.2544
  176SOPE  H12S20028   3.467   4.474   9.614  0.1175  0.0624  1.2515
  176SOPE  C21320029   3.571   4.613   9.477 -0.2208  0.1694  0.1331
  176SOPE  H13R20030   3.661   4.549   9.462 -0.0377  0.3312  0.5304
  176SOPE  H13S20031   3.600   4.720   9.478 -0.5889  0.2712  0.0886
  176SOPE  C21420032   3.484   4.581   9.353 -0.1592 -0.1887  0.5158
  176SOPE  H14R20033   3.407   4.661   9.355  0.6974  0.7175 -0.9733
  176SOPE  H14S20034   3.428   4.484   9.354  0.3406 -0.5357 -1.1798
  176SOPE  C21520035   3.553   4.583   9.221  0.5854  0.2801 -0.0857
  176SOPE  H15R20036   3.634   4.507   9.224  0.9501  0.6684  0.0181
  176SOPE  H15S20037   3.611   4.678   9.217  1.0299  0.0012 -0.4771
  176SOPE  C21620038   3.463   4.569   9.099  0.9289  0.1682 -0.1460
  176SOPE  H16R20039   3.387   4.489   9.113 -0.0042  0.7003 -1.8556
  176SOPE  H16S20040   3.516   4.526   9.011 -2.1221  0.6252 -2.3817
  176SOPE  C21720041   3.382   4.694   9.055  0.0609 -0.1940  0.5470
  176SOPE  H17R20042   3.351   4.766   9.134  0.8163  0.9275 -0.1530
  176SOPE  H17S20043   3.294   4.651   9.001  0.6113  0.3389 -0.8149
  176SOPE  C21820044   3.456   4.775   8.946 -0.0653 -0.5173 -0.3491
  176SOPE  H18R20045   3.491   4.707   8.866  0.0543 -1.3600  0.3974
  176SOPE  H18S20046   3.544   4.831   8.985  0.1170 -1.6189  0.9101
  176SOPE  H18T20047   3.388   4.849   8.899  1.0662  2.4588  2.3354
  176SOPE   C3320048   3.546   4.122  10.232 -0.0858 -0.0311  0.5642
  176SOPE   H3X20049   3.458   4.186  10.253 -0.9613 -0.8975 -0.3127
  176SOPE   H3Y20050   3.501   4.021  10.220  0.0531  0.1556 -2.1160
  176SOPE   C3420051   3.617   4.161  10.096 -0.2421 -0.3015  0.8370
  176SOPE   H4X20052   3.711   4.105  10.076 -0.9552 -0.7637 -1.5202
  176SOPE   H4Y20053   3.635   4.271  10.097 -0.5912 -0.1826 -1.4871
  176SOPE   C3520054   3.538   4.129   9.975 -0.1410  0.5943 -0.3769
  176SOPE   H5X20055   3.436   4.168   9.992 -0.6613 -1.0000  0.3745
  176SOPE   H5Y20056   3.509   4.022   9.962  0.9640  0.5603 -3.1300
  176SOPE   C3620057   3.611   4.158   9.850 -0.5518  0.0335 -0.4444
  176SOPE   H6X20058   3.683   4.075   9.831  0.1488  0.0106  2.0176
  176SOPE   H6Y20059   3.655   4.259   9.860 -1.3979  0.3172  0.6648
  176SOPE   C3720060   3.507   4.150   9.733 -0.2562 -0.5112 -0.4431
  176SOPE   H7X20061   3.420   4.218   9.749 -0.5437 -0.9615 -0.0420
  176SOPE   H7Y20062   3.468   4.048   9.752  1.0064 -0.7496  1.0984
  176SOPE   C3820063   3.558   4.179   9.593 -0.2739 -0.4624  0.2048
  176SOPE   H8X20064   3.643   4.114   9.566 -2.4445 -3.1078 -0.6315
  176SOPE   H8Y20065   3.587   4.285   9.576 -0.5160 -0.6015 -1.1675
  176SOPE   C3920066   3.449   4.155   9.494 -0.1495  0.3340  0.0819
  176SOPE   H9X20067   3.369   4.227   9.523 -0.3219  1.1256 -2.1341
  176SOPE   H9Y20068   3.421   4.048   9.488  1.0000  0.0379 -0.0867
  176SOPE  C31020069   3.479   4.199   9.347  0.0904 -0.0791 -0.3899
  176SOPE  H10X20070   3.521   4.301   9.336 -0.4032  0.0348 -1.3983
  176SOPE  H10Y20071   3.383   4.204   9.291  0.5287 -0.9941 -1.2597
  176SOPE  C31120072   3.568   4.108   9.266 -0.0552  0.0407  0.5409
  176SOPE  H11X20073   3.510   4.014   9.249 -1.4510  1.0447 -0.4959
  176SOPE  H11Y20074   3.656   4.080   9.327  1.1800  0.2754 -1.0677
  176SOPE  C31220075   3.612   4.165   9.129 -0.0515  0.0713 -0.5729
  176SOPE  H12X20076   3.689   4.244   9.143 -0.1870  0.4673 -1.9046
  176SOPE  H12Y20077   3.527   4.213   9.076  0.8044  1.7668 -0.4616
  176SOPE  C31320078   3.672   4.067   9.030  0.1367  0.1583 -0.0319
  176SOPE  H13X20079   3.614   3.974   9.013  2.2031 -1.0541 -0.7609
  176SOPE  H13Y20080   3.774   4.053   9.070  0.9608  1.0452 -1.7425
  176SOPE  C31420081   3.697   4.138   8.895  0.0779  0.0973 -0.0508
  176SOPE  H14X20082   3.763   4.226   8.911 -0.6022  0.3872  1.3307
  176SOPE  H14Y20083   3.602   4.182   8.860  1.3452  1.7142 -1.6089
  176SOPE  C31520084   3.756   4.059   8.773 -0.0555  0.1942  0.5519
  176SOPE  H15X20085   3.666   4.002   8.743  0.1174 -0.1103  0.6071
  176SOPE  H15Y20086   3.842   3.994   8.803  2.1062  2.1777 -1.0012
  176SOPE  C31620087   3.809   4.154   8.666  0.2288  0.1956 -0.3872
  176SOPE  H16X20088   3.891   4.217   8.708 -0.3528 -0.0766  1.2178
  176SOPE  H16Y20089   3.721   4.222   8.660  1.0589  1.2471 -1.0772
  176SOPE  C31720090   3.830   4.115   8.522  0.8487  0.1984  0.9539
  176SOPE  H17X20091   3.738   4.058   8.496  0.3641  0.5906  1.7770
  176SOPE  H17Y20092   3.917   4.046   8.523 -0.8284 -2.0170  1.6288
  176SOPE  C31820093   3.852   4.241   8.433 -0.2974 -0.3120 -0.2690
  176SOPE  H18X20094   3.869   4.235   8.324 -0.9096  0.4075 -0.4179
  176SOPE  H18Y20095   3.948   4.287   8.464  1.6862 -1.7620 -3.7612
  176SOPE  H18Z20096   3.765   4.310   8.434  0.2772  0.4522 -1.1122
  177SOPE     N20097   4.510   1.305  10.710  0.1055 -0.5156  0.2309
  177SOPE   HN120098   4.427   1.244  10.700 -0.1689  0.0191 -0.9363
  177SOPE   HN220099   4.481   1.405  10.704 -0.7323 -0.7780 -0.2224
  177SOPE   HN320100   4.591   1.292  10.647  0.5859  0.8810  0.5258
  177SOPE   C1220101   4.566   1.292  10.846 -0.5509  0.3546  0.2131
  177SOPE  H12A20102   4.580   1.182  10.856  0.5581 -0.0005 -3.6799
  177SOPE  H12B20103   4.495   1.335  10.919 -0.4895  1.9614 -0.6266
  177SOPE   C1120104   4.700   1.362  10.838  0.5561  0.3350 -0.5890
  177SOPE  H11A20105   4.783   1.313  10.784 -1.2834 -1.0801 -2.2808
  177SOPE  H11B20106   4.727   1.354  10.945 -0.7240 -0.7454 -0.3148
  177SOPE     P20107   4.721   1.612  10.897 -0.0291 -0.1061 -0.0075
  177SOPE   O1320108   4.865   1.592  10.925  0.1113 -0.3946 -0.1557
  177SOPE   O1420109   4.627   1.597  11.009  0.5091 -0.0426  0.3688
  177SOPE   O1220110   4.677   1.500  10.795 -0.2026 -0.2475  0.4269
  177SOPE   O1120111   4.692   1.746  10.819 -0.4200 -0.0348 -0.2638
  177SOPE    C120112   4.621   1.771  10.700 -0.4893 -0.1136  0.1815
  177SOPE    HA20113   4.593   1.879  10.696 -0.3516 -0.1054 -0.9294
  177SOPE    HB20114   4.528   1.711  10.710 -1.0526  0.3096 -2.0527
  177SOPE    C220115   4.699   1.739  10.571 -0.2839  0.5485 -0.2443
  177SOPE    HS20116   4.749   1.641  10.583  1.1606  1.2881 -0.0544
  177SOPE   O2120117   4.793   1.845  10.545  0.0309  0.6847 -0.4443
  177SOPE   C2120118   4.912   1.795  10.496  0.1101  0.2114  0.8328
  177SOPE   O2220119   4.939   1.677  10.481 -0.1384  0.0162  0.0213
  177SOPE   C2220120   4.994   1.910  10.442 -0.4657  0.1614 -0.1338
  177SOPE   H2R20121   5.030   1.967  10.530  0.3137 -0.2100 -0.1998
  177SOPE   H2S20122   4.925   1.974  10.382 -0.1875  0.6376  0.0498
  177SOPE    C320123   4.602   1.726  10.453 -0.3834  0.2005 -0.6309
  177SOPE    HX20124   4.529   1.810  10.443 -1.1660 -0.4774 -0.7216
  177SOPE    HY20125   4.537   1.643  10.488 -1.4995  0.2402 -2.4525
  177SOPE   O3120126   4.671   1.713  10.320  0.3496 -0.8475  0.7199
  177SOPE   C3120127   4.706   1.588  10.298  0.1280  0.7018 -0.0934
  177SOPE   O3220128   4.675   1.496  10.372 -0.1231 -0.2070 -0.3662
  177SOPE   C3220129   4.760   1.570  10.155 -0.2819  0.0071  0.2167
  177SOPE   H2X20130   4.694   1.495  10.108 -2.2286  2.1021 -0.5413
  177SOPE   H2Y20131   4.857   1.519  10.176  1.2074  2.0478 -1.3125
  177SOPE   C2320132   5.127   1.862  10.363 -0.6854  0.0504  0.0547
  177SOPE   H3R20133   5.173   1.795  10.439 -1.8071  2.9879  3.6515
  177SOPE   H3S20134   5.204   1.939  10.345 -1.9037  1.3180  0.0588
  177SOPE   C2420135   5.098   1.795  10.219  0.2418  0.8291 -0.0509
  177SOPE   H4R20136   5.040   1.701  10.223  1.3849  0.1545  1.3294
  177SOPE   H4S20137   5.056   1.872  10.150  2.6170  0.1781 -2.3743
  177SOPE   C2520138   5.232   1.759  10.156 -0.7024 -0.9188 -0.2120
  177SOPE   H5R20139   5.298   1.848  10.164 -1.8076 -0.2309  2.0644
  177SOPE   H5S20140   5.283   1.671  10.200 -0.5730 -0.7835 -0.0941
  177SOPE   C2620141   5.216   1.745  10.006  0.6322 -0.0542  0.9282
  177SOPE   H6R20142   5.148   1.659   9.989 -0.3964  0.9966 -0.6417
  177SOPE   H6S20143   5.165   1.840   9.977 -1.1568 -0.3555  2.8373
  177SOPE   C2720144   5.354   1.726   9.940  0.3718  0.2139  0.3158
  177SOPE   H7R20145   5.427   1.800   9.980  2.6375 -1.6358 -0.2321
  177SOPE   H7S20146   5.388   1.627   9.976 -2.3184 -1.7574 -2.0456
  177SOPE   C2820147   5.354   1.736   9.785 -0.5019 -0.1261 -0.2820
  177SOPE   H8R20148   5.302   1.830   9.758  1.0139  0.4464 -1.3732
  177SOPE   H8S20149   5.460   1.761   9.760 -0.2715  0.3493  1.1124
  177SOPE   C2920150   5.305   1.609   9.717 -0.4031  0.3146 -0.1324
  177SOPE   H9120151   5.268   1.540   9.795 -0.3870 -1.0408 -1.2969
  177SOPE  C21020152   5.301   1.575   9.585 -0.3403 -0.0787 -0.1108
  177SOPE  H10120153   5.257   1.479   9.552 -1.3873 -0.4766  2.1774
  177SOPE  C21120154   5.349   1.666   9.472 -0.6920  0.1888 -0.7926
  177SOPE  H11R20155   5.451   1.636   9.440 -0.7896 -0.3597 -0.5943
  177SOPE  H11S20156   5.346   1.772   9.507  0.6916  0.2338 -0.7569
  177SOPE  C21220157   5.247   1.650   9.362 -0.0654 -0.5346 -0.1328
  177SOPE  H12R20158   5.144   1.680   9.391  0.8125  1.4933  1.1093
  177SOPE  H12S20159   5.238   1.544   9.332 -1.8298  0.0032 -1.7444
  177SOPE  C21320160   5.282   1.722   9.222  0.2430  0.0091 -0.1715
  177SOPE  H13R20161   5.274   1.833   9.211  0.6424 -0.1096 -1.9302
  177SOPE  H13S20162   5.203   1.685   9.153  0.6046  0.5965 -0.9145
  177SOPE  C21420163   5.420   1.686   9.163 -0.2565  0.2289 -0.5550
  177SOPE  H14R20164   5.427   1.575   9.158 -2.9343 -0.0576  0.4903
  177SOPE  H14S20165   5.493   1.727   9.236 -1.0791  2.5274 -0.9451
  177SOPE  C21520166   5.447   1.748   9.024  0.0247 -0.7041  0.3431
  177SOPE  H15R20167   5.477   1.855   9.035  1.9956 -1.1338 -0.5550
  177SOPE  H15S20168   5.350   1.745   8.969 -0.8463  1.1403  1.6409
  177SOPE  C21620169   5.561   1.680   8.941  0.1183 -0.8589 -0.4214
  177SOPE  H16R20170   5.543   1.570   8.941 -0.9804 -0.7176 -1.8727
  177SOPE  H16S20171   5.657   1.698   8.993  0.6186 -2.1059 -0.8775
  177SOPE  C21720172   5.576   1.728   8.797 -0.0121 -0.7271 -0.3062
  177SOPE  H17R20173   5.623   1.828   8.798 -2.3621  0.4379  0.4031
  177SOPE  H17S20174   5.470   1.747   8.769  0.4302  0.1267 -1.4565
  177SOPE  C21820175   5.638   1.628   8.697  0.3229  0.5791  0.0872
  177SOPE  H18R20176   5.740   1.615   8.738 -0.2855 -0.7987  1.3019
  177SOPE  H18S20177   5.637   1.662   8.591 -2.1855  1.5748  0.3469
  177SOPE  H18T20178   5.586   1.529   8.700 -0.0939  0.8138  1.5368
  177SOPE   C3320179   4.769   1.697  10.070  0.1562  0.4279  1.2533
  177SOPE   H3X20180   4.826   1.778  10.120  0.2589  2.1457 -1.3841
  177SOPE   H3Y20181   4.670   1.749  10.064 -0.5834 -0.5543  3.7633
  177SOPE   C3420182   4.818   1.666   9.933 -0.6236  0.6017  0.9010
  177SOPE   H4X20183   4.758   1.585   9.885 -1.1449  1.3533  0.2582
  177SOPE   H4Y20184   4.922   1.627   9.944 -0.5294  0.7398  0.5321
  177SOPE   C3520185   4.811   1.777   9.831 -0.0278 -0.2076  0.6407
  177SOPE   H5X20186   4.893   1.851   9.835 -0.1620 -0.0662  0.7443
  177SOPE   H5Y20187   4.712   1.827   9.836  1.1482  2.2233  1.0548
  177SOPE   C3620188   4.815   1.719   9.688  0.4941 -0.5445  0.5478
  177SOPE   H6X20189   4.751   1.628   9.692 -1.1091  0.4441 -1.2474
  177SOPE   H6Y20190   4.921   1.685   9.678 -0.0421 -2.3226  0.4891
  177SOPE   C3720191   4.764   1.813   9.577 -0.5582 -0.0186  0.0641
  177SOPE   H7X20192   4.657   1.841   9.589 -0.5493 -0.1770  0.5440
  177SOPE   H7Y20193   4.764   1.759   9.480 -0.3612 -2.3484  1.2903
  177SOPE   C3820194   4.868   1.930   9.558 -0.1367 -0.5877  0.9850
  177SOPE   H8X20195   4.969   1.894   9.531  0.5571  1.1606  1.1697
  177SOPE   H8Y20196   4.884   1.978   9.657 -1.5709  0.3228  0.8054
  177SOPE   C3920197   4.815   2.040   9.465  0.1921  0.7384 -0.1314
  177SOPE   H9X20198   4.866   2.136   9.491  0.7375  0.5433 -0.4769
  177SOPE   H9Y20199   4.705   2.054   9.477  0.3704  2.4982 -0.2511
  177SOPE  C31020200   4.851   2.011   9.316  0.3294  0.3418 -0.0070
  177SOPE  H10X20201   4.783   2.074   9.255  0.6385  1.4192  0.7356
  177SOPE  H10Y20202   4.837   1.906   9.283  0.6072  0.1213  0.5599
  177SOPE  C31120203   4.990   2.063   9.283  0.4060 -0.3548 -0.4280
  177SOPE  H11X20204   5.053   2.030   9.369 -0.5225  3.0108  1.7236
  177SOPE  H11Y20205   4.981   2.173   9.291  1.2161 -0.3340  0.3538
  177SOPE  C31220206   5.046   2.004   9.156  0.2820 -0.4359  0.2220
  177SOPE  H12X20207   5.086   1.902   9.176  2.8563  0.3072 -0.6887
  177SOPE  H12Y20208   5.138   2.057   9.123 -0.5626 -0.3338 -2.2084
  177SOPE  C31320209   4.957   2.012   9.025  0.2059  0.5094  0.1827
  177SOPE  H13X20210   4.858   1.968   9.048  1.2339 -2.3021 -0.4135
  177SOPE  H13Y20211   5.004   1.955   8.943  0.6890  1.3925 -0.1689
  177SOPE  C31420212   4.939   2.164   8.991  0.1959  0.3102  0.3371
  177SOPE  H14X20213   5.040   2.201   8.960  1.4526 -1.6773  1.7883
  177SOPE  H14Y20214   4.909   2.215   9.085  0.4906  0.4358  0.3645
  177SOPE  C31520215   4.842   2.201   8.872 -0.2557 -1.1308  0.5552
  177SOPE  H15X20216   4.869   2.149   8.777 -0.7863 -0.0848 -0.1916
  177SOPE  H15Y20217   4.854   2.308   8.848  0.1801 -1.4776 -0.8612
  177SOPE  C31620218   4.693   2.174   8.904 -0.0840 -0.2375 -0.5036
  177SOPE  H16X20219   4.685   2.232   8.999 -1.1784  1.3271 -1.4985
  177SOPE  H16Y20220   4.685   2.067   8.930 -0.9061  0.0473  0.4824
  177SOPE  C31720221   4.606   2.212   8.796  0.9815  0.1760 -0.1083
  177SOPE  H17X20222   4.627   2.151   8.705  0.5225 -0.1614  0.0053
  177SOPE  H17Y20223   4.620   2.321   8.781 -2.6141  1.1216  2.0900
  177SOPE  C31820224   4.461   2.204   8.830  0.2737 -0.0432 -0.0736
  177SOPE  H18X20225   4.439   2.249   8.929 -2.4022 -1.9113  0.2813
  177SOPE  H18Y20226   4.414   2.104   8.823  0.5224 -0.2924  1.4597
  177SOPE  H18Z20227   4.404   2.273   8.764 -2.9003 -0.4138  2.1026
  178SOPE     N20228   0.171   6.610  11.082  0.9907 -0.1761  0.1201
  178SOPE   HN120229   0.183   6.556  11.170  0.9063 -0.7785 -0.2330
  178SOPE   HN220230   0.164   6.709  11.113  1.1112 -0.0975 -0.1025
  178SOPE   HN320231   0.070   6.595  11.062  0.2125  2.2051  1.7982
  178SOPE   C1220232   0.265   6.585  10.966  0.4709  0.4640  0.6552
  178SOPE  H12A20233   0.263   6.475  10.951 -2.2393  0.5075  0.2461
  178SOPE  H12B20234   0.367   6.608  11.005  1.1411 -1.8131  0.3837
  178SOPE   C1120235   0.231   6.672  10.849 -0.0650  0.2852  0.3202
  178SOPE  H11A20236   0.302   6.649  10.767  0.9932 -1.4519  1.6591
  178SOPE  H11B20237   0.233   6.780  10.876 -2.0291 -0.2165  2.8079
  178SOPE     P20238   0.065   6.542  10.691  0.1230  0.3808  0.3494
  178SOPE   O1320239  -0.074   6.543  10.660  0.8253  0.4288 -0.3123
  178SOPE   O1420240   0.129   6.416  10.734 -0.2409 -0.3558 -0.3317
  178SOPE   O1220241   0.100   6.648  10.798  0.0856  0.3139 -0.1100
  178SOPE   O1120242   0.150   6.597  10.570 -0.3110 -0.0471  0.1610
  178SOPE    C120243   0.101   6.712  10.503  0.3161 -0.1388 -1.0276
  178SOPE    HA20244   0.089   6.799  10.572  0.3813 -0.2850 -0.8295
  178SOPE    HB20245  -0.001   6.685  10.469  0.3443  1.0491 -2.1225
  178SOPE    C220246   0.189   6.756  10.387  0.1546 -0.3883  0.2438
  178SOPE    HS20247   0.152   6.853  10.346  0.5204  0.4258  1.7624
  178SOPE   O2120248   0.208   6.660  10.278 -0.3119 -0.3079 -0.7678
  178SOPE   C2120249   0.098   6.650  10.202  0.2951  0.7210  0.5677
  178SOPE   O2220250  -0.009   6.710  10.218 -0.4045  0.3498 -0.1794
  178SOPE   C2220251   0.123   6.532  10.106  0.5503 -0.4563 -0.6158
  178SOPE   H2R20252   0.068   6.451  10.158  0.8789  1.5865  3.2158
  178SOPE   H2S20253   0.231   6.506  10.100  0.4174 -1.0851 -0.3549
  178SOPE    C320254   0.327   6.791  10.458  0.2480 -0.0603  0.4468
  178SOPE    HX20255   0.383   6.701  10.490  0.9982  0.5953  1.0024
  178SOPE    HY20256   0.300   6.843  10.552  1.7641  0.0817  0.8258
  178SOPE   O3120257   0.409   6.878  10.380  0.6952 -0.1182  0.0398
  178SOPE   C3120258   0.537   6.884  10.412 -0.0477  1.1390 -0.7750
  178SOPE   O3220259   0.594   6.829  10.505  0.0954  0.6343  0.0129
  178SOPE   C3220260   0.604   6.985  10.316  0.1072 -0.6974 -0.3145
  178SOPE   H2X20261   0.561   7.087  10.326  0.3970 -0.3834 -2.0002
  178SOPE   H2Y20262   0.578   6.949  10.215  1.4054  1.3217 -1.4302
  178SOPE   C2320263   0.076   6.552   9.956 -0.0629 -0.0179  0.2931
  178SOPE   H3R20264   0.147   6.634   9.931 -0.2572  0.1632  0.3298
  178SOPE   H3S20265  -0.027   6.594   9.953 -0.4826 -1.0601 -0.5514
  178SOPE   C2420266   0.095   6.425   9.873  0.2091  0.2975  0.0682
  178SOPE   H4R20267   0.195   6.380   9.891  0.8821  0.9813 -1.7101
  178SOPE   H4S20268   0.015   6.355   9.905  1.2905 -1.2616 -0.4770
  178SOPE   C2520269   0.078   6.435   9.721 -0.4439  0.0781 -0.2394
  178SOPE   H5R20270  -0.032   6.451   9.711 -0.8934 -1.6932  1.2201
  178SOPE   H5S20271   0.139   6.518   9.680  2.0646 -1.6689 -0.2645
  178SOPE   C2620272   0.102   6.294   9.662  0.5625 -0.2328 -0.0091
  178SOPE   H6R20273   0.202   6.254   9.689 -0.1814 -3.3477 -1.4404
  178SOPE   H6S20274   0.021   6.231   9.704  0.1753  0.6231  0.5508
  178SOPE   C2720275   0.087   6.302   9.506  0.1027  0.4363 -1.0072
  178SOPE   H7R20276  -0.021   6.323   9.494 -0.1282 -0.8560 -1.3107
  178SOPE   H7S20277   0.148   6.375   9.448 -1.4276  1.9075 -0.8536
  178SOPE   C2820278   0.127   6.169   9.445 -0.1864 -0.0922  0.1359
  178SOPE   H8R20279   0.102   6.193   9.339 -1.8609  1.2658  0.7884
  178SOPE   H8S20280   0.237   6.157   9.456 -0.0480 -0.6966 -1.5054
  178SOPE   C2920281   0.046   6.055   9.496  0.4377 -0.0053  0.8833
  178SOPE   H9120282  -0.054   6.039   9.453  1.0062  0.8430 -0.8709
  178SOPE  C21020283   0.079   5.965   9.588 -0.0245  0.1510 -0.7092
  178SOPE  H10120284   0.007   5.883   9.601  2.3917 -2.1301 -0.8411
  178SOPE  C21120285   0.204   5.974   9.667 -0.2876 -0.2073  0.0034
  178SOPE  H11R20286   0.264   6.066   9.653  0.2992 -0.7972 -1.6285
  178SOPE  H11S20287   0.283   5.903   9.633 -0.1704  0.5904 -1.4609
  178SOPE  C21220288   0.170   5.952   9.819 -0.3822  0.1759  0.5268
  178SOPE  H12R20289   0.097   5.869   9.828 -0.2789  0.0456  0.1647
  178SOPE  H12S20290   0.117   6.045   9.851  0.9577  0.4746  1.9985
  178SOPE  C21320291   0.287   5.926   9.922 -0.0030  0.3451  0.5235
  178SOPE  H13R20292   0.357   6.013   9.919  0.4998 -0.0574  0.3176
  178SOPE  H13S20293   0.345   5.835   9.895 -0.5402  0.2845 -0.4794
  178SOPE  C21420294   0.233   5.918  10.064  0.3323 -0.5998 -0.1489
  178SOPE  H14R20295   0.160   5.835  10.074 -0.8319  0.5263  1.0851
  178SOPE  H14S20296   0.191   6.015  10.096 -1.0924 -1.4644  0.6838
  178SOPE  C21520297   0.347   5.889  10.158  0.1705 -0.6976 -0.2022
  178SOPE  H15R20298   0.411   5.979  10.144 -1.9521  0.8317 -0.5448
  178SOPE  H15S20299   0.409   5.804  10.121  0.1202 -1.0455  0.4893
  178SOPE  C21620300   0.302   5.868  10.301  0.1249  0.2063 -0.3009
  178SOPE  H16R20301   0.220   5.794  10.297  0.2942  0.0071 -0.1366
  178SOPE  H16S20302   0.281   5.966  10.349 -0.2531 -0.4914  1.0127
  178SOPE  C21720303   0.404   5.801  10.399  0.4794 -0.0409  0.8590
  178SOPE  H17R20304   0.353   5.790  10.498 -1.2191  0.8030  0.1139
  178SOPE  H17S20305   0.493   5.866  10.412  0.9018 -0.7373  1.5929
  178SOPE  C21820306   0.448   5.657  10.355  0.7281  0.2499  0.1059
  178SOPE  H18R20307   0.493   5.652  10.253  0.4898  2.3590 -0.1605
  178SOPE  H18S20308   0.354   5.598  10.340  0.7122  0.5018 -0.8729
  178SOPE  H18T20309   0.507   5.598  10.428  1.2534  1.8069  0.9699
  178SOPE   C3320310   0.759   6.995  10.329 -0.2569  0.3030  0.0556
  178SOPE   H3X20311   0.807   6.895  10.334  2.9811  1.6214 -1.5474
  178SOPE   H3Y20312   0.774   7.038  10.430 -1.0903 -0.6655  0.6179
  178SOPE   C3420313   0.821   7.088  10.221 -0.7314  0.8339  0.6219
  178SOPE   H4X20314   0.899   7.147  10.273  1.3089  1.5097 -2.8973
  178SOPE   H4Y20315   0.748   7.164  10.187 -0.3029  0.6075 -0.8868
  178SOPE   C3520316   0.883   7.012  10.107 -0.0484 -0.4499  0.2635
  178SOPE   H5X20317   0.922   6.915  10.145 -0.3722 -0.3654  0.8276
  178SOPE   H5Y20318   0.973   7.067  10.072 -0.9620  0.4827 -0.6872
  178SOPE   C3620319   0.793   6.963   9.994  0.2767 -0.3676 -0.0510
  178SOPE   H6X20320   0.753   7.046   9.933  3.3234  1.5401  0.3378
  178SOPE   H6Y20321   0.698   6.923  10.037 -2.7479  4.0737 -1.8051
  178SOPE   C3720322   0.860   6.869   9.890  0.2259 -0.5183 -0.9526
  178SOPE   H7X20323   0.863   6.765   9.930 -1.8402 -0.5302 -0.7293
  178SOPE   H7Y20324   0.963   6.908   9.880  0.8852 -2.2302 -1.1715
  178SOPE   C3820325   0.787   6.871   9.757  0.5331 -0.0444 -0.0130
  178SOPE   H8X20326   0.790   6.971   9.709  2.4367  0.5350  1.2242
  178SOPE   H8Y20327   0.678   6.849   9.770  0.8254 -1.3023  0.4636
  178SOPE   C3920328   0.854   6.778   9.657 -0.3051  0.5420 -0.1218
  178SOPE   H9X20329   0.835   6.672   9.685 -2.1705  1.1556  1.1297
  178SOPE   H9Y20330   0.960   6.810   9.649 -0.0814 -0.4522 -1.4746
  178SOPE  C31020331   0.803   6.788   9.509  0.2313  0.0559 -0.6229
  178SOPE  H10X20332   0.801   6.897   9.485 -2.5242  0.4895  1.1301
  178SOPE  H10Y20333   0.697   6.757   9.517 -0.1930  1.8887  3.5045
  178SOPE  C31120334   0.877   6.703   9.406  0.0903  0.0168  0.2250
  178SOPE  H11X20335   0.854   6.598   9.435  2.7875 -1.1782 -1.5840
  178SOPE  H11Y20336   0.986   6.722   9.414  0.1313 -0.5936  1.2261
  178SOPE  C31220337   0.846   6.736   9.260 -0.1314  0.1774 -0.4619
  178SOPE  H12X20338   0.910   6.665   9.203  0.2387  1.1011 -1.2215
  178SOPE  H12Y20339   0.887   6.833   9.226  1.4968 -0.0590  0.7136
  178SOPE  C31320340   0.692   6.728   9.232 -0.7029  0.4998  0.4536
  178SOPE  H13X20341   0.642   6.824   9.256  0.3524  1.1497  0.1229
  178SOPE  H13Y20342   0.642   6.638   9.275  1.8311 -2.0394 -1.4830
  178SOPE  C31420343   0.683   6.696   9.087  0.1441  0.3406  0.6745
  178SOPE  H14X20344   0.739   6.603   9.063 -0.7246  0.2608 -1.2314
  178SOPE  H14Y20345   0.736   6.772   9.026  3.0690 -2.5814 -0.7048
  178SOPE  C31520346   0.532   6.676   9.041  0.1012 -0.4659 -0.2113
  178SOPE  H15X20347   0.489   6.778   9.048  1.0546 -0.1505  2.0190
  178SOPE  H15Y20348   0.482   6.607   9.113 -0.1034 -0.3271 -0.2186
  178SOPE  C31620349   0.505   6.617   8.903 -0.2836  0.1848  0.5567
  178SOPE  H16X20350   0.403   6.646   8.871 -0.3272 -0.3473  0.2055
  178SOPE  H16Y20351   0.508   6.506   8.910 -2.3073 -0.1043 -1.7846
  178SOPE  C31720352   0.606   6.669   8.795 -0.6384 -0.3561 -0.0971
  178SOPE  H17X20353   0.710   6.632   8.810 -1.3973 -1.7874  2.3230
  178SOPE  H17Y20354   0.613   6.779   8.785 -0.5477 -0.2162  1.2582
  178SOPE  C31820355   0.569   6.610   8.656 -0.3902  0.2264  0.0418
  178SOPE  H18X20356   0.573   6.690   8.578  1.0593  0.4493  0.3178
  178SOPE  H18Y20357   0.461   6.586   8.671 -0.5210  0.7991  0.0648
  178SOPE  H18Z20358   0.611   6.513   8.622 -0.0251  0.5344 -0.3962
  179SOPE     N20359   0.046   2.289   6.623 -1.1701 -0.3314  0.1113
  179SOPE   HN120360  -0.023   2.324   6.554 -1.3415  0.9228  0.8971
  179SOPE   HN220361   0.019   2.200   6.671 -2.1164 -0.0364  0.1406
  179SOPE   HN320362   0.051   2.368   6.690 -1.3941  0.1631 -0.4445
  179SOPE   C1220363   0.181   2.266   6.559  0.5802  0.2912 -0.6865
  179SOPE  H12A20364   0.210   2.352   6.495  2.9598  0.0468 -0.0436
  179SOPE  H12B20365   0.161   2.176   6.497  1.8834  0.8428 -1.9646
  179SOPE   C1120366   0.286   2.229   6.665  0.4008 -0.2035 -0.0450
  179SOPE  H11A20367   0.253   2.139   6.721 -1.0402  0.6294  0.4854
  179SOPE  H11B20368   0.291   2.309   6.741 -1.4098  0.8364 -0.9564
  179SOPE     P20369   0.546   2.236   6.693  0.2918  0.1514  0.1790
  179SOPE   O1320370   0.554   2.382   6.710 -0.3227  0.8462  0.4620
  179SOPE   O1420371   0.658   2.164   6.625  0.3394  0.3499 -0.4206
  179SOPE   O1220372   0.416   2.209   6.605 -0.0435  0.5635  0.6049
  179SOPE   O1120373   0.520   2.167   6.829 -0.4251  0.3193 -0.1654
  179SOPE    C120374   0.483   2.231   6.947 -0.3915 -0.4492 -0.7964
  179SOPE    HA20375   0.397   2.171   6.984  0.1789 -1.2273 -0.7201
  179SOPE    HB20376   0.449   2.335   6.924  1.1541  0.2755  0.0599
  179SOPE    C220377   0.587   2.244   7.063  0.9540 -0.1148 -0.0570
  179SOPE    HS20378   0.556   2.300   7.153 -0.3092 -0.6653 -0.1258
  179SOPE   O2120379   0.702   2.318   7.011 -0.3075 -0.0662  0.4161
  179SOPE   C2120380   0.676   2.448   6.991  0.6870  0.2500 -0.3860
  179SOPE   O2220381   0.570   2.501   7.027 -0.1422  0.1477  0.2764
  179SOPE   C2220382   0.784   2.517   6.913 -0.1044  0.1777  0.2173
  179SOPE   H2R20383   0.720   2.568   6.837 -0.3559 -0.5538 -0.0718
  179SOPE   H2S20384   0.846   2.437   6.868 -0.6263  0.2415 -0.6593
  179SOPE    C320385   0.632   2.110   7.117  0.1132 -0.2935 -0.1588
  179SOPE    HX20386   0.704   2.068   7.044 -0.4550 -0.1472 -0.8128
  179SOPE    HY20387   0.542   2.048   7.135 -1.3824  1.6946 -0.4013
  179SOPE   O3120388   0.689   2.126   7.247  0.1380  0.0457 -0.0371
  179SOPE   C3120389   0.819   2.129   7.258  0.6925  0.0919  0.3636
  179SOPE   O3220390   0.900   2.125   7.164  0.5453 -0.0341  0.0814
  179SOPE   C3220391   0.847   2.145   7.406 -0.1043  0.0156 -0.2117
  179SOPE   H2X20392   0.842   2.041   7.444  0.0162 -0.6116 -1.8491
  179SOPE   H2Y20393   0.766   2.204   7.454  0.1589  0.7559 -0.6660
  179SOPE   C2320394   0.879   2.620   6.987 -0.2663  0.3468 -0.0176
  179SOPE   H3R20395   0.818   2.709   7.014  0.4410  1.1440 -1.0267
  179SOPE   H3S20396   0.959   2.647   6.915  1.6418 -2.7359  0.7484
  179SOPE   C2420397   0.937   2.566   7.121  0.2450 -0.3094 -0.1993
  179SOPE   H4R20398   0.951   2.456   7.108 -0.6117 -0.6041  1.1101
  179SOPE   H4S20399   1.031   2.620   7.146 -0.7265  0.4611  1.9910
  179SOPE   C2520400   0.842   2.604   7.237  0.3776  0.4365 -0.4047
  179SOPE   H5R20401   0.863   2.709   7.263  3.5592 -0.0668 -0.5403
  179SOPE   H5S20402   0.734   2.593   7.216  0.4956 -1.5757 -0.1657
  179SOPE   C2620403   0.893   2.525   7.362  0.6017 -0.2149 -0.2476
  179SOPE   H6R20404   0.883   2.418   7.336  1.8894 -0.4275  0.0636
  179SOPE   H6S20405   1.003   2.540   7.370  0.8107 -2.1624  1.3706
  179SOPE   C2720406   0.828   2.567   7.500 -0.0361  0.0067  0.3485
  179SOPE   H7R20407   0.720   2.573   7.477 -0.3162  1.9231  1.8547
  179SOPE   H7S20408   0.852   2.488   7.574 -0.7789 -0.9887 -0.4538
  179SOPE   C2820409   0.877   2.698   7.551  0.1163 -0.2096  0.1687
  179SOPE   H8R20410   0.987   2.683   7.561 -0.2251 -3.1423  0.2497
  179SOPE   H8S20411   0.855   2.772   7.471 -2.1163 -0.8844  0.1099
  179SOPE   C2920412   0.815   2.739   7.683  0.3451 -0.2754  0.5353
  179SOPE   H9120413   0.711   2.711   7.706  0.3694  0.6709  1.8816
  179SOPE  C21020414   0.882   2.791   7.790 -0.1179 -0.0780 -0.2637
  179SOPE  H10120415   0.823   2.829   7.876 -0.7631 -1.4072 -0.1007
  179SOPE  C21120416   1.022   2.829   7.797 -0.2119 -0.0420 -0.1631
  179SOPE  H11R20417   1.083   2.803   7.707  0.4464  0.0472  0.2509
  179SOPE  H11S20418   1.070   2.790   7.889 -1.0162  1.4152  0.8926
  179SOPE  C21220419   1.042   2.984   7.816 -0.2031  0.3165  0.1568
  179SOPE  H12R20420   0.980   3.033   7.738 -0.6308 -0.0462  0.2676
  179SOPE  H12S20421   1.146   3.023   7.801 -0.0760 -0.6684 -1.9227
  179SOPE  C21320422   0.994   3.044   7.955 -0.1453  0.1272 -0.1610
  179SOPE  H13R20423   1.073   3.006   8.023  0.5226 -2.1118 -2.0459
  179SOPE  H13S20424   0.900   3.000   7.993  0.5537 -1.0757  0.2133
  179SOPE  C21420425   0.976   3.196   7.949 -0.0450  0.0970 -0.4344
  179SOPE  H14R20426   0.940   3.220   8.051 -1.4786 -1.0917 -0.6208
  179SOPE  H14S20427   0.897   3.205   7.871  0.6222  1.1743 -1.0107
  179SOPE  C21520428   1.084   3.277   7.881 -0.7406 -0.1365  0.1541
  179SOPE  H15R20429   1.098   3.251   7.774  2.0220 -0.1688  0.4498
  179SOPE  H15S20430   1.185   3.251   7.920  0.9597 -1.7265 -4.5953
  179SOPE  C21620431   1.048   3.423   7.883 -0.0195  0.1559 -0.0863
  179SOPE  H16R20432   1.045   3.464   7.986 -3.8611  1.3354 -0.4953
  179SOPE  H16S20433   0.944   3.429   7.845 -1.5041  0.9696  3.6838
  179SOPE  C21720434   1.130   3.523   7.794  0.0053  0.5918 -0.9132
  179SOPE  H17R20435   1.100   3.629   7.803  1.3811  0.9745 -0.7402
  179SOPE  H17S20436   1.100   3.500   7.689  0.2142 -1.1739 -0.6156
  179SOPE  C21820437   1.281   3.504   7.822  0.6108 -0.5818  0.0602
  179SOPE  H18R20438   1.314   3.525   7.926  1.4008  0.9597 -0.4711
  179SOPE  H18S20439   1.341   3.583   7.771 -2.1585  3.2802  2.2025
  179SOPE  H18T20440   1.310   3.406   7.780  0.5737 -1.0782  1.1789
  179SOPE   C3320441   0.989   2.180   7.435 -0.3033 -0.5378 -0.2244
  179SOPE   H3X20442   1.020   2.266   7.371  1.4248 -0.9347  0.0230
  179SOPE   H3Y20443   1.054   2.097   7.398  0.5408  0.4903 -1.1484
  179SOPE   C3420444   1.028   2.204   7.579  0.5515 -0.2621  0.4841
  179SOPE   H4X20445   0.978   2.292   7.624 -2.0013 -1.5471  0.3746
  179SOPE   H4Y20446   1.136   2.230   7.581  1.0194 -1.8382 -1.4987
  179SOPE   C3520447   0.997   2.080   7.669 -0.0325 -0.3886  0.2627
  179SOPE   H5X20448   1.053   1.994   7.627 -1.5050 -0.8863 -0.7553
  179SOPE   H5Y20449   0.889   2.059   7.656  0.0805  0.0427 -1.6926
  179SOPE   C3620450   1.035   2.090   7.818  0.2659 -0.4262  0.1801
  179SOPE   H6X20451   0.978   2.015   7.876  0.3173 -0.2411  0.4719
  179SOPE   H6Y20452   0.997   2.185   7.862 -1.2951 -0.3566 -1.2389
  179SOPE   C3720453   1.184   2.068   7.854 -0.3245 -0.0771 -0.4263
  179SOPE   H7X20454   1.247   2.157   7.834  0.3804 -0.0588  1.6186
  179SOPE   H7Y20455   1.223   1.985   7.792  0.2953 -0.6064  0.6474
  179SOPE   C3820456   1.203   2.028   7.999  1.1855 -0.3240 -0.2545
  179SOPE   H8X20457   1.143   1.942   8.034  2.5754 -0.9832  0.5774
  179SOPE   H8Y20458   1.167   2.116   8.057 -1.0342 -1.4309  0.1531
  179SOPE   C3920459   1.349   1.998   8.036 -0.2407 -0.3216 -0.3039
  179SOPE   H9X20460   1.404   2.093   8.022 -1.0219  0.1869  0.0072
  179SOPE   H9Y20461   1.394   1.911   7.985  0.0278 -1.1172  1.2264
  179SOPE  C31020462   1.366   1.966   8.184  0.1983 -0.9078  0.1436
  179SOPE  H10X20463   1.320   1.865   8.199  0.3764 -0.9806  0.1977
  179SOPE  H10Y20464   1.314   2.044   8.244 -1.2718 -0.9643 -0.9777
  179SOPE  C31120465   1.515   1.966   8.224  0.3210 -0.6805 -0.4253
  179SOPE  H11X20466   1.559   2.066   8.206 -1.3531 -0.2916 -2.8221
  179SOPE  H11Y20467   1.575   1.889   8.170 -0.9946 -1.3321 -1.0041
  179SOPE  C31220468   1.527   1.928   8.370 -0.3092  0.4608  0.6309
  179SOPE  H12X20469   1.459   1.840   8.375  0.8955 -0.4470  1.9420
  179SOPE  H12Y20470   1.481   2.000   8.441  0.3686  0.2840  1.2652
  179SOPE  C31320471   1.670   1.891   8.415  0.4323 -0.0976  0.7383
  179SOPE  H13X20472   1.665   1.817   8.498 -3.4899  0.3334  1.0984
  179SOPE  H13Y20473   1.697   1.996   8.442  0.4016  0.9696 -2.8899
  179SOPE  C31420474   1.777   1.836   8.321  0.1603 -1.4329  0.3368
  179SOPE  H14X20475   1.785   1.903   8.232  1.2781 -0.9437  0.7895
  179SOPE  H14Y20476   1.757   1.733   8.284 -4.5520 -0.8336  0.6505
  179SOPE  C31520477   1.919   1.831   8.372  0.1765  0.4051  0.2389
  179SOPE  H15X20478   1.982   1.772   8.302 -0.3597 -3.2174  2.5072
  179SOPE  H15Y20479   1.915   1.787   8.474  0.2320  1.5954  0.7624
  179SOPE  C31620480   1.989   1.967   8.371  0.6560  0.0121 -0.2119
  179SOPE  H16X20481   1.931   2.043   8.427 -2.5197 -1.9882 -0.5229
  179SOPE  H16Y20482   1.987   1.998   8.264 -2.7805  1.6135  0.1635
  179SOPE  C31720483   2.122   1.964   8.439 -0.3023  0.1150  0.4925
  179SOPE  H17X20484   2.118   1.918   8.540  0.4833  0.2849  0.6029
  179SOPE  H17Y20485   2.174   2.061   8.430  1.4710 -0.6834  1.6352
  179SOPE  C31820486   2.228   1.875   8.362 -0.3331 -0.3845 -0.7395
  179SOPE  H18X20487   2.330   1.903   8.395 -0.8857  0.3088  0.4480
  179SOPE  H18Y20488   2.227   1.908   8.256  0.6771  2.9044  0.1485
  179SOPE  H18Z20489   2.211   1.767   8.381 -1.7507 -0.0760 -0.0917
  180SOPE     N20490   6.738   1.551   6.481 -0.3115 -0.3448 -0.4108
  180SOPE   HN120491   6.727   1.545   6.584 -1.0752 -1.5693 -0.5484
  180SOPE   HN220492   6.818   1.489   6.457 -1.2010 -2.4054  1.5678
  180SOPE   HN320493   6.755   1.652   6.460  0.0471  0.0113  1.4278
  180SOPE   C1220494   6.616   1.514   6.405  0.1804 -1.0706 -0.2576
  180SOPE  H12A20495   6.574   1.430   6.465  1.8441  0.1474  2.8445
  180SOPE  H12B20496   6.637   1.475   6.304  0.2812  1.9563 -1.5064
  180SOPE   C1120497   6.508   1.628   6.381  0.4893 -0.2047  0.1116
  180SOPE  H11A20498   6.556   1.693   6.304 -0.5500  1.7316  1.0286
  180SOPE  H11B20499   6.498   1.690   6.472 -0.3287 -1.8589  1.2101
  180SOPE     P20500   6.262   1.674   6.359 -0.3183 -0.1723 -0.7538
  180SOPE   O1320501   6.137   1.615   6.310  0.1285 -0.2181  0.0388
  180SOPE   O1420502   6.291   1.815   6.328 -0.0438  0.3206 -0.4453
  180SOPE   O1220503   6.387   1.581   6.332  0.0775  0.8974  0.3857
  180SOPE   O1120504   6.250   1.659   6.518 -0.9248 -0.5136 -0.3179
  180SOPE    C120505   6.260   1.523   6.578 -0.2561 -0.3194  0.7545
  180SOPE    HA20506   6.351   1.521   6.642  1.8394  0.9115 -1.9918
  180SOPE    HB20507   6.274   1.448   6.497  0.1471  1.1687 -0.6106
  180SOPE    C220508   6.133   1.491   6.654  0.5531  0.6173  0.0702
  180SOPE    HS20509   6.057   1.473   6.574 -0.0921  0.2158  0.7586
  180SOPE   O2120510   6.107   1.597   6.750  0.0235  0.0255  0.0119
  180SOPE   C2120511   6.006   1.671   6.713 -0.2560  0.8872  0.0680
  180SOPE   O2220512   5.935   1.651   6.617 -0.2600  0.0395 -0.3896
  180SOPE   C2220513   5.983   1.786   6.808 -0.1075  0.4216 -0.3198
  180SOPE   H2R20514   5.878   1.822   6.807 -0.5858 -0.6509  2.1636
  180SOPE   H2S20515   6.046   1.867   6.765  1.2295  0.9533  2.3638
  180SOPE    C320516   6.162   1.349   6.713  0.1118  0.2996 -0.5385
  180SOPE    HX20517   6.271   1.325   6.716  0.3706  1.4855  0.4279
  180SOPE    HY20518   6.114   1.278   6.642 -0.5573  0.5090 -0.3037
  180SOPE   O3120519   6.107   1.328   6.846 -0.6202  0.0962  0.1366
  180SOPE   C3120520   6.183   1.384   6.940  0.1534 -0.0466  0.4282
  180SOPE   O3220521   6.281   1.452   6.926  0.0777  0.4615 -0.0336
  180SOPE   C3220522   6.127   1.352   7.078 -0.7178 -0.5363  0.5468
  180SOPE   H2X20523   6.211   1.304   7.133 -1.1611  1.4271  3.0984
  180SOPE   H2Y20524   6.039   1.284   7.072 -1.7006  0.6558  1.0606
  180SOPE   C2320525   6.056   1.773   6.953 -1.1516 -0.8028  0.0080
  180SOPE   H3R20526   6.153   1.721   6.937 -0.8340 -0.3492  0.4031
  180SOPE   H3S20527   5.996   1.712   7.024  1.9713 -1.7473  2.0564
  180SOPE   C2420528   6.096   1.911   7.016  0.1205 -0.1311  0.3474
  180SOPE   H4R20529   6.162   1.971   6.950 -0.6905  1.5187  0.9855
  180SOPE   H4S20530   5.998   1.961   7.025 -0.0323  0.0237 -1.8098
  180SOPE   C2520531   6.168   1.901   7.152 -0.0656 -0.4825  0.0243
  180SOPE   H5R20532   6.152   1.803   7.203  0.8344 -0.4684  0.3519
  180SOPE   H5S20533   6.266   1.891   7.101 -0.2305  0.3742 -0.4819
  180SOPE   C2620534   6.173   2.022   7.246  0.0818  0.1735  0.0230
  180SOPE   H6R20535   6.263   2.013   7.310  1.0060  1.4570 -1.0379
  180SOPE   H6S20536   6.188   2.115   7.187  0.5884  0.2201  0.2190
  180SOPE   C2720537   6.044   2.030   7.330 -0.7394  0.4862  0.7391
  180SOPE   H7R20538   6.037   2.120   7.395  1.2032  0.3686  1.1705
  180SOPE   H7S20539   5.964   2.022   7.253  0.2667  1.7997 -0.5025
  180SOPE   C2820540   6.021   1.918   7.432  0.4876 -0.8777  0.1548
  180SOPE   H8R20541   5.922   1.939   7.477  1.1068  0.5274  0.9306
  180SOPE   H8S20542   6.011   1.830   7.364  2.0166  0.8126 -2.4351
  180SOPE   C2920543   6.127   1.895   7.536 -0.3287  0.3468  0.3557
  180SOPE   H9120544   6.232   1.889   7.505 -0.0197 -0.5011  1.5069
  180SOPE  C21020545   6.115   1.881   7.666 -0.4005  1.1830  0.3625
  180SOPE  H10120546   6.207   1.852   7.718  1.1356  0.9619 -2.3082
  180SOPE  C21120547   5.983   1.875   7.739 -0.0159  0.4657 -0.3951
  180SOPE  H11R20548   5.945   1.771   7.747  3.1578 -0.7764 -0.0037
  180SOPE  H11S20549   5.903   1.927   7.683  0.0607  0.3221 -0.6418
  180SOPE  C21220550   6.000   1.946   7.876 -0.0927 -0.1058 -0.1026
  180SOPE  H12R20551   6.007   2.055   7.855  0.5263 -0.5575 -2.5576
  180SOPE  H12S20552   6.092   1.912   7.930  0.5423 -0.0047 -1.0938
  180SOPE  C21320553   5.890   1.926   7.981  0.4512 -0.6585  0.1492
  180SOPE  H13R20554   5.789   1.928   7.934  0.5209 -0.7028 -0.0044
  180SOPE  H13S20555   5.896   2.014   8.049 -0.0789 -0.9631  0.5946
  180SOPE  C21420556   5.907   1.791   8.061  0.5970 -0.0938 -0.2574
  180SOPE  H14R20557   6.015   1.780   8.087  0.5316 -2.4096 -0.7513
  180SOPE  H14S20558   5.897   1.708   7.988  1.5357  0.4829 -1.0760
  180SOPE  C21520559   5.819   1.791   8.182 -0.0259  0.1650  0.5687
  180SOPE  H15R20560   5.819   1.689   8.227  1.5923 -0.6103 -1.1049
  180SOPE  H15S20561   5.711   1.803   8.156 -0.3019 -1.1294  1.0014
  180SOPE  C21620562   5.860   1.888   8.297  0.6757 -0.0174  1.1032
  180SOPE  H16R20563   5.902   1.987   8.272 -0.1479  0.3869  1.3053
  180SOPE  H16S20564   5.944   1.838   8.351  1.4151  1.9629  1.8610
  180SOPE  C21720565   5.736   1.899   8.383 -0.0599 -0.1041 -0.3612
  180SOPE  H17R20566   5.680   1.805   8.402 -1.4670  0.3310 -2.0525
  180SOPE  H17S20567   5.659   1.957   8.327 -0.9646 -0.5087  0.4367
  180SOPE  C21820568   5.753   1.973   8.517 -0.0738 -0.2400 -0.2835
  180SOPE  H18R20569   5.798   2.073   8.502 -0.3036 -0.2174 -0.8403
  180SOPE  H18S20570   5.811   1.911   8.589  1.4786  1.7849  0.2743
  180SOPE  H18T20571   5.651   1.996   8.555 -0.9293 -2.8458 -0.7324
  180SOPE   C3320572   6.087   1.484   7.155 -0.3383  0.6319  0.5470
  180SOPE   H3X20573   6.006   1.538   7.100  1.2280  1.1036 -1.3854
  180SOPE   H3Y20574   6.174   1.553   7.152  1.2818 -1.1838  2.5028
  180SOPE   C3420575   6.052   1.460   7.301  0.3030  0.2494  0.7938
  180SOPE   H4X20576   6.005   1.360   7.319  1.6598 -1.1298 -2.4033
  180SOPE   H4Y20577   5.982   1.539   7.335 -0.1836  0.7950 -1.3048
  180SOPE   C3520578   6.173   1.463   7.404 -0.0686  0.2278 -0.5480
  180SOPE   H5X20579   6.213   1.566   7.400  0.0396  0.1582 -2.7618
  180SOPE   H5Y20580   6.254   1.391   7.379  1.4737  2.0578 -1.0549
  180SOPE   C3620581   6.121   1.445   7.549  0.6973 -0.7024 -0.9817
  180SOPE   H6X20582   6.088   1.339   7.554 -1.5914 -0.1567 -2.7803
  180SOPE   H6Y20583   6.033   1.508   7.572  1.8360  1.2667 -1.7299
  180SOPE   C3720584   6.224   1.468   7.660 -0.1367 -0.8574  0.7371
  180SOPE   H7X20585   6.237   1.579   7.661  1.5293 -1.0338  2.1006
  180SOPE   H7Y20586   6.318   1.424   7.621 -0.1249 -0.0365 -0.2113
  180SOPE   C3820587   6.194   1.403   7.791 -1.1774 -0.3294 -0.2071
  180SOPE   H8X20588   6.182   1.293   7.795 -0.8856 -0.3355  0.8722
  180SOPE   H8Y20589   6.095   1.440   7.825 -2.3444 -1.0273 -2.6350
  180SOPE   C3920590   6.298   1.462   7.890  0.7315 -0.0827 -1.2357
  180SOPE   H9X20591   6.312   1.572   7.883  3.5470 -0.3482 -1.0289
  180SOPE   H9Y20592   6.398   1.424   7.861  0.6926  0.1441 -1.6754
  180SOPE  C31020593   6.277   1.427   8.040  0.4242  0.3144 -0.6226
  180SOPE  H10X20594   6.244   1.322   8.048  0.9258  0.2123  0.3243
  180SOPE  H10Y20595   6.196   1.491   8.082  1.9236  1.9736 -0.1290
  180SOPE  C31120596   6.404   1.436   8.130  0.2701 -0.3184  0.1873
  180SOPE  H11X20597   6.468   1.522   8.101 -0.2178 -0.6703 -2.0793
  180SOPE  H11Y20598   6.455   1.342   8.103 -0.8145 -1.2683  1.3158
  180SOPE  C31220599   6.363   1.426   8.281 -0.9068  0.1169  0.2476
  180SOPE  H12X20600   6.454   1.380   8.326 -1.6444 -2.4886 -0.7075
  180SOPE  H12Y20601   6.278   1.355   8.293 -1.3761  0.6414  0.0800
  180SOPE  C31320602   6.334   1.571   8.336  0.4259  0.2652 -0.3777
  180SOPE  H13X20603   6.257   1.612   8.268 -0.6271 -0.2311  0.4968
  180SOPE  H13Y20604   6.421   1.640   8.327 -1.6254  2.7204 -3.3199
  180SOPE  C31420605   6.269   1.564   8.474 -0.6964 -0.3455 -0.2832
  180SOPE  H14X20606   6.201   1.477   8.478 -0.5666 -0.4270  2.8656
  180SOPE  H14Y20607   6.200   1.649   8.495 -1.8144 -1.2987 -0.0036
  180SOPE  C31520608   6.377   1.556   8.583  0.6876 -0.0218  0.6407
  180SOPE  H15X20609   6.461   1.489   8.551  3.0689  2.6707  0.8290
  180SOPE  H15Y20610   6.313   1.517   8.665  0.9323  0.1905  0.9379
  180SOPE  C31620611   6.416   1.701   8.637  0.1268  0.0085  0.0181
  180SOPE  H16X20612   6.325   1.765   8.648  0.6877  1.2405 -1.9107
  180SOPE  H16Y20613   6.484   1.755   8.567  0.9889 -0.6394  0.3465
  180SOPE  C31720614   6.483   1.705   8.776 -0.0658 -0.0136  0.2649
  180SOPE  H17X20615   6.512   1.810   8.795  0.5045  0.0113 -0.6888
  180SOPE  H17Y20616   6.580   1.651   8.767  0.6554  1.4752 -1.2980
  180SOPE  C31820617   6.396   1.670   8.892  0.0309  0.7421  0.6246
  180SOPE  H18X20618   6.448   1.672   8.990 -1.4898  1.1957  1.4487
  180SOPE  H18Y20619   6.353   1.568   8.888  1.3637  0.1946 -0.6390
  180SOPE  H18Z20620   6.308   1.734   8.914 -0.5569  0.0161  0.4149
  181SOPE     N20621   0.202   6.453   5.771 -0.3800  0.6836 -0.3102
  181SOPE   HN120622   0.173   6.472   5.869 -2.2257 -0.7278 -0.5165
  181SOPE   HN220623   0.296   6.490   5.748  0.2195 -1.6627 -2.0020
  181SOPE   HN320624   0.136   6.504   5.709 -1.2202  2.3100  1.7800
  181SOPE   C1220625   0.205   6.302   5.742 -1.0733 -0.3940 -0.3810
  181SOPE  H12A20626   0.258   6.289   5.645 -0.0290 -0.3263  0.1726
  181SOPE  H12B20627   0.101   6.263   5.737 -0.9467 -0.8855  0.6016
  181SOPE   C1120628   0.273   6.241   5.861 -0.5068  0.4510 -0.5792
  181SOPE  H11A20629   0.271   6.132   5.839 -1.5016  0.5039 -0.7917
  181SOPE  H11B20630   0.219   6.266   5.955 -0.1665 -1.9955  0.3205
  181SOPE     P20631   0.515   6.168   5.941 -0.3903 -0.1666 -0.0590
  181SOPE   O1320632   0.649   6.225   5.968 -0.2332 -0.0498  0.4556
  181SOPE   O1420633   0.505   6.044   5.852 -0.1793 -1.0866  0.7453
  181SOPE   O1220634   0.415   6.281   5.888  0.4494  0.1157  0.3315
  181SOPE   O1120635   0.444   6.132   6.074  0.0415 -0.2544 -0.1588
  181SOPE    C120636   0.437   6.229   6.185 -0.3778  0.7085  0.0994
  181SOPE    HA20637   0.349   6.297   6.179  0.0738  1.3181  0.3219
  181SOPE    HB20638   0.526   6.296   6.190 -0.0155  0.1832  0.9752
  181SOPE    C220639   0.429   6.163   6.328  0.0840 -0.2207 -0.7756
  181SOPE    HS20640   0.459   6.244   6.397  0.1055 -0.8873  0.0186
  181SOPE   O2120641   0.507   6.044   6.351 -0.3073 -0.0879  0.1335
  181SOPE   C2120642   0.641   6.081   6.346 -0.1113 -0.0242  0.5617
  181SOPE   O2220643   0.686   6.184   6.306  0.1595 -0.3373  0.0998
  181SOPE   C2220644   0.725   5.964   6.387 -0.1306 -0.1123 -0.1765
  181SOPE   H2R20645   0.779   5.919   6.300 -2.2088 -2.1548 -0.5156
  181SOPE   H2S20646   0.678   5.874   6.431  1.5172  1.2078  5.0420
  181SOPE    C320647   0.284   6.146   6.364  0.5646 -0.2162  0.2449
  181SOPE    HX20648   0.242   6.069   6.295  2.3861  1.0585 -2.4646
  181SOPE    HY20649   0.229   6.238   6.334 -2.3682 -1.0179  2.6985
  181SOPE   O3120650   0.264   6.119   6.501 -0.2821 -0.2056 -0.0546
  181SOPE   C3120651   0.215   5.999   6.540 -0.5984 -0.2775 -0.0509
  181SOPE   O3220652   0.189   5.903   6.464  0.2578 -0.0364 -0.2790
  181SOPE   C3220653   0.214   5.994   6.686  0.5592  0.2451 -0.0450
  181SOPE   H2X20654   0.161   6.086   6.717  0.4000 -0.0386  0.5346
  181SOPE   H2Y20655   0.316   5.980   6.728  0.4202  2.6515  1.2438
  181SOPE   C2320656   0.837   6.004   6.488  0.1011 -0.0696 -0.7764
  181SOPE   H3R20657   0.909   6.078   6.446 -0.5091  0.6663 -0.5591
  181SOPE   H3S20658   0.896   5.913   6.512 -0.7270 -0.1997  0.9272
  181SOPE   C2420659   0.780   6.062   6.619 -0.2987  0.0009  0.1228
  181SOPE   H4R20660   0.857   6.051   6.698 -1.5907  0.3156  1.4686
  181SOPE   H4S20661   0.755   6.170   6.606 -2.2755 -0.3863  0.2955
  181SOPE   C2520662   0.665   5.975   6.671  0.5926  0.0814 -0.3185
  181SOPE   H5R20663   0.581   6.006   6.604  0.2054  2.4107  1.1398
  181SOPE   H5S20664   0.673   5.865   6.663 -1.6671 -0.1083 -0.6131
  181SOPE   C2620665   0.640   6.010   6.826  0.3167 -0.1858  0.3072
  181SOPE   H6R20666   0.571   5.936   6.872 -1.4464  2.2725  1.8401
  181SOPE   H6S20667   0.732   5.998   6.888  0.5586 -1.4273 -0.2518
  181SOPE   C2720668   0.570   6.141   6.854 -0.4104 -0.7392  0.5806
  181SOPE   H7R20669   0.641   6.220   6.821  0.0989 -0.6742  1.7996
  181SOPE   H7S20670   0.475   6.149   6.796  0.1144  2.2942 -0.0176
  181SOPE   C2820671   0.548   6.172   7.004 -0.3495  0.0824 -0.2537
  181SOPE   H8R20672   0.637   6.176   7.069 -1.1850 -1.5007  1.0613
  181SOPE   H8S20673   0.506   6.274   7.018  1.2097  0.6027  0.9345
  181SOPE   C2920674   0.442   6.085   7.069 -0.4258  0.5872 -0.5538
  181SOPE   H9120675   0.347   6.069   7.016 -0.0282 -0.4506 -0.9740
  181SOPE  C21020676   0.467   6.021   7.190  0.0845  0.0544 -0.3991
  181SOPE  H10120677   0.384   5.966   7.237 -0.6955  1.5495  0.0681
  181SOPE  C21120678   0.595   6.011   7.273 -0.5959  0.0099  0.2508
  181SOPE  H11R20679   0.605   6.101   7.337 -2.0303 -0.0090  0.5199
  181SOPE  H11S20680   0.691   6.006   7.217 -0.2487  0.5362  0.7850
  181SOPE  C21220681   0.587   5.885   7.365  0.3147 -0.3302  0.0263
  181SOPE  H12R20682   0.687   5.890   7.413 -0.0244  1.0655  0.6593
  181SOPE  H12S20683   0.585   5.790   7.309  4.6309 -0.4002 -0.3037
  181SOPE  C21320684   0.489   5.900   7.491 -0.7924  0.2624  0.6804
  181SOPE  H13R20685   0.391   5.945   7.465 -0.3007  0.7118 -0.4695
  181SOPE  H13S20686   0.533   5.972   7.562  1.5870  0.2517 -0.6810
  181SOPE  C21420687   0.472   5.764   7.555  0.1003 -0.6668 -0.0183
  181SOPE  H14R20688   0.574   5.726   7.581  0.1245 -2.2909 -2.1678
  181SOPE  H14S20689   0.429   5.691   7.483  0.3091 -0.6748 -0.1356
  181SOPE  C21520690   0.400   5.771   7.691 -0.1257 -0.0471  0.9456
  181SOPE  H15R20691   0.290   5.771   7.672  0.3849 -1.3289 -2.8513
  181SOPE  H15S20692   0.413   5.873   7.733 -0.7835  1.4768 -2.2507
  181SOPE  C21620693   0.445   5.663   7.787  0.1403 -0.0798 -0.9098
  181SOPE  H16R20694   0.556   5.671   7.787  0.0548  1.4640 -1.4589
  181SOPE  H16S20695   0.423   5.563   7.744 -0.5202  0.9883 -3.1800
  181SOPE  C21720696   0.391   5.686   7.934 -0.0262 -0.9246  0.0923
  181SOPE  H17R20697   0.280   5.685   7.928 -0.0342 -0.2096 -0.0563
  181SOPE  H17S20698   0.420   5.790   7.960  0.1591 -0.7057 -0.9712
  181SOPE  C21820699   0.446   5.588   8.031  0.3951 -0.1821 -0.9632
  181SOPE  H18R20700   0.420   5.484   8.004 -0.2403  0.0208 -1.1549
  181SOPE  H18S20701   0.393   5.611   8.126 -1.2130 -0.3557 -1.7838
  181SOPE  H18T20702   0.556   5.595   8.046  0.3102 -0.8268  0.1056
  181SOPE   C3320703   0.122   5.883   6.741  0.6053  0.2037 -0.3598
  181SOPE   H3X20704   0.161   5.782   6.716 -1.8640 -0.7364 -0.6961
  181SOPE   H3Y20705   0.023   5.896   6.692  0.3919 -1.8558 -0.5645
  181SOPE   C3420706   0.106   5.886   6.895 -0.1422  0.4562 -0.2208
  181SOPE   H4X20707   0.086   5.987   6.938  0.7065  0.1824  0.8660
  181SOPE   H4Y20708   0.208   5.860   6.931 -1.2596 -2.6543  1.0106
  181SOPE   C3520709  -0.008   5.801   6.955  0.0082  0.1409  0.5477
  181SOPE   H5X20710   0.034   5.699   6.967 -1.2414 -0.2084  2.3380
  181SOPE   H5Y20711  -0.099   5.805   6.892  0.0943 -1.6162  0.2605
  181SOPE   C3620712  -0.052   5.840   7.100  0.6483 -0.0497 -0.3708
  181SOPE   H6X20713  -0.137   5.777   7.135  1.9040 -0.9020  1.3130
  181SOPE   H6Y20714  -0.087   5.945   7.093 -0.9422 -0.5538 -0.4477
  181SOPE   C3720715   0.066   5.846   7.204 -0.0221 -0.1190 -0.6522
  181SOPE   H7X20716   0.060   5.938   7.266  1.2005 -1.9802  2.5182
  181SOPE   H7Y20717   0.155   5.871   7.143 -1.1749  1.2011 -1.8598
  181SOPE   C3820718   0.104   5.736   7.307  0.2639 -0.7395 -0.1694
  181SOPE   H8X20719   0.201   5.773   7.346 -0.1148  2.0046 -1.5780
  181SOPE   H8Y20720   0.120   5.644   7.248  0.0858 -2.6750  2.6392
  181SOPE   C3920721   0.004   5.715   7.416 -0.1481 -0.2506  0.4002
  181SOPE   H9X20722  -0.085   5.678   7.361 -0.6211  1.0988  0.2067
  181SOPE   H9Y20723  -0.018   5.803   7.480 -1.8179  0.4041 -1.0051
  181SOPE  C31020724   0.043   5.608   7.520  0.1815  0.1092 -0.6985
  181SOPE  H10X20725   0.139   5.653   7.553 -0.9481  2.8958 -0.9636
  181SOPE  H10Y20726   0.067   5.510   7.473  1.0234 -1.1973  2.2155
  181SOPE  C31120727  -0.048   5.596   7.639  0.2289  0.0976  0.1468
  181SOPE  H11X20728  -0.152   5.586   7.603  0.7526 -0.9054 -1.1427
  181SOPE  H11Y20729  -0.045   5.691   7.697 -0.3806 -1.0582  2.1488
  181SOPE  C31220730  -0.019   5.484   7.736 -0.0816 -0.1246 -0.1979
  181SOPE  H12X20731   0.061   5.422   7.690  0.8252 -0.4045  1.7030
  181SOPE  H12Y20732  -0.105   5.414   7.741  0.2104 -0.4168  0.8859
  181SOPE  C31320733   0.019   5.535   7.871 -0.2185  0.3034 -0.0956
  181SOPE  H13X20734  -0.037   5.623   7.910 -1.0660  0.9177 -2.5079
  181SOPE  H13Y20735   0.126   5.560   7.857 -0.1051 -1.0220 -1.8988
  181SOPE  C31420736   0.014   5.422   7.976  0.8093 -0.2801  0.0639
  181SOPE  H14X20737   0.066   5.330   7.941 -2.8474 -1.8698 -1.6546
  181SOPE  H14Y20738  -0.091   5.396   8.001 -0.8349  3.9107 -1.4885
  181SOPE  C31520739   0.079   5.468   8.109  0.2871  0.2938 -0.3655
  181SOPE  H15X20740   0.020   5.557   8.141 -0.2338 -0.0177 -0.4366
  181SOPE  H15Y20741   0.186   5.486   8.088  0.6168 -1.8407 -0.7291
  181SOPE  C31620742   0.061   5.383   8.233  0.1773  0.7288 -0.4762
  181SOPE  H16X20743  -0.041   5.343   8.252  0.4524  1.1953  2.3683
  181SOPE  H16Y20744   0.092   5.451   8.315  3.6341  0.8957 -1.7664
  181SOPE  C31720745   0.143   5.257   8.243 -0.2219  0.2257  1.1226
  181SOPE  H17X20746   0.247   5.290   8.224 -0.8691  1.7694 -0.0846
  181SOPE  H17Y20747   0.128   5.181   8.164  1.4742 -0.2079  1.1963
  181SOPE  C31820748   0.131   5.188   8.379  0.5589 -0.2539 -0.0719
  181SOPE  H18X20749   0.030   5.154   8.409  0.6429 -0.3235  0.1342
  181SOPE  H18Y20750   0.157   5.271   8.447  0.0428  0.2543 -0.4876
  181SOPE  H18Z20751   0.194   5.097   8.392  1.1640  0.3981  1.8254
  182SOPE     N20752   2.049   1.856   6.272 -0.6548 -0.5840 -1.2737
  182SOPE   HN120753   2.145   1.882   6.243  1.1912 -2.4909  2.4699
  182SOPE   HN220754   2.007   1.787   6.206 -0.9973 -0.6912 -0.9469
  182SOPE   HN320755   2.000   1.948   6.277  0.8097  0.2219 -1.3871
  182SOPE   C1220756   2.063   1.807   6.416  0.5621  0.0865  0.3819
  182SOPE  H12A20757   2.171   1.785   6.429  0.6625  0.8747  0.9707
  182SOPE  H12B20758   2.024   1.704   6.431 -0.3629  0.6960  2.7417
  182SOPE   C1120759   2.009   1.911   6.519 -0.0403 -0.5102 -0.2549
  182SOPE  H11A20760   2.044   1.866   6.614  0.7867 -0.4427 -0.5274
  182SOPE  H11B20761   1.899   1.919   6.532  0.1331  0.7770  0.5528
  182SOPE     P20762   1.982   2.152   6.438  0.4294  0.0750  0.0190
  182SOPE   O1320763   1.941   2.110   6.299  0.8660 -0.5837 -0.0070
  182SOPE   O1420764   2.056   2.283   6.447  0.2605 -0.7443  0.1650
  182SOPE   O1220765   2.068   2.039   6.501  0.3921  0.3302 -0.6735
  182SOPE   O1120766   1.854   2.161   6.523 -0.3938 -0.3670  0.1924
  182SOPE    C120767   1.834   2.264   6.618 -0.4315 -0.1127 -0.4463
  182SOPE    HA20768   1.730   2.263   6.655  0.4663  1.1323  2.3350
  182SOPE    HB20769   1.860   2.361   6.571  0.2609 -0.4207 -0.7184
  182SOPE    C220770   1.913   2.253   6.752  0.4776  0.6191  0.2656
  182SOPE    HS20771   2.007   2.308   6.734  0.3778  0.3575 -1.2135
  182SOPE   O2120772   1.927   2.111   6.795  0.2734 -0.0321  0.3595
  182SOPE   C2120773   2.024   2.098   6.879 -0.5646  0.5540 -0.2784
  182SOPE   O2220774   2.117   2.183   6.897 -0.1699 -0.0415  0.2903
  182SOPE   C2220775   2.032   1.959   6.948  0.2802 -0.4608 -0.5324
  182SOPE   H2R20776   2.090   1.891   6.883 -0.0240  0.1130 -1.4393
  182SOPE   H2S20777   1.930   1.914   6.947  0.2304 -0.4935 -3.7791
  182SOPE    C320778   1.829   2.326   6.863  0.4423 -0.7233 -0.5133
  182SOPE    HX20779   1.736   2.269   6.881 -0.9524  1.4501 -0.4479
  182SOPE    HY20780   1.795   2.425   6.826  0.9893 -0.0052  0.8632
  182SOPE   O3120781   1.902   2.337   6.985  0.1756 -0.0513  0.0454
  182SOPE   C3120782   1.987   2.441   6.990 -0.5458 -0.7692 -0.4026
  182SOPE   O3220783   2.004   2.523   6.897 -0.1963  0.4020  0.2331
  182SOPE   C3220784   2.028   2.457   7.137  0.3815 -0.1894  1.0232
  182SOPE   H2X20785   1.950   2.514   7.191 -0.1736 -1.8255  2.0227
  182SOPE   H2Y20786   2.116   2.525   7.132 -0.5112  0.9882  0.8944
  182SOPE   C2320787   2.103   1.972   7.086 -0.1962  0.4911  0.1569
  182SOPE   H3R20788   2.057   2.056   7.142  1.0561  1.4170 -0.1523
  182SOPE   H3S20789   2.213   1.987   7.076 -0.0496  0.1516  1.1086
  182SOPE   C2420790   2.090   1.846   7.174  0.1205  0.2872 -0.0110
  182SOPE   H4R20791   1.997   1.791   7.148  0.4728  0.7328 -2.5601
  182SOPE   H4S20792   2.172   1.774   7.157 -1.3494 -1.5627  0.4604
  182SOPE   C2520793   2.104   1.875   7.324  0.3437  0.0141 -0.5610
  182SOPE   H5R20794   2.200   1.929   7.333  1.6781 -2.4528  1.3227
  182SOPE   H5S20795   2.021   1.938   7.362  3.4151  2.3973  2.9258
  182SOPE   C2620796   2.109   1.748   7.408  0.2309 -0.0112  0.1899
  182SOPE   H6R20797   2.013   1.691   7.411  1.0340 -1.4574 -0.3741
  182SOPE   H6S20798   2.191   1.680   7.377 -1.3073 -2.0369  0.2860
  182SOPE   C2720799   2.149   1.788   7.548 -0.1482 -0.0603  0.3566
  182SOPE   H7R20800   2.246   1.841   7.537 -1.4002  2.3584  0.3235
  182SOPE   H7S20801   2.078   1.856   7.600 -3.3482 -2.8146 -0.0928
  182SOPE   C2820802   2.164   1.669   7.650 -0.0101 -0.3776  1.0538
  182SOPE   H8R20803   2.242   1.606   7.603  0.3074  1.0009 -0.3876
  182SOPE   H8S20804   2.208   1.718   7.740  2.4743  0.7101 -0.6174
  182SOPE   C2920805   2.034   1.595   7.678  0.2588 -0.4115 -0.3009
  182SOPE   H9120806   2.006   1.510   7.615 -1.4087 -1.2283  1.4371
  182SOPE  C21020807   1.951   1.618   7.780  0.6592  0.2412  0.3101
  182SOPE  H10120808   1.866   1.548   7.784 -0.8506  1.9560  0.0990
  182SOPE  C21120809   1.960   1.719   7.890  0.5326 -0.2918 -0.0362
  182SOPE  H11R20810   1.861   1.717   7.941  0.0630 -0.4448 -0.9472
  182SOPE  H11S20811   1.973   1.823   7.854 -1.4687  0.1379  0.3164
  182SOPE  C21220812   2.074   1.683   7.997 -0.0104 -0.0889  0.3139
  182SOPE  H12R20813   2.068   1.762   8.075 -1.4136  0.9215 -0.7636
  182SOPE  H12S20814   2.173   1.688   7.948 -0.3957  2.1132 -0.3406
  182SOPE  C21320815   2.065   1.552   8.069 -0.6964  0.1694 -0.4923
  182SOPE  H13R20816   2.136   1.557   8.154  0.6709 -1.5244 -1.4603
  182SOPE  H13S20817   2.099   1.471   8.001  3.4028  2.2901 -1.2551
  182SOPE  C21420818   1.923   1.520   8.123  0.0546  0.5790 -0.1871
  182SOPE  H14R20819   1.848   1.521   8.041  0.7269  2.2684 -0.8281
  182SOPE  H14S20820   1.890   1.605   8.187 -2.9084 -0.1749 -0.5558
  182SOPE  C21520821   1.903   1.391   8.202  0.6879 -0.7214  0.1038
  182SOPE  H15R20822   1.991   1.362   8.264  1.1643  0.0546 -0.2052
  182SOPE  H15S20823   1.890   1.308   8.129 -1.6776 -1.2867  1.0577
  182SOPE  C21620824   1.777   1.404   8.288  0.2424 -0.1244  0.6872
  182SOPE  H16R20825   1.696   1.451   8.229 -0.3557 -0.5399  1.1622
  182SOPE  H16S20826   1.797   1.475   8.371  1.6194  0.2700  0.0486
  182SOPE  C21720827   1.753   1.283   8.368  1.0527  0.3367 -0.7458
  182SOPE  H17R20828   1.848   1.262   8.422  0.5315  1.7444  0.8126
  182SOPE  H17S20829   1.738   1.190   8.309  1.2813 -0.0880 -0.1347
  182SOPE  C21820830   1.650   1.305   8.473  0.0068  0.5038 -0.3730
  182SOPE  H18R20831   1.617   1.213   8.526 -0.1809 -1.5568 -3.7149
  182SOPE  H18S20832   1.555   1.340   8.426 -0.0488 -0.7100 -1.2239
  182SOPE  H18T20833   1.683   1.381   8.546 -1.1823  0.3724  0.3289
  182SOPE   C3320834   2.065   2.325   7.212 -0.3532 -0.3580 -0.2594
  182SOPE   H3X20835   2.157   2.280   7.170 -1.0332 -1.2056 -0.8641
  182SOPE   H3Y20836   1.978   2.258   7.194 -0.9218  0.3963 -0.3792
  182SOPE   C3420837   2.066   2.354   7.360 -0.0550  0.1241  0.4831
  182SOPE   H4X20838   1.971   2.396   7.399  0.2226  1.1992  0.0432
  182SOPE   H4Y20839   2.145   2.432   7.357  0.9165 -0.8566 -0.2345
  182SOPE   C3520840   2.087   2.235   7.455  0.0951  0.2008  0.3987
  182SOPE   H5X20841   2.180   2.184   7.423 -0.4065 -0.4606 -0.0363
  182SOPE   H5Y20842   2.011   2.155   7.441  0.5941  0.0508 -1.8425
  182SOPE   C3620843   2.088   2.278   7.601  0.9101  0.4296 -0.4885
  182SOPE   H6X20844   1.982   2.296   7.627  0.6380 -2.1275  0.4231
  182SOPE   H6Y20845   2.144   2.372   7.619 -1.2707  1.3691  1.8540
  182SOPE   C3720846   2.131   2.165   7.692  0.5966  0.5524 -0.3674
  182SOPE   H7X20847   2.124   2.065   7.646  0.2298 -0.1154  1.0928
  182SOPE   H7Y20848   2.069   2.162   7.784  2.3574  1.2457  0.9087
  182SOPE   C3820849   2.276   2.170   7.741  0.2013  0.5072 -0.5505
  182SOPE   H8X20850   2.293   2.272   7.780  2.2571  0.5397 -1.3927
  182SOPE   H8Y20851   2.338   2.160   7.649  2.0466  0.7509  0.5924
  182SOPE   C3920852   2.304   2.056   7.836 -0.5922  0.6601  0.3963
  182SOPE   H9X20853   2.412   2.034   7.848 -1.1733 -2.3903  1.0648
  182SOPE   H9Y20854   2.246   1.967   7.801 -2.0845  2.2606 -1.3949
  182SOPE  C31020855   2.268   2.081   7.982 -0.2001 -0.4368 -0.1960
  182SOPE  H10X20856   2.309   1.997   8.043 -0.2868 -0.3841 -0.0642
  182SOPE  H10Y20857   2.159   2.071   7.997 -0.1998 -2.2592 -1.0072
  182SOPE  C31120858   2.325   2.213   8.044 -0.4380 -0.7466 -0.3771
  182SOPE  H11X20859   2.287   2.296   7.981  0.9140  0.1736 -0.0218
  182SOPE  H11Y20860   2.435   2.212   8.030 -0.4444 -0.0647 -0.4763
  182SOPE  C31220861   2.280   2.233   8.196  0.3605  0.2873  0.2518
  182SOPE  H12X20862   2.314   2.148   8.258  1.8362 -0.8114 -1.9413
  182SOPE  H12Y20863   2.169   2.238   8.192  0.4246  1.1893 -1.0893
  182SOPE  C31320864   2.333   2.369   8.253  0.4497 -0.1910  0.0170
  182SOPE  H13X20865   2.286   2.448   8.189  1.4325  0.5657  0.2118
  182SOPE  H13Y20866   2.443   2.357   8.248  0.5960  1.3209 -2.6710
  182SOPE  C31420867   2.279   2.402   8.391  0.3071  0.0942 -0.1533
  182SOPE  H14X20868   2.335   2.491   8.428  1.0000 -1.2731  2.3028
  182SOPE  H14Y20869   2.312   2.312   8.446 -4.2051 -0.2378  2.5562
  182SOPE  C31520870   2.131   2.419   8.406  0.2375  0.3296  0.2550
  182SOPE  H15X20871   2.084   2.333   8.354  2.2394 -0.1470 -0.8882
  182SOPE  H15Y20872   2.100   2.511   8.352  1.4239  1.9777  2.2277
  182SOPE  C31620873   2.082   2.447   8.548 -0.2486  0.1222 -1.0792
  182SOPE  H16X20874   2.077   2.557   8.561  1.0104 -0.0349  1.1235
  182SOPE  H16Y20875   2.158   2.409   8.619 -2.3998 -0.3287  1.1133
  182SOPE  C31720876   1.940   2.412   8.584  0.1983  0.5745  0.1266
  182SOPE  H17X20877   1.953   2.354   8.678  0.5064  1.2809  0.5263
  182SOPE  H17Y20878   1.898   2.344   8.507  0.7455  1.4392 -0.9523
  182SOPE  C31820879   1.840   2.523   8.607 -0.0860 -0.5562 -0.0043
  182SOPE  H18X20880   1.827   2.589   8.520  1.5507  0.3507  0.3929
  182SOPE  H18Y20881   1.867   2.584   8.696 -2.1729 -0.1994  0.4453
  182SOPE  H18Z20882   1.739   2.490   8.640  0.9988 -1.3303  2.9279
  183SOPE     N20883   2.009   4.919   6.480 -0.4741  0.4271  0.5633
  183SOPE   HN120884   1.921   4.884   6.522 -0.6342  0.9036  0.6307
  183SOPE   HN220885   2.043   4.842   6.419  0.7496  1.9214 -0.7395
  183SOPE   HN320886   2.078   4.954   6.549 -0.6820 -0.9862  1.5162
  183SOPE   C1220887   1.968   5.035   6.392 -0.2755 -0.2592  0.4753
  183SOPE  H12A20888   1.879   5.091   6.426 -0.9165  0.3071 -1.9536
  183SOPE  H12B20889   1.955   4.987   6.293  0.2054  1.4233 -0.4296
  183SOPE   C1120890   2.092   5.128   6.380 -0.3592 -1.0104  0.2904
  183SOPE  H11A20891   2.189   5.075   6.370 -0.1794 -0.4624 -1.0955
  183SOPE  H11B20892   2.115   5.193   6.467  0.5141 -0.1587 -0.5477
  183SOPE     P20893   2.047   5.348   6.242  0.1519 -0.2432 -0.2131
  183SOPE   O1320894   1.909   5.357   6.195  0.0863 -0.2137  0.0709
  183SOPE   O1420895   2.153   5.416   6.165  0.3660 -0.4223  0.4518
  183SOPE   O1220896   2.078   5.197   6.257 -0.0238 -0.2227 -0.1476
  183SOPE   O1120897   2.049   5.402   6.392  0.1586  0.6464  0.4800
  183SOPE    C120898   2.125   5.515   6.438  0.1066  0.4309  0.0621
  183SOPE    HA20899   2.152   5.589   6.360  3.0519  0.5161  1.0446
  183SOPE    HB20900   2.220   5.475   6.478  2.0265  3.2620 -1.3072
  183SOPE    C220901   2.057   5.575   6.554  0.6523 -1.2268 -0.1561
  183SOPE    HS20902   2.117   5.655   6.604 -2.1393  0.5875  0.5259
  183SOPE   O2120903   2.013   5.489   6.650  0.0853  0.5158 -0.1165
  183SOPE   C2120904   2.097   5.416   6.717 -0.5683  0.2257 -0.7694
  183SOPE   O2220905   2.216   5.423   6.712  0.1306  0.0032  0.2415
  183SOPE   C2220906   2.013   5.310   6.796 -0.7141  0.4645 -0.0677
  183SOPE   H2R20907   1.971   5.225   6.738  0.7013 -0.5999  0.3881
  183SOPE   H2S20908   1.924   5.358   6.841 -2.4378 -2.1650 -0.4179
  183SOPE    C320909   1.936   5.662   6.495 -0.0903 -0.0005 -0.0147
  183SOPE    HX20910   1.855   5.597   6.454 -1.1060  0.3705  1.3516
  183SOPE    HY20911   1.978   5.720   6.410  0.5413  0.6696  0.7348
  183SOPE   O3120912   1.890   5.758   6.598  0.6680 -0.0393 -0.1994
  183SOPE   C3120913   1.792   5.714   6.669 -0.0718  0.0240  0.4596
  183SOPE   O3220914   1.734   5.609   6.640  0.2643  0.4635  0.1104
  183SOPE   C3220915   1.765   5.809   6.787 -0.4893 -0.1869  0.2554
  183SOPE   H2X20916   1.736   5.910   6.751 -0.8445 -0.2736  0.2938
  183SOPE   H2Y20917   1.858   5.819   6.847 -1.1015 -2.9223  1.8176
  183SOPE   C2320918   2.093   5.245   6.917 -0.3119  0.1301 -0.2548
  183SOPE   H3R20919   2.193   5.218   6.876  0.2173  1.0175  0.4307
  183SOPE   H3S20920   2.049   5.149   6.952 -1.4026  0.6583 -0.1161
  183SOPE   C2420921   2.104   5.339   7.039  0.0460 -0.2668  0.2041
  183SOPE   H4R20922   2.182   5.311   7.114 -1.0757 -1.3609  0.9975
  183SOPE   H4S20923   2.127   5.434   6.987 -3.1236  0.4866 -0.0064
  183SOPE   C2520924   1.977   5.364   7.127 -0.2754  0.0031  0.1226
  183SOPE   H5R20925   1.901   5.394   7.053 -0.8948  0.4747  0.9410
  183SOPE   H5S20926   1.932   5.275   7.176 -1.2417  0.2972 -0.2163
  183SOPE   C2620927   1.995   5.491   7.218  1.1613  0.1992  0.0290
  183SOPE   H6R20928   2.050   5.568   7.159  1.0466  0.3350  0.0988
  183SOPE   H6S20929   1.889   5.519   7.236  0.4185 -2.2571 -0.1838
  183SOPE   C2720930   2.072   5.465   7.352 -0.6111 -0.8069  0.5065
  183SOPE   H7R20931   2.180   5.445   7.335 -0.3674  1.0824 -0.5134
  183SOPE   H7S20932   2.059   5.552   7.420 -0.6246  0.3670 -0.9273
  183SOPE   C2820933   2.021   5.342   7.429 -0.7128 -0.3486 -0.5373
  183SOPE   H8R20934   2.047   5.245   7.381  2.1315 -1.4065  2.7421
  183SOPE   H8S20935   2.079   5.323   7.522 -1.1503  0.7373 -0.0218
  183SOPE   C2920936   1.884   5.358   7.485  0.0237  0.3280 -0.4801
  183SOPE   H9120937   1.803   5.382   7.414 -1.1243 -0.9217  0.3597
  183SOPE  C21020938   1.852   5.358   7.618 -0.3181 -0.0820 -0.6359
  183SOPE  H10120939   1.748   5.378   7.649  0.4538 -0.7675  2.7370
  183SOPE  C21120940   1.948   5.331   7.730 -0.3397  0.3070 -0.1003
  183SOPE  H11R20941   2.023   5.413   7.728 -2.4084  2.2688 -1.4227
  183SOPE  H11S20942   1.997   5.231   7.724 -2.8773 -1.0431  0.3149
  183SOPE  C21220943   1.870   5.323   7.861  0.6122  0.4811  0.1580
  183SOPE  H12R20944   1.782   5.258   7.844  0.8006  0.8061 -2.4788
  183SOPE  H12S20945   1.831   5.423   7.892 -1.8215 -1.1608  2.8979
  183SOPE  C21320946   1.953   5.263   7.975  0.2217 -0.2953 -0.8785
  183SOPE  H13R20947   2.041   5.332   7.981 -0.0910  0.1773 -1.5421
  183SOPE  H13S20948   1.996   5.161   7.966  0.3011 -0.9981  4.3149
  183SOPE  C21420949   1.868   5.255   8.098 -0.1943 -0.1829  0.4042
  183SOPE  H14R20950   1.798   5.168   8.087 -1.4819  0.8681 -0.0077
  183SOPE  H14S20951   1.798   5.341   8.092  0.2985  0.3432  2.0111
  183SOPE  C21520952   1.938   5.252   8.232  0.3535 -0.1342 -0.8858
  183SOPE  H15R20953   2.007   5.337   8.249  0.2234  0.4370 -2.9151
  183SOPE  H15S20954   2.002   5.163   8.215  0.7259 -0.1142  0.3617
  183SOPE  C21620955   1.833   5.245   8.344  0.4705 -0.0398 -0.0636
  183SOPE  H16R20956   1.738   5.196   8.315 -0.0521  1.2903 -0.7209
  183SOPE  H16S20957   1.807   5.353   8.354 -1.1002 -0.4364  0.4709
  183SOPE  C21720958   1.885   5.187   8.474  0.1523 -0.1154  0.9944
  183SOPE  H17R20959   1.966   5.259   8.496 -1.1635  1.5456  0.6493
  183SOPE  H17S20960   1.926   5.090   8.439  1.2153 -0.1561  2.2752
  183SOPE  C21820961   1.789   5.169   8.592  0.5887 -0.1882  0.5914
  183SOPE  H18R20962   1.752   5.269   8.622  1.4567 -0.0138  1.1058
  183SOPE  H18S20963   1.841   5.113   8.673  3.4527  0.3930 -0.6917
  183SOPE  H18T20964   1.701   5.111   8.559  1.9279 -1.1126 -1.5277
  183SOPE   C3320965   1.659   5.761   6.884 -0.4432  0.9223  0.1067
  183SOPE   H3X20966   1.567   5.750   6.823  0.2714 -0.0394 -0.8275
  183SOPE   H3Y20967   1.636   5.835   6.964 -1.7048  2.3586 -1.5088
  183SOPE   C3420968   1.705   5.637   6.967  0.1234  0.3773 -0.3243
  183SOPE   H4X20969   1.797   5.654   7.027  0.2066 -0.2487 -0.2724
  183SOPE   H4Y20970   1.723   5.551   6.900 -0.0228  0.2276 -0.1698
  183SOPE   C3520971   1.597   5.603   7.068  0.1193 -0.4027  0.6133
  183SOPE   H5X20972   1.602   5.494   7.088  1.9497 -0.1371  1.9101
  183SOPE   H5Y20973   1.498   5.634   7.030  0.2855  0.2633  0.7191
  183SOPE   C3620974   1.609   5.673   7.201 -0.1519  0.3425 -0.1950
  183SOPE   H6X20975   1.585   5.781   7.192  1.5494  0.7293 -0.3054
  183SOPE   H6Y20976   1.715   5.660   7.231 -0.0775 -0.8793 -0.9127
  183SOPE   C3720977   1.516   5.609   7.305  0.1748 -0.1187  0.0712
  183SOPE   H7X20978   1.510   5.499   7.287  0.0388  0.1261 -1.5277
  183SOPE   H7Y20979   1.415   5.646   7.275  0.5047 -1.5209 -3.1006
  183SOPE   C3820980   1.544   5.628   7.451  0.5922  0.3135  0.4946
  183SOPE   H8X20981   1.543   5.735   7.483  0.7429  0.9020 -1.3553
  183SOPE   H8Y20982   1.650   5.603   7.470  0.9166 -1.7244 -3.1959
  183SOPE   C3920983   1.448   5.549   7.530 -0.4888 -0.1114 -0.5532
  183SOPE   H9X20984   1.445   5.443   7.494 -1.8069 -0.2008 -0.2404
  183SOPE   H9Y20985   1.347   5.593   7.516 -0.8401 -0.6547  0.2164
  183SOPE  C31020986   1.487   5.555   7.674  0.0068 -0.1694  0.1779
  183SOPE  H10X20987   1.508   5.661   7.700 -0.7345  1.0165 -3.5599
  183SOPE  H10Y20988   1.587   5.508   7.685 -0.3643 -0.7145  1.5046
  183SOPE  C31120989   1.398   5.503   7.776 -0.2530  0.1992  0.3597
  183SOPE  H11X20990   1.364   5.401   7.750  1.1886 -0.3461  0.5074
  183SOPE  H11Y20991   1.315   5.574   7.795  2.6869  4.2252 -0.4471
  183SOPE  C31220992   1.476   5.479   7.906  0.7185 -0.4257  0.4625
  183SOPE  H12X20993   1.503   5.580   7.943  0.9519 -0.6503  0.9061
  183SOPE  H12Y20994   1.575   5.430   7.894  0.9533  0.1534  0.0032
  183SOPE  C31320995   1.406   5.411   8.018 -0.7369 -0.0872 -0.1159
  183SOPE  H13X20996   1.333   5.341   7.971  0.4232 -0.7989 -0.8825
  183SOPE  H13Y20997   1.334   5.480   8.068  0.2389  0.7770  0.1287
  183SOPE  C31420998   1.507   5.364   8.115 -0.2016 -0.1368 -0.4622
  183SOPE  H14X20999   1.572   5.441   8.161  0.3963 -0.3775 -0.8958
  183SOPE  H14Y21000   1.580   5.298   8.063  0.3194  0.0688 -0.0040
  183SOPE  C31521001   1.455   5.287   8.233 -0.6524 -0.5208  0.0750
  183SOPE  H15X21002   1.533   5.216   8.268  0.7957  0.1146 -1.7292
  183SOPE  H15Y21003   1.364   5.230   8.203 -0.2533 -0.9652 -0.2990
  183SOPE  C31621004   1.423   5.391   8.346 -1.0184  0.2700  0.5345
  183SOPE  H16X21005   1.349   5.459   8.299  1.1243  2.6258  0.3843
  183SOPE  H16Y21006   1.510   5.455   8.370 -0.3702  0.4959 -2.0868
  183SOPE  C31721007   1.375   5.313   8.472  0.5484  0.3543 -0.2876
  183SOPE  H17X21008   1.453   5.236   8.492 -0.7418 -1.3253 -1.4007
  183SOPE  H17Y21009   1.284   5.267   8.428  0.2609  0.9806 -0.3531
  183SOPE  C31821010   1.336   5.395   8.587  0.2298 -0.6704 -0.0999
  183SOPE  H18X21011   1.264   5.331   8.644  1.1215 -1.1920  0.4684
  183SOPE  H18Y21012   1.280   5.481   8.546  0.0216 -0.6585  0.2051
  183SOPE  H18Z21013   1.415   5.437   8.652  1.3236 -0.5448 -1.4724
  184SOPE     N21014   2.062   1.291   6.130  0.6188 -0.5743 -0.2190
  184SOPE   HN121015   2.135   1.364   6.118 -0.6357  1.2066  2.1958
  184SOPE   HN221016   2.100   1.204   6.088 -2.2876 -1.9037 -0.3515
  184SOPE   HN321017   1.982   1.322   6.072 -0.1579 -0.2174  1.0056
  184SOPE   C1221018   2.021   1.265   6.269  0.4197 -0.2181 -0.5567
  184SOPE  H12A21019   1.991   1.362   6.315  0.5513  0.0584 -1.0588
  184SOPE  H12B21020   2.108   1.223   6.324  1.1771  0.2914 -1.3462
  184SOPE   C1121021   1.898   1.160   6.261  0.0837 -0.0048 -0.1406
  184SOPE  H11A21022   1.816   1.220   6.216 -0.6477 -0.8402  0.0421
  184SOPE  H11B21023   1.862   1.129   6.362  0.2627 -0.8961 -0.3359
  184SOPE     P21024   1.995   0.915   6.253  0.0856  0.2360  0.1204
  184SOPE   O1321025   2.107   0.956   6.345 -0.0182  0.5391  0.8143
  184SOPE   O1421026   2.031   0.812   6.156  0.0554 -0.2104  0.7187
  184SOPE   O1221027   1.931   1.046   6.183  0.3811  1.1283  0.1351
  184SOPE   O1121028   1.875   0.856   6.334 -0.2639  0.5962  0.2944
  184SOPE    C121029   1.884   0.726   6.387 -0.2200  0.2209 -0.2519
  184SOPE    HA21030   1.988   0.687   6.383  0.6282  2.4562 -1.8764
  184SOPE    HB21031   1.807   0.663   6.337 -1.0686  0.6521  0.4883
  184SOPE    C221032   1.846   0.717   6.535  0.4019 -0.3344 -0.4240
  184SOPE    HS21033   1.764   0.790   6.550 -1.3279 -2.0349 -1.2159
  184SOPE   O2121034   1.969   0.750   6.605 -0.2309 -0.8237  0.0161
  184SOPE   C2121035   1.986   0.872   6.632 -0.2958  0.5876  0.6054
  184SOPE   O2221036   1.901   0.959   6.620  0.1527  0.0145 -0.0065
  184SOPE   C2221037   2.122   0.896   6.682 -0.3484 -0.1001 -0.8490
  184SOPE   H2R21038   2.169   0.965   6.609 -2.3657  0.5671 -1.5891
  184SOPE   H2S21039   2.170   0.796   6.694 -0.9377 -0.6309 -2.6882
  184SOPE    C321040   1.793   0.573   6.580 -0.1223 -0.3051 -0.5880
  184SOPE    HX21041   1.848   0.488   6.535  2.4634  0.5540  0.7584
  184SOPE    HY21042   1.687   0.563   6.547 -0.1030 -1.2009 -0.4181
  184SOPE   O3121043   1.812   0.551   6.724 -0.3665 -0.3795 -0.0738
  184SOPE   C3121044   1.705   0.530   6.796  0.0470 -1.0005 -0.2728
  184SOPE   O3221045   1.587   0.543   6.760  0.6052 -0.6626 -0.1138
  184SOPE   C3221046   1.742   0.511   6.942 -0.0611 -0.5589 -0.1979
  184SOPE   H2X21047   1.817   0.588   6.971 -1.2178  0.7457 -0.5613
  184SOPE   H2Y21048   1.785   0.409   6.954 -1.6825 -1.4908 -1.7359
  184SOPE   C2321049   2.112   0.980   6.809 -0.3954  0.0852 -0.8622
  184SOPE   H3R21050   2.023   1.047   6.811  1.0074  2.0288 -0.5163
  184SOPE   H3S21051   2.199   1.048   6.818 -0.4062  0.3050 -2.2728
  184SOPE   C2421052   2.090   0.891   6.939 -0.6157  0.1070  0.2417
  184SOPE   H4R21053   2.011   0.815   6.918 -1.8212  0.8195  1.8677
  184SOPE   H4S21054   2.190   0.849   6.963  0.8312  2.6905 -0.8998
  184SOPE   C2521055   2.045   0.973   7.065  0.1865  0.7113 -0.6064
  184SOPE   H5R21056   2.135   1.030   7.097 -1.3367  2.6148  0.4861
  184SOPE   H5S21057   1.964   1.047   7.047 -1.2017 -0.1904  1.5171
  184SOPE   C2621058   1.993   0.888   7.187 -0.4646 -0.0955  0.9335
  184SOPE   H6R21059   1.901   0.832   7.164  0.1024 -0.2460 -1.1272
  184SOPE   H6S21060   2.076   0.817   7.210  1.2528  1.4093 -0.3254
  184SOPE   C2721061   1.985   0.970   7.317  0.1558 -0.1499 -1.0049
  184SOPE   H7R21062   2.079   0.985   7.374 -0.7723  0.5902  0.3802
  184SOPE   H7S21063   1.953   1.071   7.285  0.9687  0.3049 -0.4336
  184SOPE   C2821064   1.882   0.916   7.416  0.1062  0.4742  0.0436
  184SOPE   H8R21065   1.892   0.986   7.502 -0.3379  1.1811 -0.4759
  184SOPE   H8S21066   1.782   0.915   7.369  0.3076  1.0720 -0.4139
  184SOPE   C2921067   1.905   0.776   7.471  0.4751  0.0630 -0.5501
  184SOPE   H9121068   1.950   0.708   7.397  1.6031 -1.2691  1.2717
  184SOPE  C21021069   1.890   0.734   7.594 -0.5392  0.0731 -0.0242
  184SOPE  H10121070   1.908   0.629   7.620  1.8708 -0.7801 -4.1208
  184SOPE  C21121071   1.843   0.811   7.712  0.5474  0.1100 -0.3646
  184SOPE  H11R21072   1.741   0.786   7.747  0.5495  1.4234  0.6319
  184SOPE  H11S21073   1.834   0.920   7.691 -1.5027  0.0029 -0.2609
  184SOPE  C21221074   1.928   0.798   7.836 -0.3710 -1.1899  0.0025
  184SOPE  H12R21075   2.010   0.872   7.827 -0.5276 -1.1076 -0.7647
  184SOPE  H12S21076   1.973   0.697   7.843 -0.2672 -1.0548  1.8750
  184SOPE  C21321077   1.850   0.824   7.965  0.0958 -0.2511  0.3510
  184SOPE  H13R21078   1.768   0.751   7.973 -0.2741  0.1204  0.0161
  184SOPE  H13S21079   1.800   0.922   7.952 -0.3608 -0.7483 -2.1086
  184SOPE  C21421080   1.937   0.835   8.095 -0.2312 -0.6379 -0.4234
  184SOPE  H14R21081   2.000   0.925   8.078 -1.2245 -0.1040 -1.4246
  184SOPE  H14S21082   1.995   0.741   8.106 -0.1220 -0.4962  0.2578
  184SOPE  C21521083   1.857   0.871   8.217 -0.7561 -0.0121 -0.1671
  184SOPE  H15R21084   1.789   0.786   8.239  1.6179 -1.9600  0.0547
  184SOPE  H15S21085   1.799   0.962   8.191 -0.1159  0.6342  0.5996
  184SOPE  C21621086   1.938   0.893   8.345 -0.2429  0.0609 -0.2693
  184SOPE  H16R21087   1.871   0.925   8.428 -1.2718 -0.5394 -0.8410
  184SOPE  H16S21088   2.008   0.975   8.320 -1.0160  0.0357 -2.9153
  184SOPE  C21721089   2.010   0.760   8.388  0.1974  0.0844 -0.0198
  184SOPE  H17R21090   2.072   0.723   8.304 -1.5888 -1.3368 -0.7887
  184SOPE  H17S21091   1.932   0.681   8.390  0.1550  0.1135 -0.3551
  184SOPE  C21821092   2.092   0.753   8.521 -0.5213  0.5110  0.0707
  184SOPE  H18R21093   2.155   0.662   8.530  0.1170  1.0653  1.4480
  184SOPE  H18S21094   2.026   0.752   8.610  1.4292 -0.5288  1.5686
  184SOPE  H18T21095   2.161   0.839   8.526  0.8705 -0.6408  2.2279
  184SOPE   C3321096   1.623   0.523   7.035  0.2507 -0.4587  0.1042
  184SOPE   H3X21097   1.553   0.437   7.022 -1.8179  1.2531 -0.7733
  184SOPE   H3Y21098   1.562   0.611   7.007 -0.7361 -1.1279  0.0876
  184SOPE   C3421099   1.664   0.541   7.184  0.7183 -0.6483 -0.3585
  184SOPE   H4X21100   1.729   0.631   7.184 -0.9656  0.6134  0.5984
  184SOPE   H4Y21101   1.722   0.447   7.200  0.1436 -0.9978 -0.2966
  184SOPE   C3521102   1.545   0.545   7.288 -0.7111 -0.6406  0.1372
  184SOPE   H5X21103   1.473   0.465   7.260  0.9478 -2.1737  0.0384
  184SOPE   H5Y21104   1.492   0.643   7.289  2.3339  1.1469  2.5974
  184SOPE   C3621105   1.589   0.530   7.428 -0.4960  0.1804  0.0993
  184SOPE   H6X21106   1.656   0.610   7.468  2.4353 -2.0306  0.0246
  184SOPE   H6Y21107   1.638   0.432   7.445 -0.3938  0.4409  1.4464
  184SOPE   C3721108   1.481   0.526   7.541 -0.7187  0.4641  0.1579
  184SOPE   H7X21109   1.399   0.589   7.501 -1.1999  1.0321  1.9487
  184SOPE   H7Y21110   1.515   0.572   7.636  0.3281  2.8772 -1.2755
  184SOPE   C3821111   1.433   0.388   7.582  0.0094 -0.8754 -0.1589
  184SOPE   H8X21112   1.518   0.323   7.610  0.7040  0.5881  1.3624
  184SOPE   H8Y21113   1.363   0.342   7.510 -0.8665 -0.5261  0.4588
  184SOPE   C3921114   1.361   0.394   7.724  0.4322  0.2195  0.4571
  184SOPE   H9X21115   1.277   0.467   7.722  0.0235 -0.1614  2.0904
  184SOPE   H9Y21116   1.430   0.432   7.803 -0.5398  1.6792  0.6355
  184SOPE  C31021117   1.291   0.262   7.751  0.4446  0.3820 -0.7133
  184SOPE  H10X21118   1.363   0.183   7.780 -2.0389 -0.9054  2.6774
  184SOPE  H10Y21119   1.240   0.223   7.660 -0.6382  0.5903 -0.2206
  184SOPE  C31121120   1.194   0.265   7.876 -0.3229 -1.2575  0.4535
  184SOPE  H11X21121   1.145   0.365   7.874  0.0984 -0.9736  2.4189
  184SOPE  H11Y21122   1.251   0.248   7.970  0.3381 -0.3402  0.2351
  184SOPE  C31221123   1.081   0.156   7.879 -0.2951 -0.3173  0.7077
  184SOPE  H12X21124   1.145   0.067   7.896  2.7113  1.2680 -1.4557
  184SOPE  H12Y21125   1.031   0.156   7.780 -1.5198 -0.4696  1.3056
  184SOPE  C31321126   0.969   0.185   7.981  0.2325  0.5894 -0.0762
  184SOPE  H13X21127   0.886   0.112   7.965 -1.7184  2.6327  0.1286
  184SOPE  H13Y21128   0.927   0.285   7.958  1.9418  0.8486 -2.3333
  184SOPE  C31421129   1.022   0.179   8.127  0.9653  0.4766  0.9088
  184SOPE  H14X21130   0.941   0.221   8.191  1.0043  0.4105  1.0004
  184SOPE  H14Y21131   1.100   0.258   8.130  0.5161  0.9810 -0.0572
  184SOPE  C31521132   1.086   0.041   8.174  0.6295  0.0783 -0.4980
  184SOPE  H15X21133   1.173   0.006   8.114  0.3617 -1.5127 -0.0224
  184SOPE  H15Y21134   1.012  -0.041   8.167 -1.1938  1.5785  0.4571
  184SOPE  C31621135   1.124   0.052   8.314  0.0351  0.2053 -0.2607
  184SOPE  H16X21136   1.039   0.098   8.370  0.4825  0.7122  0.0160
  184SOPE  H16Y21137   1.218   0.109   8.330 -0.1992  0.3639  0.5932
  184SOPE  C31721138   1.153  -0.084   8.385  0.0157 -0.4367 -0.8012
  184SOPE  H17X21139   1.232  -0.142   8.333  0.5730 -0.2763 -0.1394
  184SOPE  H17Y21140   1.061  -0.146   8.376 -1.2307  1.2098  0.0324
  184SOPE  C31821141   1.201  -0.076   8.535  1.1917 -0.0635  0.5443
  184SOPE  H18X21142   1.120  -0.045   8.605  0.2774  1.2709 -1.0252
  184SOPE  H18Y21143   1.282  -0.000   8.543  1.4977 -0.4143  0.7678
  184SOPE  H18Z21144   1.229  -0.182   8.550  1.3709 -0.0878  0.0635
  185SAPI   C1221145   3.556   3.172  11.294  0.7054  0.1291  0.4850
  185SAPI    H221146   3.648   3.113  11.272  0.8172  0.5932 -0.3265
  185SAPI    O221147   3.438   3.102  11.333 -0.7119  0.0349  0.7180
  185SAPI   HO221148   3.386   3.077  11.256 -1.9093  2.0255  0.8221
  185SAPI   C1321149   3.599   3.256  11.414 -0.1257  0.0279  1.4645
  185SAPI    H321150   3.679   3.327  11.382 -1.7375  1.6714  0.8809
  185SAPI    O321151   3.645   3.176  11.522  0.5224 -0.3723 -0.3414
  185SAPI   HO321152   3.577   3.114  11.550  0.0054  0.7520  1.0049
  185SAPI   C1421153   3.483   3.360  11.451 -0.0949  0.2936  0.0496
  185SAPI    H421154   3.395   3.303  11.488  0.7670 -0.4288  1.0645
  185SAPI    O421155   3.517   3.442  11.560  0.3579 -0.1603 -0.5772
  185SAPI   HO421156   3.499   3.399  11.644 -1.8454  0.7340 -0.5023
  185SAPI   C1521157   3.449   3.442  11.324 -0.3809  0.4768 -0.8758
  185SAPI    H521158   3.545   3.491  11.296  0.3694 -1.6610 -2.4035
  185SAPI    O521159   3.349   3.543  11.345  0.3440 -0.0929  0.3752
  185SAPI   HO521160   3.273   3.508  11.393  0.3701 -0.3962  0.2035
  185SAPI   C1621161   3.412   3.357  11.208  0.5843  0.4040  0.0234
  185SAPI    H621162   3.324   3.299  11.241 -0.1215  2.3890  1.9089
  185SAPI    O621163   3.380   3.448  11.101 -0.4681 -0.6530  0.1206
  185SAPI   HO621164   3.466   3.466  11.064 -1.6566 -0.0081 -2.6196
  185SAPI   C1121165   3.525   3.258  11.182  0.2345  0.2315  0.4225
  185SAPI    H121166   3.618   3.313  11.155 -0.3739  1.1143  0.0561
  185SAPI     P21167   3.585   3.096  10.966  0.4084 -0.0989 -0.2808
  185SAPI   O1321168   3.512   2.980  10.916  0.9274  0.0129  0.4313
  185SAPI   O1421169   3.713   3.077  11.037 -0.0523 -0.0573  0.3073
  185SAPI   O1221170   3.488   3.183  11.069  0.0632  0.8186 -0.8853
  185SAPI   O1121171   3.613   3.193  10.843  0.0568  0.2155 -0.8928
  185SAPI    C121172   3.503   3.279  10.796 -0.6325  0.2350 -0.0713
  185SAPI    HA21173   3.414   3.213  10.788 -0.4637  0.2440 -3.4942
  185SAPI    HB21174   3.488   3.368  10.861  3.2938  0.9675  0.0799
  185SAPI    C221175   3.524   3.319  10.649 -0.6110 -0.1611  0.1432
  185SAPI    HS21176   3.424   3.350  10.611 -0.8037 -1.1045 -0.1572
  185SAPI   O2121177   3.579   3.209  10.574  0.1003  0.3367 -0.1375
  185SAPI   C2121178   3.502   3.099  10.564 -0.5688 -0.1144  0.1655
  185SAPI   O2221179   3.390   3.083  10.610 -0.3627 -0.0846 -0.3343
  185SAPI   C2221180   3.584   2.983  10.487  0.4340 -0.1643  0.0491
  185SAPI   H2R21181   3.690   2.984  10.519  0.5572  2.0503 -0.2813
  185SAPI   H2S21182   3.529   2.888  10.504 -2.6574  1.4374 -0.2779
  185SAPI    C321183   3.632   3.436  10.635 -0.3381 -0.9862  0.0457
  185SAPI    HX21184   3.733   3.399  10.663  0.8094  1.2526 -0.9018
  185SAPI    HY21185   3.598   3.516  10.704 -2.5472 -0.5157 -1.4747
  185SAPI   O3121186   3.632   3.480  10.495 -0.6001  0.0936  0.3808
  185SAPI   C3121187   3.534   3.566  10.473 -0.2883  0.3891 -0.0463
  185SAPI   O3221188   3.445   3.605  10.549 -0.4753  0.2825  1.0386
  185SAPI   C3221189   3.538   3.604  10.325  0.6266 -0.0288  0.1639
  185SAPI   H2X21190   3.511   3.506  10.280  1.2277 -0.2362  0.2402
  185SAPI   H2Y21191   3.643   3.637  10.309  0.5075  0.5224  0.4947
  185SAPI   C2321192   3.586   3.016  10.334 -0.8942  0.2818  0.7392
  185SAPI   H3R21193   3.640   2.930  10.288 -2.4237 -1.0772  1.3540
  185SAPI   H3S21194   3.639   3.113  10.326  1.6829 -1.1913 -2.0419
  185SAPI   C2421195   3.454   3.021  10.264  0.3740 -0.0413 -0.0237
  185SAPI   H4R21196   3.485   3.006  10.158  0.1692  1.0261 -0.2452
  185SAPI   H4S21197   3.417   3.125  10.260  1.1344  0.2052 -0.9617
  185SAPI   C2521198   3.342   2.923  10.301 -0.8876 -1.0022  0.3993
  185SAPI   H5R21199   3.282   2.951  10.390 -2.0544 -0.6281 -0.4771
  185SAPI   C2621200   3.342   2.798  10.256  0.0692  0.3332 -0.4403
  185SAPI   H6R21201   3.250   2.745  10.285  0.9332 -1.2605 -0.4961
  185SAPI   C2721202   3.434   2.726  10.161 -0.1848 -0.3432  0.4623
  185SAPI   H7R21203   3.527   2.784  10.139 -0.6717  0.8117  1.3543
  185SAPI   H7S21204   3.383   2.723  10.062 -0.1361  1.1431  0.3714
  185SAPI   C2821205   3.473   2.593  10.208 -0.2685  0.8508  0.1775
  185SAPI   H8R21206   3.462   2.553  10.310  0.1564  0.3090  0.0128
  185SAPI   C2921207   3.505   2.502  10.116  0.2791  0.6220  0.4568
  185SAPI   H9R21208   3.512   2.403  10.163  1.3039  0.4364 -0.0545
  185SAPI  C21021209   3.511   2.494   9.967 -0.2188 -0.2310  0.1540
  185SAPI  H10R21210   3.434   2.564   9.927  0.2932 -0.5908 -1.5284
  185SAPI  H10S21211   3.479   2.396   9.927  0.4899  0.9405 -3.7196
  185SAPI  C21121212   3.648   2.527   9.912 -0.4989 -0.0058  0.4020
  185SAPI  H11R21213   3.692   2.625   9.935  2.5483 -0.8517 -1.2576
  185SAPI  C21221214   3.719   2.456   9.815  0.4932 -0.1276  0.3631
  185SAPI  H12R21215   3.819   2.490   9.787  1.0138 -3.3589 -2.3882
  185SAPI  C21321216   3.663   2.333   9.744 -0.8267  0.9077  0.4671
  185SAPI  H13R21217   3.552   2.328   9.750 -0.7344 -1.5833  1.0722
  185SAPI  H13S21218   3.710   2.250   9.801 -1.5787 -0.0117 -0.2230
  185SAPI  C21421219   3.714   2.316   9.600 -0.6396 -0.2885 -0.8100
  185SAPI  H14R21220   3.812   2.364   9.585 -1.5702  1.5522 -1.3660
  185SAPI  C21521221   3.665   2.245   9.493  0.1345  0.4772 -0.1394
  185SAPI  H15R21222   3.724   2.242   9.400 -0.3223  2.3906 -0.5337
  185SAPI  C21621223   3.533   2.172   9.500  0.5560  0.2360 -0.3624
  185SAPI  H16R21224   3.505   2.130   9.600  2.1078  0.2422  0.0957
  185SAPI  H16S21225   3.551   2.074   9.450 -0.9186 -0.5079  0.4584
  185SAPI  C21721226   3.426   2.262   9.438  0.2583  0.2151 -0.3410
  185SAPI  H17R21227   3.423   2.365   9.478 -0.3024 -0.3796  1.2042
  185SAPI  H17S21228   3.331   2.208   9.455  0.4592  0.7457  3.1434
  185SAPI  C21821229   3.436   2.287   9.286  0.7150  0.1015  0.5270
  185SAPI  H18R21230   3.437   2.194   9.224 -2.8486 -0.4307  1.0638
  185SAPI  H18S21231   3.536   2.336   9.282  1.6207 -1.6123  0.8267
  185SAPI  C21921232   3.325   2.377   9.241  0.0929 -0.5047  0.2686
  185SAPI  H19R21233   3.321   2.480   9.283 -1.6952  0.7820 -2.6632
  185SAPI  H19S21234   3.228   2.330   9.268 -0.6879 -0.3628 -2.0657
  185SAPI  C22021235   3.308   2.410   9.087  0.0666  0.3888  0.3835
  185SAPI  H20R21236   3.220   2.477   9.071  1.3766  1.9161 -0.6883
  185SAPI  H20S21237   3.297   2.312   9.037  2.0642 -1.1835  2.7926
  185SAPI  H20T21238   3.400   2.463   9.054 -1.0441  1.4289 -1.1646
  185SAPI   C3321239   3.452   3.720  10.274 -0.1296  0.0194 -0.2688
  185SAPI   H3X21240   3.466   3.806  10.343 -1.6524  0.1757 -0.1048
  185SAPI   H3Y21241   3.348   3.685  10.294  0.3471 -0.7439  0.9987
  185SAPI   C3421242   3.487   3.747  10.130 -0.3093 -0.0577 -0.3900
  185SAPI   H4X21243   3.598   3.755  10.123 -0.4380  2.2029 -0.4400
  185SAPI   H4Y21244   3.445   3.846  10.106 -1.9230 -0.1394  1.8564
  185SAPI   C3521245   3.439   3.642  10.032 -0.4129 -0.5874  0.4361
  185SAPI   H5X21246   3.333   3.608  10.041 -0.5884 -0.4189 -0.7813
  185SAPI   H5Y21247   3.505   3.553  10.035 -1.5786 -1.4691  1.1195
  185SAPI   C3621248   3.445   3.704   9.887 -0.2322 -0.2287 -0.2462
  185SAPI   H6X21249   3.553   3.721   9.870  0.1881 -2.0525  0.4194
  185SAPI   H6Y21250   3.388   3.800   9.895  1.6604  0.7907  2.4852
  185SAPI   C3721251   3.393   3.605   9.785 -0.3293 -0.0200 -0.6754
  185SAPI   H7X21252   3.287   3.585   9.813 -0.2426  1.4202  0.7934
  185SAPI   H7Y21253   3.447   3.508   9.788  3.8234  2.0150 -2.6323
  185SAPI   C3821254   3.403   3.655   9.637 -0.6681  0.5103 -0.1762
  185SAPI   H8X21255   3.500   3.703   9.612 -1.6817  1.6074 -2.1864
  185SAPI   H8Y21256   3.328   3.736   9.632 -1.4124 -0.0777  1.0373
  185SAPI   C3921257   3.385   3.538   9.537 -0.0821 -0.4797 -0.3919
  185SAPI   H9X21258   3.305   3.467   9.568  0.1972 -0.7331 -0.2469
  185SAPI   H9Y21259   3.478   3.477   9.533 -0.5362 -1.1343 -1.0986
  185SAPI  C31021260   3.356   3.588   9.397 -0.0012  0.0186  0.4514
  185SAPI  H10X21261   3.268   3.655   9.382  0.3328 -0.3403 -5.1023
  185SAPI  H10Y21262   3.334   3.497   9.337  0.5680 -1.5485  2.5143
  185SAPI  C31121263   3.477   3.664   9.335  0.4524 -0.1295 -0.6332
  185SAPI  H11X21264   3.573   3.611   9.353  0.6706  0.8281  1.3285
  185SAPI  H11Y21265   3.494   3.769   9.370 -1.3479 -0.6568  2.1522
  185SAPI  C31221266   3.470   3.661   9.181  0.3293  0.9052 -0.2069
  185SAPI  H12X21267   3.471   3.556   9.145 -0.1582  1.0450 -0.6307
  185SAPI  H12Y21268   3.562   3.712   9.147  0.5702 -1.1428 -2.9063
  185SAPI  C31321269   3.349   3.742   9.122 -0.2594 -0.8010  0.6121
  185SAPI  H13X21270   3.323   3.841   9.167 -1.4635 -0.6737 -0.3149
  185SAPI  H13Y21271   3.258   3.679   9.131 -1.1715  0.3429 -0.2297
  185SAPI  C31421272   3.368   3.770   8.972  0.2370 -0.2559  0.1092
  185SAPI  H14X21273   3.358   3.673   8.917 -0.2905  0.6414 -1.4497
  185SAPI  H14Y21274   3.475   3.801   8.967  0.0915  0.0879 -1.3509
  185SAPI  C31521275   3.278   3.881   8.901 -0.7522  0.3795  0.1440
  185SAPI  H15X21276   3.265   3.954   8.983 -2.5663 -0.0645  0.2933
  185SAPI  H15Y21277   3.175   3.848   8.874 -0.0458 -0.4542 -1.7246
  185SAPI  C31621278   3.344   3.943   8.774 -0.7173 -0.8235 -0.3467
  185SAPI  H16X21279   3.438   3.990   8.810 -0.6575 -1.1270 -0.0940
  185SAPI  H16Y21280   3.282   4.024   8.730 -1.9144 -0.5705  1.6741
  185SAPI  C31721281   3.363   3.834   8.664 -0.3020  0.1118  0.5395
  185SAPI  H17X21282   3.266   3.786   8.639 -0.6671  2.1438 -2.4484
  185SAPI  H17Y21283   3.431   3.753   8.698 -0.6108  0.0623  1.0562
  185SAPI  C31821284   3.435   3.895   8.542  0.5679  0.5160 -0.2611
  185SAPI  H18X21285   3.380   3.982   8.501  0.8447  0.7083 -0.2207
  185SAPI  H18Y21286   3.446   3.821   8.460  0.6926 -1.4098  1.3949
  185SAPI  H18Z21287   3.532   3.940   8.572  1.0132 -0.2189 -0.5848
  186SAPI   C1221288   4.006   1.102  11.056 -0.3239  0.2291  0.4274
  186SAPI    H221289   4.013   1.210  11.030  0.1646  0.1306  0.1340
  186SAPI    O221290   4.107   1.075  11.150  0.2028 -0.3340 -0.1141
  186SAPI   HO221291   4.182   1.045  11.097  1.0972  0.3044  0.7568
  186SAPI   C1321292   3.866   1.091  11.115  0.0902 -0.4698  0.4831
  186SAPI    H321293   3.800   1.135  11.038  2.4618 -0.2537 -1.5586
  186SAPI    O321294   3.859   1.173  11.235  0.1475  0.9444 -0.5829
  186SAPI   HO321295   3.941   1.158  11.283 -0.0085 -0.3365 -0.6741
  186SAPI   C1421296   3.827   0.944  11.142  0.1926  0.5558  0.9911
  186SAPI    H421297   3.898   0.902  11.217  1.5897  2.0759  0.5782
  186SAPI    O421298   3.689   0.932  11.189 -0.2230 -0.1737 -0.4190
  186SAPI   HO421299   3.626   0.972  11.128 -1.5372 -0.3349  0.7854
  186SAPI   C1521300   3.844   0.862  11.017 -0.3883 -1.3026  0.0826
  186SAPI    H521301   3.771   0.900  10.942 -0.0485 -1.2344 -0.2149
  186SAPI    O521302   3.814   0.724  11.037 -0.0280 -0.0997  0.0721
  186SAPI   HO521303   3.727   0.709  10.998 -0.8860  0.1188  1.7962
  186SAPI   C1621304   3.985   0.880  10.957 -0.3090  0.2485 -0.4030
  186SAPI    H621305   4.058   0.836  11.028 -0.7136 -1.8743 -1.2346
  186SAPI    O621306   3.999   0.803  10.838  0.2240  0.0825 -0.2997
  186SAPI   HO621307   3.925   0.819  10.779  0.9319 -0.7853 -1.4671
  186SAPI   C1121308   4.015   1.022  10.926 -0.1648 -0.5810 -0.7060
  186SAPI    H121309   3.933   1.061  10.863 -0.7508 -0.2719  0.2358
  186SAPI     P21310   4.151   1.122  10.717 -0.2146  0.0401  0.3232
  186SAPI   O1321311   4.289   1.163  10.684 -0.1970  0.2292  0.2972
  186SAPI   O1421312   4.054   1.231  10.718 -0.3984 -0.4813  0.7871
  186SAPI   O1221313   4.144   1.039  10.866 -0.1100 -0.3332  0.4802
  186SAPI   O1121314   4.104   1.016  10.615  0.0978 -0.0061 -0.1179
  186SAPI    C121315   4.194   0.911  10.581 -0.4235  0.4270  0.1285
  186SAPI    HA21316   4.300   0.938  10.599 -0.3862  0.4859 -0.1890
  186SAPI    HB21317   4.172   0.817  10.637  0.9083 -0.9111 -1.5018
  186SAPI    C221318   4.189   0.868  10.430 -0.2550 -0.1618 -0.4294
  186SAPI    HS21319   4.270   0.794  10.410 -0.0039  0.5107 -2.1446
  186SAPI   O2121320   4.212   0.971  10.337 -0.0886 -0.6209  0.0929
  186SAPI   C2121321   4.348   0.995  10.328 -0.8474  0.0044  0.4375
  186SAPI   O2221322   4.431   0.958  10.406  0.5458  0.1618 -0.7814
  186SAPI   C2221323   4.374   1.069  10.194 -0.1285 -0.1718  0.1465
  186SAPI   H2R21324   4.331   1.168  10.221 -0.4750 -0.6251  1.3167
  186SAPI   H2S21325   4.484   1.074  10.179 -0.3660  1.9084 -1.2059
  186SAPI    C321326   4.050   0.801  10.404 -0.5432 -0.7982  0.4894
  186SAPI    HX21327   3.977   0.884  10.415 -1.1686 -1.1205 -0.8991
  186SAPI    HY21328   4.020   0.736  10.489  0.5128 -0.9951  0.7152
  186SAPI   O3121329   4.035   0.733  10.280  0.8430 -0.2519  0.7218
  186SAPI   C3121330   4.089   0.614  10.282 -0.6895  0.0826  0.2287
  186SAPI   O3221331   4.167   0.567  10.361  0.2720  0.0205 -0.1138
  186SAPI   C3221332   4.070   0.550  10.152 -0.4305 -0.6439 -0.2736
  186SAPI   H2X21333   4.086   0.625  10.072 -0.2370  0.8821  1.1243
  186SAPI   H2Y21334   3.964   0.519  10.144 -1.0827  1.0215  1.0977
  186SAPI   C2321335   4.289   1.012  10.078 -0.2031  0.5080  0.5238
  186SAPI   H3R21336   4.303   1.073   9.986  2.4955  1.5968  1.5543
  186SAPI   H3S21337   4.183   1.017  10.108 -0.5726 -3.6959  0.5545
  186SAPI   C2421338   4.314   0.867  10.040 -0.3809 -0.3452 -0.3220
  186SAPI   H4R21339   4.290   0.805  10.129  0.4857  1.1479  1.0106
  186SAPI   H4S21340   4.424   0.860  10.024 -0.3069 -1.0511  0.4268
  186SAPI   C2521341   4.230   0.833   9.930 -0.0587 -0.7835  0.6289
  186SAPI   H5R21342   4.122   0.846   9.946  0.0035 -0.2565  0.6084
  186SAPI   C2621343   4.272   0.801   9.807  0.3560  0.3660 -0.2497
  186SAPI   H6R21344   4.195   0.783   9.731  0.2971 -0.7456  0.0517
  186SAPI   C2721345   4.422   0.785   9.759  0.6074 -0.0029 -0.0662
  186SAPI   H7R21346   4.428   0.685   9.712  0.0676 -0.1991  0.2705
  186SAPI   H7S21347   4.495   0.777   9.843  0.5386  0.1808  0.0134
  186SAPI   C2821348   4.459   0.897   9.673 -0.2322  0.6819  0.0558
  186SAPI   H8R21349   4.488   0.987   9.729 -0.7692  0.6489  0.3927
  186SAPI   C2921350   4.461   0.902   9.538  0.3076 -0.6519 -0.2253
  186SAPI   H9R21351   4.489   0.999   9.495  1.3674 -1.1868 -0.7884
  186SAPI  C21021352   4.411   0.807   9.444  0.0914  0.6158 -0.0790
  186SAPI  H10R21353   4.349   0.735   9.500  0.5616  0.5249  0.3358
  186SAPI  H10S21354   4.496   0.750   9.401 -0.3707 -0.8571  0.8897
  186SAPI  C21121355   4.329   0.868   9.328 -0.3651 -0.8008 -0.0632
  186SAPI  H11R21356   4.224   0.888   9.353 -0.4611 -1.1395 -0.1855
  186SAPI  C21221357   4.366   0.890   9.210 -0.0604  0.5653  0.1400
  186SAPI  H12R21358   4.292   0.928   9.139  0.7249  3.4354  0.7477
  186SAPI  C21321359   4.509   0.865   9.158  0.2133  0.4641  1.1216
  186SAPI  H13R21360   4.575   0.850   9.246 -0.0447 -0.0303  1.2308
  186SAPI  H13S21361   4.552   0.955   9.108  1.8108 -0.2302  1.1713
  186SAPI  C21421362   4.531   0.737   9.073  0.2449  0.5256 -0.0336
  186SAPI  H14R21363   4.538   0.653   9.143  0.2575  0.0844 -0.5563
  186SAPI  C21521364   4.535   0.725   8.938 -0.5145  0.3810 -0.3674
  186SAPI  H15R21365   4.570   0.635   8.886 -1.0559 -0.0928  0.0700
  186SAPI  C21621366   4.504   0.836   8.838  0.1464 -0.3936 -0.0749
  186SAPI  H16R21367   4.579   0.833   8.756  0.1263 -1.8304 -0.0636
  186SAPI  H16S21368   4.506   0.938   8.882  0.8879 -0.8239  0.9112
  186SAPI  C21721369   4.369   0.816   8.766 -0.3799  0.7991  0.0900
  186SAPI  H17R21370   4.295   0.791   8.844  0.2855  0.5508  0.6508
  186SAPI  H17S21371   4.376   0.733   8.691  2.4734  0.3572  0.7021
  186SAPI  C21821372   4.328   0.941   8.691 -0.5370 -0.2695 -0.3704
  186SAPI  H18R21373   4.339   1.022   8.766 -0.3856 -0.8188  0.2116
  186SAPI  H18S21374   4.220   0.948   8.667 -0.6168  0.1068  0.0841
  186SAPI  C21921375   4.408   0.980   8.560 -0.6350 -0.3939 -0.4430
  186SAPI  H19R21376   4.518   0.984   8.577 -0.4227  2.7665 -1.9215
  186SAPI  H19S21377   4.381   1.086   8.540 -0.4799  0.0295  1.4162
  186SAPI  C22021378   4.385   0.889   8.446  0.0320  0.3839 -0.2970
  186SAPI  H20R21379   4.405   0.932   8.345 -2.3424  0.0580 -0.9534
  186SAPI  H20S21380   4.279   0.857   8.448  0.1360  0.0563  1.2728
  186SAPI  H20T21381   4.448   0.797   8.448  0.6816  0.8279  0.5248
  186SAPI   C3321382   4.161   0.428  10.118 -0.6126  0.1097 -0.6110
  186SAPI   H3X21383   4.163   0.357  10.204  2.2071  1.1797  0.3138
  186SAPI   H3Y21384   4.265   0.463  10.102 -1.5627  2.7658 -1.6127
  186SAPI   C3421385   4.118   0.352   9.996  0.2339 -0.7168  0.3570
  186SAPI   H4X21386   4.014   0.314  10.002 -0.5992  0.6388 -3.0267
  186SAPI   H4Y21387   4.186   0.264  10.002  1.4742  0.2965  2.1627
  186SAPI   C3521388   4.129   0.445   9.871 -0.0308  0.4452 -0.2230
  186SAPI   H5X21389   4.225   0.501   9.874  0.7918 -0.9246 -0.2975
  186SAPI   H5Y21390   4.048   0.519   9.888  0.5758  1.4907 -1.6418
  186SAPI   C3621391   4.099   0.386   9.731 -0.0130 -0.6216  0.2882
  186SAPI   H6X21392   3.999   0.337   9.732 -0.7125  0.6520 -1.3991
  186SAPI   H6Y21393   4.178   0.312   9.706  2.6889  2.0387  0.4248
  186SAPI   C3721394   4.110   0.490   9.620 -0.2296 -0.2058  0.4271
  186SAPI   H7X21395   4.213   0.531   9.622 -0.1528 -0.4000  2.4982
  186SAPI   H7Y21396   4.054   0.584   9.643  1.0657  1.1862 -1.7771
  186SAPI   C3821397   4.097   0.433   9.479  0.5190 -0.3727 -0.0391
  186SAPI   H8X21398   3.998   0.387   9.459  0.3401 -0.4685  0.9914
  186SAPI   H8Y21399   4.174   0.355   9.463  0.6532 -0.7957  2.2583
  186SAPI   C3921400   4.131   0.534   9.363 -0.0822  0.6615  0.3016
  186SAPI   H9X21401   4.235   0.571   9.370  0.4989 -0.3386 -2.0009
  186SAPI   H9Y21402   4.067   0.624   9.367  0.8437  1.4801 -1.8458
  186SAPI  C31021403   4.110   0.467   9.224  0.3138 -0.2625  0.4105
  186SAPI  H10X21404   4.001   0.455   9.205  0.8435 -0.6505 -3.2497
  186SAPI  H10Y21405   4.153   0.365   9.220 -0.8255 -0.8519  2.3377
  186SAPI  C31121406   4.184   0.557   9.125 -0.1920 -0.7393  0.6325
  186SAPI  H11X21407   4.292   0.532   9.120 -0.1900 -0.5198 -0.5984
  186SAPI  H11Y21408   4.182   0.664   9.155 -2.0636 -0.2014 -1.1144
  186SAPI  C31221409   4.125   0.551   8.978 -0.7931  0.5251  0.1377
  186SAPI  H12X21410   4.086   0.449   8.958 -3.4797  1.5710 -0.3935
  186SAPI  H12Y21411   4.197   0.567   8.895 -0.6598 -1.0812 -0.0854
  186SAPI  C31321412   4.005   0.643   8.953 -0.0474 -0.3863 -0.0476
  186SAPI  H13X21413   4.032   0.750   8.957  2.7851 -1.0582  0.7363
  186SAPI  H13Y21414   3.936   0.633   9.039 -0.0683  0.4757  0.0470
  186SAPI  C31421415   3.923   0.623   8.821 -0.7111 -0.3689 -0.4025
  186SAPI  H14X21416   3.829   0.681   8.826 -2.1985 -2.2759 -3.4801
  186SAPI  H14Y21417   3.914   0.513   8.812  3.4261 -0.9961  0.7724
  186SAPI  C31521418   3.998   0.667   8.688  0.3963  0.1800 -0.8393
  186SAPI  H15X21419   4.096   0.615   8.693  0.9999  1.3869  1.8997
  186SAPI  H15Y21420   4.026   0.774   8.696  1.4877 -0.2155  1.5015
  186SAPI  C31621421   3.922   0.626   8.569 -0.1764 -0.1735  0.3849
  186SAPI  H16X21422   3.821   0.671   8.568  0.5445  1.5665 -0.8394
  186SAPI  H16Y21423   3.907   0.517   8.581 -0.4465 -0.2210 -0.2921
  186SAPI  C31721424   3.989   0.652   8.427 -0.2941  0.4163  0.2274
  186SAPI  H17X21425   4.006   0.762   8.425 -0.2193  0.4020 -0.1887
  186SAPI  H17Y21426   3.913   0.624   8.351  2.4288 -0.6120 -2.3400
  186SAPI  C31821427   4.125   0.578   8.405  0.2379  0.5780 -0.3755
  186SAPI  H18X21428   4.115   0.467   8.401 -1.8654  0.5381  2.4559
  186SAPI  H18Y21429   4.194   0.597   8.490 -0.3577  0.7599  0.0682
  186SAPI  H18Z21430   4.161   0.622   8.309 -0.9342 -1.7322 -1.9732
  187SAPI   C1221431   0.464   3.064   6.168 -0.2003  0.1964 -0.0544
  187SAPI    H221432   0.397   3.139   6.120 -2.0905 -0.1861  1.8494
  187SAPI    O221433   0.389   2.949   6.210  0.7362 -0.3828  0.4059
  187SAPI   HO221434   0.329   2.990   6.273 -1.0619 -3.0012  0.5965
  187SAPI   C1321435   0.567   3.036   6.065 -0.0973  0.0495  0.0808
  187SAPI    H321436   0.614   3.133   6.040  1.1000 -0.6543 -0.4619
  187SAPI    O321437   0.504   3.000   5.941  0.2412  0.5850 -0.2192
  187SAPI   HO321438   0.573   3.014   5.875  0.7678  2.1738  0.6206
  187SAPI   C1421439   0.675   2.950   6.127 -0.1102  0.4445  0.6174
  187SAPI    H421440   0.638   2.850   6.157 -0.2993  0.1797 -0.4421
  187SAPI    O421441   0.784   2.925   6.034  0.3118 -0.5872 -0.5986
  187SAPI   HO421442   0.824   3.009   6.012 -3.2234  1.2649 -0.7701
  187SAPI   C1521443   0.734   3.013   6.249 -0.2680  0.5200 -0.3630
  187SAPI    H521444   0.766   3.115   6.218  0.1737  1.2138  2.1640
  187SAPI    O521445   0.860   2.952   6.295 -0.2967 -0.4783 -0.1406
  187SAPI   HO521446   0.926   2.979   6.230 -0.1355 -1.4464 -0.3891
  187SAPI   C1621447   0.624   3.041   6.359  0.4271 -0.8086 -0.3556
  187SAPI    H621448   0.588   2.938   6.382 -1.0104 -0.7665 -2.1570
  187SAPI    O621449   0.673   3.100   6.482  0.9668 -0.1226 -0.2177
  187SAPI   HO621450   0.655   3.194   6.489 -1.2738 -0.5719  0.9589
  187SAPI   C1121451   0.519   3.131   6.295  1.5049 -0.7272  0.1440
  187SAPI    H121452   0.575   3.220   6.257  1.1102 -0.6873 -0.3595
  187SAPI     P21453   0.358   3.333   6.368 -0.2496  0.3502 -0.4478
  187SAPI   O1321454   0.221   3.349   6.422  0.6308  0.6033 -0.2192
  187SAPI   O1421455   0.377   3.385   6.233  0.3858 -0.0865  0.1653
  187SAPI   O1221456   0.409   3.174   6.375 -0.0597  0.3530 -0.3571
  187SAPI   O1121457   0.467   3.398   6.457  0.0155 -0.2869  0.4534
  187SAPI    C121458   0.472   3.367   6.601  0.1727  0.2759 -0.3208
  187SAPI    HA21459   0.381   3.406   6.652  0.3296  2.8505 -1.8458
  187SAPI    HB21460   0.483   3.259   6.622  2.0574  0.8116  1.9073
  187SAPI    C221461   0.597   3.447   6.663 -0.0765 -0.7171  0.9658
  187SAPI    HS21462   0.608   3.535   6.596 -0.7640 -0.4759  1.1657
  187SAPI   O2121463   0.708   3.357   6.635  0.4462 -0.1786 -0.5149
  187SAPI   C2121464   0.827   3.409   6.650  0.1531 -0.7132  0.0632
  187SAPI   O2221465   0.855   3.526   6.678 -0.1769 -0.2919  0.0436
  187SAPI   C2221466   0.927   3.296   6.632 -0.1559  0.3269 -0.3894
  187SAPI   H2R21467   0.881   3.208   6.681  0.2331 -1.3752 -2.9021
  187SAPI   H2S21468   0.932   3.266   6.525 -1.6167 -0.4195 -0.2717
  187SAPI    C321469   0.580   3.496   6.811 -0.6430  0.2099 -0.1220
  187SAPI    HX21470   0.668   3.544   6.858  0.1248 -0.2185 -1.1048
  187SAPI    HY21471   0.574   3.404   6.874  0.1897  0.6228  0.5755
  187SAPI   O3121472   0.453   3.560   6.826  0.1833  0.2195 -0.7534
  187SAPI   C3121473   0.458   3.696   6.806 -0.1175  0.0845  0.4792
  187SAPI   O3221474   0.561   3.760   6.773  0.7151 -0.2566  0.0500
  187SAPI   C3221475   0.314   3.748   6.825 -0.8757 -0.0234  0.4005
  187SAPI   H2X21476   0.233   3.673   6.808 -2.0023  1.5896 -1.8880
  187SAPI   H2Y21477   0.312   3.812   6.734 -1.4551 -0.2334  0.2596
  187SAPI   C2321478   1.068   3.315   6.690 -0.5390  0.2905 -0.1041
  187SAPI   H3R21479   1.052   3.312   6.800 -1.5365  3.1128 -0.0911
  187SAPI   H3S21480   1.120   3.409   6.663  1.1235 -0.9405 -1.3439
  187SAPI   C2421481   1.156   3.189   6.664 -0.5156  0.4803  0.1593
  187SAPI   H4R21482   1.174   3.181   6.555 -0.9334 -3.1791  0.2357
  187SAPI   H4S21483   1.093   3.098   6.672  0.7531 -0.3765  0.8218
  187SAPI   C2521484   1.281   3.160   6.746  0.0045 -0.7650  0.7195
  187SAPI   H5R21485   1.366   3.229   6.739 -0.6787  0.3538  2.6314
  187SAPI   C2621486   1.304   3.057   6.832 -0.1971 -0.6697  0.3136
  187SAPI   H6R21487   1.397   3.060   6.891  0.0700  1.3351 -0.1388
  187SAPI   C2721488   1.210   2.951   6.872  0.0052 -0.0611 -0.2759
  187SAPI   H7R21489   1.274   2.875   6.921  1.1195  1.6433  1.0402
  187SAPI   H7S21490   1.168   2.892   6.787  0.3166 -1.3124  0.4134
  187SAPI   C2821491   1.095   2.993   6.964  0.7901  0.1122 -0.4684
  187SAPI   H8R21492   1.009   3.016   6.899  1.5603  1.4644 -1.0630
  187SAPI   C2921493   1.076   2.996   7.096  0.2518 -1.0442 -0.0262
  187SAPI   H9R21494   0.978   3.024   7.139  0.2805  1.0451 -1.1832
  187SAPI  C21021495   1.179   2.950   7.204  0.5113  0.3744 -0.0031
  187SAPI  H10R21496   1.264   3.021   7.211 -0.2645  1.2191  1.2160
  187SAPI  H10S21497   1.227   2.855   7.174  1.3008  0.5578  0.6111
  187SAPI  C21121498   1.101   2.941   7.334 -0.3023  0.4780 -0.0366
  187SAPI  H11R21499   1.081   2.838   7.369 -3.2190  0.3341 -1.7968
  187SAPI  C21221500   1.074   3.047   7.415  1.0315  0.7910  0.7607
  187SAPI  H12R21501   1.010   3.031   7.503  1.4651  1.5030  1.2216
  187SAPI  C21321502   1.112   3.187   7.388  0.1759 -0.4661  0.5120
  187SAPI  H13R21503   1.022   3.250   7.405 -0.4825  0.3086 -4.3486
  187SAPI  H13S21504   1.143   3.191   7.282  1.3740  0.6068  0.8926
  187SAPI  C21421505   1.235   3.234   7.456 -0.6786 -0.1411  0.2404
  187SAPI  H14R21506   1.261   3.181   7.549  0.6298 -3.4293 -1.8224
  187SAPI  C21521507   1.322   3.331   7.415 -0.3270 -0.6907  0.2676
  187SAPI  H15R21508   1.421   3.344   7.460  0.9762  0.7224 -2.7619
  187SAPI  C21621509   1.305   3.428   7.297  0.3097  0.2750  0.3480
  187SAPI  H16R21510   1.205   3.419   7.251  0.2199 -0.2345  0.6403
  187SAPI  H16S21511   1.380   3.420   7.216 -1.6890  0.2892 -1.5679
  187SAPI  C21721512   1.319   3.572   7.341  0.3768  0.3265 -0.1923
  187SAPI  H17R21513   1.297   3.630   7.249 -0.0907  0.3499 -0.0685
  187SAPI  H17S21514   1.426   3.596   7.362  0.4931 -2.1842  2.8738
  187SAPI  C21821515   1.227   3.624   7.461 -0.4510 -0.0791  0.0630
  187SAPI  H18R21516   1.241   3.552   7.544 -1.6865  0.9295  1.2041
  187SAPI  H18S21517   1.118   3.623   7.437 -0.6885  0.6677  1.0432
  187SAPI  C21921518   1.276   3.764   7.512 -0.1306  0.3126  0.5360
  187SAPI  H19R21519   1.384   3.750   7.534  0.3752  1.3540 -1.0763
  187SAPI  H19S21520   1.213   3.799   7.596 -1.9356  1.5884 -1.2361
  187SAPI  C22021521   1.265   3.863   7.400 -0.3457 -0.4928  0.5340
  187SAPI  H20R21522   1.160   3.863   7.364  0.3991 -0.5149 -1.8070
  187SAPI  H20S21523   1.332   3.841   7.315  0.7108  2.6830  0.3920
  187SAPI  H20T21524   1.284   3.964   7.443 -0.3817 -0.0977 -0.3510
  187SAPI   C3321525   0.302   3.833   6.953  0.6711  0.2985  0.9853
  187SAPI   H3X21526   0.212   3.895   6.935  0.4287 -0.2289  0.3414
  187SAPI   H3Y21527   0.393   3.893   6.974  0.6346  0.7001  0.0749
  187SAPI   C3421528   0.272   3.757   7.079 -0.1715  0.5718  0.2458
  187SAPI   H4X21529   0.190   3.690   7.049  0.2786  1.0991 -2.3927
  187SAPI   H4Y21530   0.238   3.827   7.158  0.8138  0.7971  0.4910
  187SAPI   C3521531   0.397   3.679   7.135 -0.5158 -0.2622  0.7807
  187SAPI   H5X21532   0.482   3.749   7.153  0.9878 -2.0375  0.9851
  187SAPI   H5Y21533   0.428   3.605   7.058 -1.1436  1.4767 -1.1993
  187SAPI   C3621534   0.367   3.616   7.269 -0.7946  0.0140  0.5993
  187SAPI   H6X21535   0.440   3.534   7.285 -2.6983 -2.0688 -0.7940
  187SAPI   H6Y21536   0.276   3.553   7.261 -0.9443  0.1384  1.2897
  187SAPI   C3721537   0.347   3.716   7.382 -0.9728  0.4370 -0.1535
  187SAPI   H7X21538   0.251   3.766   7.357 -1.8939 -1.4814 -0.6854
  187SAPI   H7Y21539   0.427   3.793   7.382 -0.9410  0.4736 -2.4525
  187SAPI   C3821540   0.361   3.653   7.518 -0.1170 -0.4342  0.0183
  187SAPI   H8X21541   0.448   3.584   7.522  0.0175 -0.2218  1.5028
  187SAPI   H8Y21542   0.270   3.595   7.544  0.0906 -0.2490  1.2151
  187SAPI   C3921543   0.365   3.770   7.623 -0.0115  0.0687 -0.7513
  187SAPI   H9X21544   0.274   3.830   7.603  0.5537  1.0441 -0.4532
  187SAPI   H9Y21545   0.442   3.847   7.600 -0.4992  0.4775 -1.0450
  187SAPI  C31021546   0.374   3.741   7.777  0.6377  0.1063  0.8467
  187SAPI  H10X21547   0.303   3.658   7.799  0.0343  0.5069  0.4606
  187SAPI  H10Y21548   0.344   3.832   7.833 -0.7886  1.2971 -1.6826
  187SAPI  C31121549   0.504   3.672   7.818  0.4606 -0.9249 -0.1961
  187SAPI  H11X21550   0.582   3.750   7.801  2.2935 -2.4874  0.6562
  187SAPI  H11Y21551   0.520   3.587   7.748  0.2109 -0.8536 -0.3401
  187SAPI  C31221552   0.494   3.622   7.960  0.1805 -0.6802  0.2680
  187SAPI  H12X21553   0.405   3.559   7.981  0.3069 -1.2864 -0.9436
  187SAPI  H12Y21554   0.476   3.714   8.020 -2.1113  0.1909 -1.6117
  187SAPI  C31321555   0.629   3.568   8.007 -0.6584 -0.5450  0.1812
  187SAPI  H13X21556   0.705   3.646   7.983 -0.7274 -0.8197 -1.0083
  187SAPI  H13Y21557   0.648   3.467   7.964  0.1248  0.0266 -0.8849
  187SAPI  C31421558   0.633   3.540   8.157  0.2563 -0.0028 -0.1085
  187SAPI  H14X21559   0.548   3.477   8.189  0.1329  1.4979  2.7438
  187SAPI  H14Y21560   0.618   3.643   8.196 -0.3617  0.0719 -0.5280
  187SAPI  C31521561   0.771   3.487   8.211 -0.6543  0.6944 -0.3102
  187SAPI  H15X21562   0.847   3.557   8.171 -0.5096  0.3955 -0.5590
  187SAPI  H15Y21563   0.787   3.387   8.167 -0.5969 -0.2270  1.6890
  187SAPI  C31621564   0.771   3.475   8.363 -0.3179 -0.3047 -0.0267
  187SAPI  H16X21565   0.704   3.388   8.381  0.9937 -1.9680 -2.5912
  187SAPI  H16Y21566   0.732   3.555   8.428 -0.2755 -2.5244  2.9758
  187SAPI  C31721567   0.911   3.440   8.422  0.0705 -0.0280 -0.1250
  187SAPI  H17X21568   0.978   3.526   8.399 -0.6445  0.2809 -1.1114
  187SAPI  H17Y21569   0.949   3.348   8.374  1.4464  0.5281 -0.1747
  187SAPI  C31821570   0.920   3.413   8.573  0.4794  0.3284  0.8514
  187SAPI  H18X21571   0.884   3.503   8.627 -1.2602  0.6476 -0.7376
  187SAPI  H18Y21572   1.025   3.383   8.591  0.6341 -0.7616 -1.5010
  187SAPI  H18Z21573   0.845   3.336   8.604  0.2116  0.1713 -0.1520
  188SAPI   C1221574   3.994   6.718   6.151  0.4856  0.1625  1.0269
  188SAPI    H221575   4.090   6.692   6.202  0.3213 -3.0958 -0.1329
  188SAPI    O221576   3.936   6.832   6.210 -0.2753 -0.1974  0.0297
  188SAPI   HO221577   3.900   6.798   6.292 -0.3649 -0.4217 -0.1000
  188SAPI   C1321578   4.031   6.748   6.006  0.1244 -0.4556  0.2715
  188SAPI    H321579   4.075   6.650   5.976 -1.7619 -1.0325 -0.7325
  188SAPI    O321580   4.122   6.861   6.000 -0.3952  0.0379  0.2978
  188SAPI   HO321581   4.204   6.846   5.952 -0.3460  1.4466 -0.1048
  188SAPI   C1421582   3.908   6.777   5.920  0.4577  0.3014  0.4791
  188SAPI    H421583   3.857   6.867   5.960  0.8106  0.2901  0.9627
  188SAPI    O421584   3.943   6.795   5.782  0.0250 -0.0113  0.2460
  188SAPI   HO421585   3.963   6.886   5.759 -1.5338  0.3434  0.1363
  188SAPI   C1521586   3.808   6.658   5.934 -0.0135 -0.3120  0.1163
  188SAPI    H521587   3.858   6.571   5.886  1.2971  1.0141 -1.0259
  188SAPI    O521588   3.693   6.687   5.861  0.6303 -0.4652  0.4451
  188SAPI   HO521589   3.639   6.757   5.898  0.7978  0.4047 -0.9079
  188SAPI   C1621590   3.770   6.624   6.077 -1.3369  0.3650  0.3137
  188SAPI    H621591   3.727   6.715   6.122 -0.9396  0.4721  0.4837
  188SAPI    O621592   3.679   6.516   6.085  0.0566 -0.4858  0.7793
  188SAPI   HO621593   3.610   6.548   6.144  0.5510  2.3908 -0.0534
  188SAPI   C1121594   3.902   6.593   6.155 -0.6577 -0.4840  0.0995
  188SAPI    H121595   3.964   6.515   6.106  1.7216  0.9146  0.6994
  188SAPI     P21596   3.984   6.464   6.370 -0.5232  0.3911 -0.0236
  188SAPI   O1321597   4.100   6.427   6.283  0.3227 -0.2503  0.5915
  188SAPI   O1421598   3.926   6.355   6.446 -0.5282  0.1473 -0.0702
  188SAPI   O1221599   3.872   6.548   6.286  0.6141 -0.7114 -0.2519
  188SAPI   O1121600   4.036   6.565   6.477  0.8230 -0.1609  0.1538
  188SAPI    C121601   3.948   6.648   6.540 -0.1335  0.1709 -0.5590
  188SAPI    HA21602   3.925   6.734   6.473 -1.2446  1.0014  0.8529
  188SAPI    HB21603   3.851   6.602   6.566 -0.4365  1.3926  0.5771
  188SAPI    C221604   4.013   6.708   6.668  0.5096 -0.5067 -0.0959
  188SAPI    HS21605   4.119   6.721   6.638  0.1952 -1.5275 -1.7918
  188SAPI   O2121606   3.991   6.617   6.777 -0.3282 -0.4281  0.3952
  188SAPI   C2121607   4.091   6.606   6.851 -0.9045 -0.1853  0.7275
  188SAPI   O2221608   4.208   6.636   6.820 -0.1574  0.1759  0.1483
  188SAPI   C2221609   4.065   6.521   6.974  1.2613 -0.2408 -0.1195
  188SAPI   H2R21610   3.992   6.446   6.938 -2.7080  2.7962  0.9001
  188SAPI   H2S21611   4.160   6.479   7.015  1.0203 -0.9028 -0.2442
  188SAPI    C321612   3.963   6.846   6.707 -0.1010 -0.2276 -0.0299
  188SAPI    HX21613   3.855   6.840   6.735 -0.2810 -0.5299 -0.7571
  188SAPI    HY21614   3.973   6.916   6.621  0.6130  2.3839  2.0291
  188SAPI   O3121615   4.023   6.904   6.827 -0.8023  0.3976  0.2646
  188SAPI   C3121616   4.143   6.953   6.801 -0.5740  0.0702 -0.3207
  188SAPI   O3221617   4.193   6.955   6.689  0.0553  0.1594  0.1231
  188SAPI   C3221618   4.216   7.004   6.927  0.0042 -0.1679  0.1225
  188SAPI   H2X21619   4.309   6.942   6.925  0.0902 -0.0569 -2.3543
  188SAPI   H2Y21620   4.154   6.988   7.017 -1.0089  0.6432 -0.4148
  188SAPI   C2321621   3.997   6.595   7.098  0.2631 -0.6183  0.1391
  188SAPI   H3R21622   3.988   6.526   7.184 -4.0532 -0.3450  0.0772
  188SAPI   H3S21623   3.896   6.633   7.074  0.4875 -1.6046 -2.7163
  188SAPI   C2421624   4.081   6.723   7.141  0.7186  0.6185 -0.1102
  188SAPI   H4R21625   4.018   6.797   7.195 -0.9036  0.2587 -1.4352
  188SAPI   H4S21626   4.136   6.772   7.057 -0.9488  0.1677 -1.5289
  188SAPI   C2521627   4.190   6.677   7.223  0.0016 -0.4837  0.3351
  188SAPI   H5R21628   4.286   6.684   7.172 -0.4625  0.6531 -0.4102
  188SAPI   C2621629   4.187   6.658   7.360 -0.1811  0.2526  0.6063
  188SAPI   H6R21630   4.278   6.633   7.416 -1.1242  1.9831  3.0983
  188SAPI   C2721631   4.063   6.666   7.453 -0.5097 -0.0421  0.7535
  188SAPI   H7R21632   4.059   6.571   7.510 -0.8483 -0.8171 -0.5360
  188SAPI   H7S21633   3.969   6.666   7.395 -0.1553 -1.4649  0.1457
  188SAPI   C2821634   4.048   6.783   7.534 -0.0494 -0.9669 -1.1157
  188SAPI   H8R21635   3.977   6.860   7.501 -1.0871 -0.8343  1.1861
  188SAPI   C2921636   4.093   6.801   7.661 -0.6576  0.4408  0.3836
  188SAPI   H9R21637   4.065   6.898   7.704  0.2682  1.1677 -0.6023
  188SAPI  C21021638   4.174   6.703   7.750 -0.1946 -0.3544 -0.1079
  188SAPI  H10R21639   4.280   6.734   7.767  0.0551  0.6667 -2.9584
  188SAPI  H10S21640   4.188   6.609   7.693  0.1049 -0.9681  0.9448
  188SAPI  C21121641   4.091   6.665   7.869 -0.2481 -0.2235  0.3573
  188SAPI  H11R21642   3.983   6.684   7.866  0.0452  2.5651  2.7490
  188SAPI  C21221643   4.144   6.638   7.988  0.3480  0.0906  0.7448
  188SAPI  H12R21644   4.075   6.613   8.069 -1.5837  1.7267 -0.3011
  188SAPI  C21321645   4.294   6.626   8.013 -0.5227  0.1119  0.4886
  188SAPI  H13R21646   4.365   6.636   7.928  0.5888  1.2684  1.5204
  188SAPI  H13S21647   4.301   6.519   8.044 -0.7032  0.1248  0.5759
  188SAPI  C21421648   4.322   6.722   8.125  0.1635 -0.5182 -1.0423
  188SAPI  H14R21649   4.319   6.826   8.088 -2.7769 -0.1006  0.0899
  188SAPI  C21521650   4.328   6.694   8.254 -0.3605  0.1179  0.0509
  188SAPI  H15R21651   4.338   6.776   8.327 -0.6055  0.6252 -0.4719
  188SAPI  C21621652   4.326   6.556   8.311  0.2436  0.0783 -0.3725
  188SAPI  H16R21653   4.275   6.481   8.246 -0.4067 -1.3483  1.6597
  188SAPI  H16S21654   4.281   6.536   8.411  1.6958  1.5548  0.6239
  188SAPI  C21721655   4.477   6.513   8.330  0.4777  0.0005 -0.1246
  188SAPI  H17R21656   4.543   6.582   8.386  0.3015 -0.0497  0.1475
  188SAPI  H17S21657   4.522   6.488   8.232  2.5207  5.3911 -0.8995
  188SAPI  C21821658   4.490   6.373   8.401  0.6561  0.1772  0.3748
  188SAPI  H18R21659   4.411   6.307   8.358 -0.6683  0.9974  1.4590
  188SAPI  H18S21660   4.469   6.396   8.508  1.8580 -0.2038  0.7143
  188SAPI  C21921661   4.620   6.295   8.399 -0.4329  0.2768  0.1028
  188SAPI  H19R21662   4.706   6.366   8.400 -0.3176  0.1829 -1.2258
  188SAPI  H19S21663   4.617   6.244   8.300  0.1750  1.6676 -0.6729
  188SAPI  C22021664   4.621   6.205   8.518  0.2375  0.2363  0.2494
  188SAPI  H20R21665   4.519   6.162   8.522  0.2493  0.0748 -0.8177
  188SAPI  H20S21666   4.646   6.257   8.613 -0.4951  2.2254 -0.5727
  188SAPI  H20T21667   4.697   6.125   8.513 -1.4214 -1.5086  1.5251
  188SAPI   C3321668   4.243   7.158   6.932  0.3795 -0.0190  0.6077
  188SAPI   H3X21669   4.158   7.205   6.877  0.1888 -0.8016  0.2124
  188SAPI   H3Y21670   4.329   7.188   6.869  0.7760 -1.5483  0.3782
  188SAPI   C3421671   4.257   7.201   7.081 -0.3076  0.0152  0.0713
  188SAPI   H4X21672   4.166   7.177   7.140 -1.9522  2.5550 -1.2212
  188SAPI   H4Y21673   4.262   7.311   7.070  1.7734 -0.2425 -2.7680
  188SAPI   C3521674   4.386   7.157   7.150  0.3673  0.9800 -0.3670
  188SAPI   H5X21675   4.471   7.201   7.094  0.9688 -1.6633 -1.6623
  188SAPI   H5Y21676   4.410   7.050   7.131  2.5597  1.4411 -0.4092
  188SAPI   C3621677   4.380   7.187   7.298  0.4349  0.5750  0.5314
  188SAPI   H6X21678   4.289   7.132   7.329  1.4827 -0.2523  2.2926
  188SAPI   H6Y21679   4.372   7.297   7.311  0.8448  0.7590 -0.6782
  188SAPI   C3721680   4.487   7.122   7.388  0.3645 -0.6586 -0.0439
  188SAPI   H7X21681   4.590   7.125   7.347 -0.8092 -0.1469 -3.1984
  188SAPI   H7Y21682   4.460   7.016   7.408  0.7176 -0.6102  0.7337
  188SAPI   C3821683   4.475   7.194   7.524 -0.1316  0.3124 -0.4946
  188SAPI   H8X21684   4.367   7.209   7.542 -0.1789 -0.4977 -0.0563
  188SAPI   H8Y21685   4.519   7.292   7.497  0.3153 -0.3173 -2.1927
  188SAPI   C3921686   4.529   7.112   7.639 -0.3257 -0.3010 -0.2758
  188SAPI   H9X21687   4.638   7.101   7.623 -0.7258 -1.0866 -2.9478
  188SAPI   H9Y21688   4.486   7.009   7.638 -0.1564 -0.4261  1.5557
  188SAPI  C31021689   4.487   7.161   7.777  0.5243 -0.5788 -0.1323
  188SAPI  H10X21690   4.380   7.133   7.792  0.0817  1.2567  0.4040
  188SAPI  H10Y21691   4.499   7.271   7.783 -2.9963 -0.0704 -0.2845
  188SAPI  C31121692   4.563   7.093   7.887 -0.4331 -0.2258 -0.0855
  188SAPI  H11X21693   4.674   7.103   7.895  0.2236 -4.4940 -1.4685
  188SAPI  H11Y21694   4.546   6.985   7.872 -1.7443 -0.2312  1.2081
  188SAPI  C31221695   4.509   7.124   8.023 -0.3653  0.5921  0.1383
  188SAPI  H12X21696   4.402   7.094   8.026 -0.2199  0.1088  0.7958
  188SAPI  H12Y21697   4.517   7.234   8.038  0.9701  0.4503  0.6169
  188SAPI  C31321698   4.575   7.045   8.141  0.3965  0.0315 -0.2028
  188SAPI  H13X21699   4.686   7.057   8.147  0.4722 -0.4046 -0.7008
  188SAPI  H13Y21700   4.547   6.942   8.111 -0.0864  0.5603 -1.6322
  188SAPI  C31421701   4.500   7.061   8.274 -0.0779 -0.0499 -0.4631
  188SAPI  H14X21702   4.536   6.984   8.347  0.2752  0.9513  0.4403
  188SAPI  H14Y21703   4.392   7.053   8.250 -0.4362 -0.3640  1.1250
  188SAPI  C31521704   4.519   7.202   8.347  0.0291 -0.4292  0.3071
  188SAPI  H15X21705   4.502   7.184   8.455 -0.0044  0.7426  0.5153
  188SAPI  H15Y21706   4.447   7.281   8.318 -2.1945 -1.7173  2.0793
  188SAPI  C31621707   4.664   7.254   8.330 -0.3036 -0.0109  0.5559
  188SAPI  H16X21708   4.706   7.261   8.227  0.6703 -0.6193  0.8923
  188SAPI  H16Y21709   4.732   7.188   8.389  0.0666  0.7659  1.0159
  188SAPI  C31721710   4.673   7.391   8.391 -0.1331 -0.2267 -0.5227
  188SAPI  H17X21711   4.600   7.457   8.339  0.9168 -0.0018 -1.7714
  188SAPI  H17Y21712   4.773   7.437   8.377 -0.0505  0.0157  0.7301
  188SAPI  C31821713   4.661   7.402   8.540  0.1955 -0.0207 -0.0502
  188SAPI  H18X21714   4.735   7.336   8.592 -0.3841 -2.8504 -2.5119
  188SAPI  H18Y21715   4.560   7.374   8.575  0.4091  0.4283  0.9639
  188SAPI  H18Z21716   4.679   7.509   8.561  0.6670  0.5227 -2.8714
  189POPC     N21717   1.880   6.709  11.258 -0.1348 -1.1105 -0.2571
  189POPC   C1221718   1.928   6.673  11.115  0.1636 -0.1013 -0.3773
  189POPC  H12A21719   2.026   6.714  11.093  1.1569 -2.1387  0.0050
  189POPC  H12B21720   1.850   6.712  11.052 -0.5734  0.4197  0.8137
  189POPC   C1321721   1.961   6.639  11.361 -0.0076  0.5709 -0.1400
  189POPC  H13A21722   1.915   6.636  11.459 -1.2909 -3.7434 -0.6776
  189POPC  H13B21723   1.981   6.540  11.324 -0.8845  0.1581  0.4753
  189POPC  H13C21724   2.056   6.691  11.369  0.6527 -0.7083  0.9088
  189POPC   C1421725   1.898   6.853  11.294 -0.1823 -0.0922 -0.7412
  189POPC  H14A21726   2.000   6.890  11.299 -0.0300 -0.5996  0.2882
  189POPC  H14B21727   1.860   6.925  11.224  0.8837  0.5300 -0.6973
  189POPC  H14C21728   1.845   6.877  11.385 -1.2848  3.3880 -2.1329
  189POPC   C1521729   1.738   6.671  11.275  0.3818 -0.0178  0.0178
  189POPC  H15A21730   1.675   6.750  11.237  1.4395  0.4357 -0.8348
  189POPC  H15B21731   1.711   6.659  11.379  0.4964  1.8388  0.2951
  189POPC  H15C21732   1.716   6.585  11.212  3.4079 -0.6983 -0.2646
  189POPC   C1121733   1.950   6.521  11.069  0.1778 -0.1018  1.1931
  189POPC  H11A21734   2.009   6.464  11.143 -1.9884 -2.6739  1.1037
  189POPC  H11B21735   2.000   6.515  10.970 -3.1864  1.2659 -0.7777
  189POPC     P21736   1.720   6.494  10.951  0.1214  0.5894 -0.5443
  189POPC   O1321737   1.715   6.640  10.929 -0.4954  0.1237 -0.4330
  189POPC   O1421738   1.596   6.430  10.993 -0.2580 -0.3750  0.7507
  189POPC   O1221739   1.822   6.459  11.070  0.5954 -0.3117 -0.1659
  189POPC   O1121740   1.787   6.420  10.830  0.1366 -0.0745  0.2506
  189POPC    C121741   1.867   6.306  10.833  0.2649 -0.0294 -0.2724
  189POPC    HA21742   1.855   6.244  10.924 -0.3387 -0.5061 -0.6686
  189POPC    HB21743   1.975   6.332  10.828  0.3876 -0.4159  0.3148
  189POPC    C221744   1.830   6.213  10.707 -0.0061  0.7146  0.3512
  189POPC    HS21745   1.896   6.124  10.709 -0.7373  0.0535 -1.9847
  189POPC   O2121746   1.864   6.284  10.585 -0.1821 -0.3197 -0.0674
  189POPC   C2121747   1.993   6.304  10.560 -0.3086 -0.0619 -0.3943
  189POPC   O2221748   2.087   6.260  10.625 -0.8740 -0.1754 -0.3653
  189POPC   C2221749   2.019   6.403  10.447 -0.6155  0.4269 -0.0464
  189POPC   H2R21750   2.057   6.494  10.499 -0.7160 -1.2421  3.1828
  189POPC   H2S21751   1.916   6.426  10.412 -0.2260  1.8026 -0.3811
  189POPC    C321752   1.680   6.183  10.714  0.2828 -1.0354 -1.0809
  189POPC    HX21753   1.632   6.283  10.710  2.4112  0.1595  1.1219
  189POPC    HY21754   1.653   6.141  10.813  2.3868 -0.0325 -0.0365
  189POPC   O3121755   1.641   6.088  10.616  0.3110  0.0937 -0.4723
  189POPC   C3121756   1.583   6.142  10.505 -0.8509 -0.4132 -0.3411
  189POPC   O3221757   1.542   6.253  10.492 -0.5307 -0.2791 -0.4402
  189POPC   C3221758   1.583   6.043  10.397  0.1237  0.3037  0.1213
  189POPC   H2X21759   1.486   5.989  10.408  0.7260 -0.6776  0.8381
  189POPC   H2Y21760   1.667   5.972  10.413 -0.8141 -0.6762  0.8116
  189POPC   C2321761   2.113   6.367  10.330  0.1615  0.6208  0.7594
  189POPC   H3R21762   2.183   6.286  10.359  1.1239  0.5611 -1.5101
  189POPC   H3S21763   2.178   6.453  10.304 -2.4164  2.3547 -0.4444
  189POPC   C2421764   2.033   6.361  10.192 -0.6996  0.3494  0.3233
  189POPC   H4R21765   2.018   6.470  10.172  1.0187  0.7993  1.2397
  189POPC   H4S21766   1.937   6.307  10.208 -1.3725  1.4633  0.1509
  189POPC   C2521767   2.103   6.298  10.069  0.1735 -0.1533 -1.2045
  189POPC   H5R21768   2.146   6.198  10.093  1.1649  0.5895  0.2707
  189POPC   H5S21769   2.195   6.356  10.045  0.8109  0.1130  1.5463
  189POPC   C2621770   2.004   6.288   9.955  0.5054 -0.2551 -0.9740
  189POPC   H6R21771   1.986   6.386   9.906 -0.6009 -1.9796 -4.3261
  189POPC   H6S21772   1.915   6.228   9.981  1.6616 -1.0787  1.3075
  189POPC   C2721773   2.067   6.211   9.840 -0.3719 -0.5244  0.2389
  189POPC   H7R21774   2.045   6.102   9.836  1.2527 -0.8430 -1.0590
  189POPC   H7S21775   2.176   6.228   9.851 -0.4962  0.6727 -0.2491
  189POPC   C2821776   2.026   6.254   9.696  0.7032 -0.6520  0.2035
  189POPC   H8R21777   2.072   6.181   9.626  4.2300  3.6007 -2.4682
  189POPC   H8S21778   2.080   6.348   9.671  0.8884 -0.6539  0.5854
  189POPC   C2921779   1.875   6.275   9.685 -0.0839 -1.0875  0.2230
  189POPC   H9121780   1.834   6.338   9.766 -0.5694 -1.6643  0.4361
  189POPC  C21021781   1.789   6.232   9.595  0.0861 -0.0141 -0.0609
  189POPC  H10121782   1.691   6.282   9.604  0.1680  0.2537 -0.6577
  189POPC  C21121783   1.815   6.133   9.482 -0.2579 -0.1781  0.2900
  189POPC  H11R21784   1.720   6.082   9.453 -1.5529  2.6206 -0.7034
  189POPC  H11S21785   1.894   6.056   9.495  0.9128  1.1115  1.1104
  189POPC  C21221786   1.843   6.207   9.350  0.3738 -0.5721  0.2971
  189POPC  H12R21787   1.936   6.264   9.367 -0.2087  0.7657 -0.7880
  189POPC  H12S21788   1.767   6.287   9.341  2.5716  1.7312  1.1239
  189POPC  C21321789   1.870   6.129   9.220 -0.4575  0.6503 -0.3719
  189POPC  H13R21790   1.776   6.096   9.169 -0.7419  1.9402 -0.7353
  189POPC  H13S21791   1.915   6.034   9.255 -0.7860  1.1617  1.5084
  189POPC  C21421792   1.960   6.206   9.134 -0.0518 -0.2387  0.0438
  189POPC  H14R21793   2.043   6.259   9.185  0.9418  1.0851 -2.7472
  189POPC  H14S21794   1.890   6.286   9.101 -0.0053  0.4536  1.5251
  189POPC  C21521795   2.018   6.134   9.007  0.8646 -0.4398  0.1063
  189POPC  H15R21796   2.051   6.029   9.022 -0.2799 -0.9063 -0.4608
  189POPC  H15S21797   2.113   6.183   8.975  0.1125 -0.8128 -3.0152
  189POPC  C21621798   1.919   6.149   8.893 -1.0213 -0.1437  0.2716
  189POPC  H16R21799   1.903   6.257   8.873 -1.0071 -0.3983 -1.2462
  189POPC  H16S21800   1.818   6.106   8.911 -2.1457  0.7430 -3.0939
  189POPC  C21721801   1.970   6.077   8.764  0.0259 -0.0473  0.3150
  189POPC  H17R21802   2.005   5.974   8.785  1.5229  0.0907 -1.2366
  189POPC  H17S21803   2.059   6.136   8.733 -0.2707  1.0134  1.4108
  189POPC  C21821804   1.872   6.076   8.650  0.2532  1.1349  1.0912
  189POPC  H18R21805   1.874   6.181   8.614  4.3464  0.2822 -1.8648
  189POPC  H18S21806   1.771   6.046   8.686  0.0067  0.7087  0.0915
  189POPC  H18T21807   1.921   6.016   8.570  0.3597  2.0671  0.4417
  189POPC   C3321808   1.611   6.104  10.255 -1.0828 -0.7049 -0.0698
  189POPC   H3X21809   1.699   6.171  10.272  0.1859 -2.4253  0.3730
  189POPC   H3Y21810   1.523   6.162  10.220 -0.0204 -0.7413 -3.1327
  189POPC   C3421811   1.663   6.016  10.142 -0.0310 -0.1643 -0.0066
  189POPC   H4X21812   1.612   5.917  10.136 -0.6927  0.2184 -0.8311
  189POPC   H4Y21813   1.769   5.990  10.159 -0.0959 -2.3460 -2.3729
  189POPC   C3521814   1.656   6.086  10.008 -0.3777  0.5487 -0.1132
  189POPC   H5X21815   1.753   6.064   9.959  0.5078  1.0453  1.3571
  189POPC   H5Y21816   1.667   6.194  10.029  0.3530  0.4429  0.0724
  189POPC   C3621817   1.532   6.054   9.929 -0.1497  0.3870  0.4918
  189POPC   H6X21818   1.450   6.118   9.968  1.1064  0.6042  2.9315
  189POPC   H6Y21819   1.506   5.946   9.939 -0.2508  0.4995  1.5177
  189POPC   C3721820   1.559   6.078   9.780 -0.8319 -0.3407 -0.7106
  189POPC   H7X21821   1.643   6.019   9.738  0.0659 -0.6543  1.4273
  189POPC   H7Y21822   1.588   6.185   9.770 -2.4568  0.1647 -0.3581
  189POPC   C3821823   1.436   6.049   9.691  0.8915 -0.5632 -0.1128
  189POPC   H8X21824   1.367   6.136   9.693 -0.0349 -1.3029  0.9110
  189POPC   H8Y21825   1.381   5.960   9.727  0.3252  0.1046  0.6957
  189POPC   C3921826   1.469   6.033   9.544  0.1422 -0.1810 -0.3447
  189POPC   H9X21827   1.533   5.948   9.510  1.4175  0.0945  1.2304
  189POPC   H9Y21828   1.518   6.123   9.502 -0.6344 -0.5604 -2.1708
  189POPC  C31021829   1.348   6.029   9.447  0.2121  0.1651 -0.2249
  189POPC  H10X21830   1.276   6.111   9.464 -1.2143 -0.4858 -2.6020
  189POPC  H10Y21831   1.294   5.933   9.462 -1.5081  0.7819 -2.0983
  189POPC  C31121832   1.396   6.041   9.303 -0.2924  0.1992 -0.5815
  189POPC  H11X21833   1.476   5.965   9.293 -0.6506 -0.2133 -0.3531
  189POPC  H11Y21834   1.450   6.136   9.281  1.7215 -0.9927 -0.9584
  189POPC  C31221835   1.282   6.012   9.203  0.0065  0.0798  0.1220
  189POPC  H12X21836   1.206   6.088   9.232  0.7171  2.5347 -3.7662
  189POPC  H12Y21837   1.246   5.909   9.222  0.2757  0.1005  0.7962
  189POPC  C31321838   1.318   6.035   9.057  0.3783 -1.2467  0.2417
  189POPC  H13X21839   1.350   6.142   9.056  2.5861 -1.8657  0.1919
  189POPC  H13Y21840   1.237   6.024   8.981 -0.2273 -0.0495  0.6895
  189POPC  C31421841   1.434   5.948   9.000  0.5652 -0.1029 -0.2452
  189POPC  H14X21842   1.397   5.844   8.997 -1.1588  0.4891 -0.6574
  189POPC  H14Y21843   1.516   5.961   9.074 -0.0416  1.1565  0.2363
  189POPC  C31521844   1.484   5.987   8.865  0.3119 -0.5092  0.2587
  189POPC  H15X21845   1.588   5.947   8.867 -0.2154 -1.9264  0.2558
  189POPC  H15Y21846   1.477   6.098   8.858 -0.5994 -0.6282 -4.1938
  189POPC  C31621847   1.411   5.916   8.754  0.3429 -0.4235 -0.9350
  189POPC  H16X21848   1.413   5.805   8.762 -0.4986 -0.4790 -1.3331
  189POPC  H16Y21849   1.471   5.946   8.665  0.9862 -1.6957 -0.9534
  189POPC  H16Z21850   1.307   5.956   8.748 -0.2835 -1.8866 -0.3872
  190POPC     N21851   4.077   2.229  10.785 -0.7310  0.1908  0.2393
  190POPC   C1221852   3.945   2.302  10.814 -0.0023 -0.1203  0.7921
  190POPC  H12A21853   3.944   2.409  10.801  0.1828 -0.2213 -0.1131
  190POPC  H12B21854   3.928   2.286  10.920 -1.5078 -4.5086  0.0937
  190POPC   C1321855   4.189   2.293  10.860  0.1100  0.2837 -0.0817
  190POPC  H13A21856   4.274   2.227  10.864  1.0198  1.4339  0.3983
  190POPC  H13B21857   4.218   2.385  10.811  0.3686  0.2262 -0.0346
  190POPC  H13C21858   4.165   2.312  10.964 -0.6651 -0.5727 -0.0914
  190POPC   C1421859   4.061   2.086  10.849 -0.2153 -0.0641 -0.4658
  190POPC  H14A21860   3.978   2.040  10.797 -0.4948 -0.7906  0.5963
  190POPC  H14B21861   4.142   2.017  10.834  0.4699 -0.5983  4.0987
  190POPC  H14C21862   4.043   2.092  10.956 -0.1416 -0.9763 -0.3953
  190POPC   C1521863   4.092   2.226  10.639 -0.1833 -0.0680  0.3056
  190POPC  H15A21864   4.088   2.323  10.591 -0.5021 -0.2381 -0.0112
  190POPC  H15B21865   4.029   2.160  10.582 -0.2434  1.5465 -1.6028
  190POPC  H15C21866   4.190   2.193  10.609 -0.7554 -0.1086 -1.6475
  190POPC   C1121867   3.819   2.256  10.734  0.4504 -0.4424 -0.1644
  190POPC  H11A21868   3.836   2.263  10.625  1.4451  0.3955  0.0266
  190POPC  H11B21869   3.740   2.330  10.758  1.4578 -0.0810  2.3623
  190POPC     P21870   3.621   2.090  10.793 -0.0917  0.5199  0.1316
  190POPC   O1321871   3.546   2.201  10.855  0.3525  0.0091 -0.7154
  190POPC   O1421872   3.607   1.967  10.868 -0.3240  0.2806 -0.5794
  190POPC   O1221873   3.776   2.120  10.778 -0.6452  0.2358 -0.2978
  190POPC   O1121874   3.576   2.070  10.637  0.5477 -0.3625 -0.1385
  190POPC    C121875   3.552   1.939  10.593  0.2275  0.3598 -0.2709
  190POPC    HA21876   3.468   1.896  10.651  0.0038 -0.2826 -1.0386
  190POPC    HB21877   3.653   1.891  10.598  0.7810  1.2349 -2.2089
  190POPC    C221878   3.507   1.932  10.446  0.1194 -0.5588 -0.4049
  190POPC    HS21879   3.502   1.826  10.413 -1.3416 -0.5609 -0.2645
  190POPC   O2121880   3.592   2.021  10.360 -0.0562 -1.3752 -0.5974
  190POPC   C2121881   3.692   1.951  10.310  0.0986  0.9007  0.5939
  190POPC   O2221882   3.708   1.824  10.312  0.7850  0.1946 -0.2280
  190POPC   C2221883   3.792   2.051  10.238 -0.8561  0.5043  0.0887
  190POPC   H2R21884   3.898   2.032  10.267 -0.3585  2.2945 -0.3962
  190POPC   H2S21885   3.773   2.146  10.292 -1.4023  0.0207  0.7592
  190POPC    C321886   3.362   1.978  10.431  0.1985 -0.0256  0.5294
  190POPC    HX21887   3.358   2.083  10.469  1.4012  0.9620 -1.8669
  190POPC    HY21888   3.303   1.904  10.489  0.4328 -0.0107  0.7923
  190POPC   O3121889   3.304   1.970  10.300 -0.3776  0.0869  0.5316
  190POPC   C3121890   3.330   2.067  10.210  0.1917 -0.0196 -0.1259
  190POPC   O3221891   3.376   2.181  10.235  0.9248  0.5599  0.1108
  190POPC   C3221892   3.286   2.030  10.074  0.4114  0.0837  0.1503
  190POPC   H2X21893   3.175   2.026  10.067  0.3837 -2.2901  0.9688
  190POPC   H2Y21894   3.334   1.932  10.055  1.4492  0.8666 -1.4628
  190POPC   C2321895   3.782   2.059  10.083  0.1171 -0.7828  0.7075
  190POPC   H3R21896   3.853   2.132  10.038 -0.2071 -0.2154  1.1130
  190POPC   H3S21897   3.687   2.108  10.055 -0.2301 -0.9773  1.5441
  190POPC   C2421898   3.799   1.922  10.014 -0.4877  0.0922  0.0002
  190POPC   H4R21899   3.719   1.852  10.046 -2.3051  0.9139 -2.4584
  190POPC   H4S21900   3.894   1.870  10.040 -1.5802 -1.6232  0.7601
  190POPC   C2521901   3.793   1.931   9.858  0.4858 -0.8752 -0.5853
  190POPC   H5R21902   3.880   1.995   9.836 -0.6852  1.5499  1.3554
  190POPC   H5S21903   3.700   1.984   9.829  0.0403 -0.6540  1.1165
  190POPC   C2621904   3.818   1.798   9.794 -0.5383  0.0757 -0.0292
  190POPC   H6R21905   3.733   1.738   9.832 -2.4476  3.2668  1.1731
  190POPC   H6S21906   3.912   1.741   9.810 -1.2657 -2.2119 -3.0647
  190POPC   C2721907   3.818   1.813   9.640  0.1163  0.6887 -0.1917
  190POPC   H7R21908   3.742   1.889   9.611 -1.5371 -1.1300 -0.9619
  190POPC   H7S21909   3.781   1.716   9.600  0.0067  1.5020 -2.1688
  190POPC   C2821910   3.961   1.843   9.584 -0.2901  0.1220 -0.6179
  190POPC   H8R21911   4.026   1.752   9.591 -0.4155  0.0908  0.2472
  190POPC   H8S21912   4.010   1.927   9.636 -1.6550  0.3823  0.3069
  190POPC   C2921913   3.946   1.885   9.439  0.1665 -0.2324  0.3510
  190POPC   H9121914   3.895   1.983   9.440  0.2255 -0.1239  3.6109
  190POPC  C21021915   3.963   1.820   9.322  0.4199 -0.1780  0.4117
  190POPC  H10121916   3.940   1.859   9.222  0.7171 -0.8735  0.0686
  190POPC  C21121917   4.001   1.668   9.302  0.4302 -0.4153  0.3101
  190POPC  H11R21918   3.997   1.620   9.402 -1.0187 -0.8192  0.0916
  190POPC  H11S21919   4.104   1.648   9.266  0.4927  0.3791  0.0339
  190POPC  C21221920   3.890   1.604   9.219  0.3776  0.0798  0.7891
  190POPC  H12R21921   3.784   1.618   9.248  0.6755  1.3964  1.2913
  190POPC  H12S21922   3.918   1.496   9.224  2.7584  0.6031 -0.0413
  190POPC  C21321923   3.901   1.632   9.066 -0.3028  0.3130 -0.5257
  190POPC  H13R21924   3.981   1.592   9.000 -0.0505  1.6702 -1.0827
  190POPC  H13S21925   3.918   1.741   9.051 -3.6386  0.9971 -0.3003
  190POPC  C21421926   3.771   1.611   8.993  0.0616 -0.1563 -0.2164
  190POPC  H14R21927   3.706   1.700   9.009  0.8892  0.0729  2.3237
  190POPC  H14S21928   3.710   1.528   9.036 -0.9067 -0.1823 -1.5740
  190POPC  C21521929   3.778   1.574   8.841  0.0435  0.0812 -0.0325
  190POPC  H15R21930   3.675   1.553   8.806 -0.4961  0.2059  1.4017
  190POPC  H15S21931   3.828   1.476   8.829  1.4959  0.7506  0.2814
  190POPC  C21621932   3.849   1.677   8.747  0.2942 -0.2115 -0.5597
  190POPC  H16R21933   3.959   1.672   8.755  0.2163  0.3814  1.5440
  190POPC  H16S21934   3.821   1.782   8.772 -1.9735 -0.5764 -1.3207
  190POPC  C21721935   3.791   1.660   8.603 -0.5109 -0.4597  0.0691
  190POPC  H17R21936   3.682   1.679   8.611 -0.6987 -1.3113 -0.3285
  190POPC  H17S21937   3.812   1.553   8.580  0.1251 -0.4119  0.4136
  190POPC  C21821938   3.849   1.761   8.505  0.2184  0.0956  0.0382
  190POPC  H18R21939   3.834   1.863   8.546 -1.2853 -0.3979  0.7721
  190POPC  H18S21940   3.788   1.755   8.412  1.3788  1.2891 -0.8382
  190POPC  H18T21941   3.952   1.730   8.477 -0.5896 -0.7131 -2.3575
  190POPC   C3321942   3.324   2.139   9.979  0.6695  0.1302 -0.1227
  190POPC   H3X21943   3.429   2.162  10.004  0.9984 -0.9518 -0.4620
  190POPC   H3Y21944   3.259   2.229   9.991  1.1153  0.7585 -2.1087
  190POPC   C3421945   3.317   2.099   9.830  0.6431 -0.1380  0.0045
  190POPC   H4X21946   3.386   2.012   9.824 -1.2441 -2.0061  2.7700
  190POPC   H4Y21947   3.345   2.190   9.774 -0.0743 -0.8967 -1.6749
  190POPC   C3521948   3.169   2.068   9.793 -0.4068  0.7675  0.0049
  190POPC   H5X21949   3.101   2.155   9.802 -0.9095  0.8602 -3.4157
  190POPC   H5Y21950   3.119   1.998   9.863 -1.4609  1.2676 -0.2213
  190POPC   C3621951   3.164   2.025   9.644 -0.6852  0.7786 -0.5145
  190POPC   H6X21952   3.248   1.959   9.616  0.3887  2.3143 -1.0543
  190POPC   H6Y21953   3.172   2.112   9.576  0.3370 -1.8031 -3.9609
  190POPC   C3721954   3.038   1.937   9.618 -0.3246 -0.4177 -0.0212
  190POPC   H7X21955   2.946   1.993   9.644  1.7142  2.3278  1.7595
  190POPC   H7Y21956   3.045   1.851   9.688  2.9321 -0.9122 -0.7950
  190POPC   C3821957   3.018   1.905   9.465  1.0419  0.7411 -0.2274
  190POPC   H8X21958   3.109   1.857   9.423  0.1077  0.2518 -1.7298
  190POPC   H8Y21959   3.004   2.002   9.413 -1.3428 -0.2980 -1.6641
  190POPC   C3921960   2.901   1.812   9.442  0.2173  0.5568 -0.0712
  190POPC   H9X21961   2.817   1.848   9.504 -0.7665 -0.6915 -0.6292
  190POPC   H9Y21962   2.917   1.704   9.464  1.3734  0.9527  1.2121
  190POPC  C31021963   2.860   1.814   9.294 -0.0872 -0.3768 -0.6422
  190POPC  H10X21964   2.935   1.768   9.227  0.4799  0.3877 -0.5461
  190POPC  H10Y21965   2.844   1.918   9.259  1.2407  0.1427  0.2463
  190POPC  C31121966   2.728   1.740   9.266  0.3377 -0.3779 -0.4970
  190POPC  H11X21967   2.641   1.804   9.288 -0.4851 -0.9369 -1.9655
  190POPC  H11Y21968   2.716   1.648   9.327  0.9246 -0.5019 -0.5642
  190POPC  C31221969   2.715   1.711   9.114 -0.4397 -0.4133 -0.3644
  190POPC  H12X21970   2.613   1.672   9.092 -0.5117 -0.6669  0.4131
  190POPC  H12Y21971   2.790   1.632   9.097 -0.1345  0.0493 -1.2410
  190POPC  C31321972   2.727   1.832   9.024 -0.7614 -0.9404 -0.7466
  190POPC  H13X21973   2.821   1.889   9.039 -1.8753  0.9275 -0.5327
  190POPC  H13Y21974   2.647   1.907   9.040  1.3031  1.3234 -0.3687
  190POPC  C31421975   2.722   1.807   8.872 -0.5821 -0.3628 -0.5394
  190POPC  H14X21976   2.803   1.731   8.860 -1.6637 -1.6380 -0.0477
  190POPC  H14Y21977   2.751   1.897   8.814  1.5141 -1.2921 -1.0089
  190POPC  C31521978   2.585   1.760   8.828  0.2216  0.3199 -0.2995
  190POPC  H15X21979   2.504   1.827   8.866 -0.7920 -1.2858  0.4434
  190POPC  H15Y21980   2.552   1.660   8.862  1.4211 -0.6000 -1.7316
  190POPC  C31621981   2.560   1.768   8.676 -0.1589 -0.8226  0.0847
  190POPC  H16X21982   2.560   1.874   8.642  2.1072 -1.3709 -1.9608
  190POPC  H16Y21983   2.457   1.741   8.645  0.1488 -0.2737 -1.5345
  190POPC  H16Z21984   2.626   1.702   8.615  0.2390 -1.5937  1.3183
  191POPC     N21985   4.930   2.697   6.224 -0.1298 -0.1073 -0.0996
  191POPC   C1221986   4.988   2.685   6.362  0.5645 -0.3722 -0.2244
  191POPC  H12A21987   5.088   2.647   6.355 -0.1049 -2.0474 -1.4719
  191POPC  H12B21988   4.945   2.599   6.412  0.8548 -1.8871 -2.4357
  191POPC   C1321989   4.956   2.582   6.135  0.5234 -0.7923  0.0608
  191POPC  H13A21990   4.911   2.493   6.178  1.9742 -0.4763  2.4354
  191POPC  H13B21991   4.912   2.597   6.038  1.0001  0.1594 -0.0137
  191POPC  H13C21992   5.062   2.561   6.135  0.0208 -3.7668  0.5105
  191POPC   C1421993   4.782   2.720   6.233  1.1650  0.0016 -0.1645
  191POPC  H14A21994   4.746   2.782   6.314 -2.2700 -0.7658 -0.9380
  191POPC  H14B21995   4.750   2.775   6.145 -1.5547 -0.7532  0.2697
  191POPC  H14C21996   4.730   2.626   6.241  0.1680  0.4975 -0.6320
  191POPC   C1521997   4.998   2.813   6.160 -0.4246 -0.5130 -0.5523
  191POPC  H15A21998   5.104   2.801   6.177 -0.1162 -2.0111 -3.0544
  191POPC  H15B21999   4.963   2.906   6.203  2.3157  1.2959 -1.8846
  191POPC  H15C22000   4.981   2.808   6.053 -1.5693 -1.6572 -0.3367
  191POPC   C1122001   4.977   2.813   6.453 -0.3902 -0.0554 -0.3136
  191POPC  H11A22002   5.035   2.782   6.543 -1.4479 -1.5083 -0.1049
  191POPC  H11B22003   4.871   2.834   6.475 -0.5286  0.4545 -1.3896
  191POPC     P22004   5.185   2.969   6.429 -0.2299  0.1496 -0.1151
  191POPC   O1322005   5.206   3.100   6.363 -0.2463  0.0833  0.1128
  191POPC   O1422006   5.253   2.856   6.371 -0.2701 -0.2202 -0.6727
  191POPC   O1222007   5.033   2.939   6.399  0.3678  0.0473  0.0532
  191POPC   O1122008   5.186   2.976   6.591  0.1626  0.1230 -0.1357
  191POPC    C122009   5.115   3.073   6.662  0.0181 -0.0434  0.3406
  191POPC    HA22010   5.062   3.139   6.590 -0.3519 -2.5008 -1.7782
  191POPC    HB22011   5.193   3.119   6.726  0.1613  0.0278  0.1178
  191POPC    C222012   5.005   3.011   6.760  0.6079  0.1333  0.1544
  191POPC    HS22013   4.922   2.961   6.706 -1.2055  2.3858  0.6943
  191POPC   O2122014   4.961   3.111   6.854  0.1889  0.6340  0.0443
  191POPC   C2122015   4.880   3.200   6.792 -0.9841 -0.3813 -0.1974
  191POPC   O2222016   4.838   3.190   6.678  0.0391  0.1714 -0.6571
  191POPC   C2222017   4.840   3.309   6.895 -0.1193  0.5780 -0.2129
  191POPC   H2R22018   4.918   3.333   6.971 -0.0411 -2.4047  0.7960
  191POPC   H2S22019   4.758   3.261   6.953  0.3508  1.6025  1.3773
  191POPC    C322020   5.059   2.901   6.847  0.4309  0.4362  0.4401
  191POPC    HX22021   5.073   2.818   6.774 -0.3523 -0.1487  0.9447
  191POPC    HY22022   4.971   2.881   6.912 -2.6268  2.0788 -2.8047
  191POPC   O3122023   5.182   2.937   6.916  0.2924  0.9620 -0.2224
  191POPC   C3122024   5.205   2.848   7.012  0.0286 -0.0271 -0.7418
  191POPC   O3222025   5.144   2.744   7.041  0.4160 -0.1432  0.4340
  191POPC   C3222026   5.304   2.918   7.107 -0.2410  0.2677 -0.3672
  191POPC   H2X22027   5.299   3.028   7.098  1.2825  0.3696 -0.3224
  191POPC   H2Y22028   5.400   2.882   7.063  0.2406  1.4710 -0.3253
  191POPC   C2322029   4.787   3.442   6.826 -0.0031  0.6835 -0.9451
  191POPC   H3R22030   4.686   3.417   6.786  0.3971 -3.1934  0.0464
  191POPC   H3S22031   4.860   3.472   6.748 -0.0349  2.7013 -0.2512
  191POPC   C2422032   4.768   3.563   6.917  0.0766  0.0294 -0.3285
  191POPC   H4R22033   4.763   3.657   6.859  3.2718  0.1258 -0.6143
  191POPC   H4S22034   4.854   3.571   6.987 -0.6217 -0.9060  0.6770
  191POPC   C2522035   4.641   3.558   6.995  0.1371 -0.1698 -0.3213
  191POPC   H5R22036   4.625   3.454   7.030  1.1638 -0.4916 -0.7641
  191POPC   H5S22037   4.556   3.581   6.926  0.1725  0.4428 -0.1655
  191POPC   C2622038   4.638   3.638   7.129 -0.1821  0.9466 -0.9332
  191POPC   H6R22039   4.534   3.657   7.165 -0.4663  0.0825 -1.2843
  191POPC   H6S22040   4.688   3.736   7.115  1.2921  0.4456  0.6242
  191POPC   C2722041   4.711   3.560   7.250  0.4528 -0.3808  0.9188
  191POPC   H7R22042   4.818   3.537   7.226 -0.3111 -1.4564 -1.9104
  191POPC   H7S22043   4.671   3.456   7.252  0.2770 -0.3549 -0.2567
  191POPC   C2822044   4.704   3.634   7.388 -0.1215  0.0924 -0.5023
  191POPC   H8R22045   4.737   3.740   7.378 -0.4401  0.4817  2.0271
  191POPC   H8S22046   4.786   3.596   7.453  0.0898 -1.4890 -1.6379
  191POPC   C2922047   4.566   3.633   7.452 -0.6136 -0.0216 -0.5086
  191POPC   H9122048   4.485   3.590   7.391 -0.1521  0.2655 -1.3423
  191POPC  C21022049   4.538   3.654   7.584  0.2522 -1.3370 -0.3998
  191POPC  H10122050   4.432   3.657   7.615  0.7700 -0.8137  1.4993
  191POPC  C21122051   4.634   3.701   7.694 -0.3162  0.3386 -0.5589
  191POPC  H11R22052   4.730   3.731   7.647 -0.4193  0.9300 -0.3963
  191POPC  H11S22053   4.661   3.616   7.760  0.4492 -0.3130 -1.6779
  191POPC  C21222054   4.577   3.812   7.789 -0.2893  0.1315  0.0189
  191POPC  H12R22055   4.643   3.817   7.878 -0.7700  1.2959  0.3226
  191POPC  H12S22056   4.473   3.790   7.820 -0.1721  0.7664  0.9052
  191POPC  C21322057   4.569   3.951   7.720  0.1080 -0.7093 -0.1558
  191POPC  H13R22058   4.497   3.957   7.636 -2.0368 -1.1107  1.5567
  191POPC  H13S22059   4.667   3.974   7.672  0.0930 -0.1355  0.0875
  191POPC  C21422060   4.538   4.065   7.824  0.3805 -0.3169 -0.1532
  191POPC  H14R22061   4.622   4.064   7.897 -0.7503 -1.9797  1.1887
  191POPC  H14S22062   4.446   4.034   7.877 -0.6341  1.4080 -0.8348
  191POPC  C21522063   4.532   4.212   7.777  1.0267  0.2806  0.3858
  191POPC  H15R22064   4.536   4.295   7.851  1.2196  2.1050 -1.5689
  191POPC  H15S22065   4.434   4.216   7.726  0.3795 -1.4331  1.3916
  191POPC  C21622066   4.641   4.257   7.670  0.4166  0.5511 -0.2593
  191POPC  H16R22067   4.628   4.205   7.573 -1.8706 -0.6579  0.6240
  191POPC  H16S22068   4.737   4.233   7.721 -0.1868 -0.4540  0.4332
  191POPC  C21722069   4.644   4.413   7.643 -0.2247 -0.5921 -0.4741
  191POPC  H17R22070   4.717   4.418   7.560  1.1345  0.8522  0.7422
  191POPC  H17S22071   4.681   4.478   7.725 -2.4236  1.3215 -0.9040
  191POPC  C21822072   4.514   4.477   7.609  0.0360 -0.2103  0.3334
  191POPC  H18R22073   4.529   4.582   7.578 -1.3795  0.2417  1.0837
  191POPC  H18S22074   4.441   4.473   7.693  0.0561 -3.6991  0.3445
  191POPC  H18T22075   4.465   4.427   7.523 -1.3087  0.5558  0.6179
  191POPC   C3322076   5.283   2.883   7.259 -0.0969  0.0481  0.8593
  191POPC   H3X22077   5.365   2.936   7.312  0.9951 -0.1967 -0.5222
  191POPC   H3Y22078   5.286   2.776   7.288 -2.4994 -0.0107  1.1089
  191POPC   C3422079   5.142   2.925   7.320  0.4774  0.3490 -0.2662
  191POPC   H4X22080   5.147   2.918   7.431  1.4027 -0.4972 -0.3392
  191POPC   H4Y22081   5.077   2.841   7.288  1.7958 -1.4533  1.4655
  191POPC   C3522082   5.103   3.064   7.265 -0.1245  0.0555  0.6136
  191POPC   H5X22083   5.068   3.047   7.161 -3.8945  2.8260  1.2333
  191POPC   H5Y22084   5.183   3.141   7.264 -0.2717  0.2669 -1.6749
  191POPC   C3622085   5.000   3.138   7.347 -0.1668 -0.2459  0.1268
  191POPC   H6X22086   4.928   3.063   7.386 -1.8023  0.6097 -1.1811
  191POPC   H6Y22087   4.940   3.201   7.279  0.2739 -1.3504 -1.3326
  191POPC   C3722088   5.066   3.205   7.469  0.4387  0.1247  0.1732
  191POPC   H7X22089   5.148   3.270   7.432 -0.1770 -0.8852 -3.2866
  191POPC   H7Y22090   5.112   3.126   7.532  2.3628 -0.5482 -1.9632
  191POPC   C3822091   4.966   3.287   7.549  0.4917  0.5424 -0.9037
  191POPC   H8X22092   4.902   3.208   7.595 -0.7203  0.3620 -2.7918
  191POPC   H8Y22093   4.897   3.346   7.484 -2.4201 -1.4478  0.1620
  191POPC   C3922094   5.024   3.382   7.670  0.1463  0.1354 -0.3393
  191POPC   H9X22095   5.074   3.468   7.620 -0.1033 -0.3429 -1.4385
  191POPC   H9Y22096   5.106   3.323   7.716  1.8124  0.0688 -3.1494
  191POPC  C31022097   4.909   3.421   7.761 -0.4294 -0.4753 -0.5636
  191POPC  H10X22098   4.846   3.330   7.776 -0.6472 -0.2676 -0.2096
  191POPC  H10Y22099   4.855   3.508   7.718 -1.3994 -0.1946  1.1258
  191POPC  C31122100   4.966   3.463   7.899  0.3522  0.0711 -0.6608
  191POPC  H11X22101   5.059   3.522   7.885  1.3164 -0.2399  3.1587
  191POPC  H11Y22102   4.999   3.371   7.952  1.5704  0.1956 -1.1873
  191POPC  C31222103   4.871   3.555   7.981  0.3561  0.0445 -0.4939
  191POPC  H12X22104   4.768   3.514   7.984  0.0076  0.9563  1.1164
  191POPC  H12Y22105   4.880   3.654   7.932 -1.0666  0.6169  0.3443
  191POPC  C31322106   4.918   3.591   8.126  0.0602 -0.1379  0.3479
  191POPC  H13X22107   4.845   3.663   8.170 -1.4839 -1.6325  0.3383
  191POPC  H13Y22108   5.008   3.653   8.106 -0.7652  0.5977 -1.2361
  191POPC  C31422109   4.929   3.469   8.223  0.3019  0.7421  0.2337
  191POPC  H14X22110   5.005   3.394   8.193  0.7342  1.4550 -0.4868
  191POPC  H14Y22111   4.829   3.419   8.228  1.1462 -0.9261  2.1500
  191POPC  C31522112   4.962   3.523   8.360 -0.2087 -0.3975 -0.1097
  191POPC  H15X22113   4.862   3.553   8.396 -0.9536 -2.0381 -0.7276
  191POPC  H15Y22114   5.027   3.613   8.352 -0.5107 -0.2356 -0.7622
  191POPC  C31622115   5.037   3.428   8.455 -0.0159 -0.2422  0.1575
  191POPC  H16X22116   5.115   3.373   8.398 -0.4117 -1.0329  0.3581
  191POPC  H16Y22117   4.956   3.358   8.487  0.5488 -1.0621 -0.1750
  191POPC  H16Z22118   5.102   3.480   8.529  1.6524  0.0542 -1.4614
  192POPC     N22119   5.184   0.584   6.135  0.5120 -0.4670  0.1528
  192POPC   C1222120   5.114   0.462   6.064 -0.4923  0.8149  0.4825
  192POPC  H12A22121   5.167   0.471   5.971  1.0119  4.4095  1.5272
  192POPC  H12B22122   5.009   0.465   6.044 -1.0039 -1.7521  2.2024
  192POPC   C1322123   5.335   0.564   6.157 -0.2590  0.0789 -0.2460
  192POPC  H13A22124   5.347   0.470   6.208 -1.2720  0.5244  0.8665
  192POPC  H13B22125   5.387   0.564   6.062  2.0542  0.7225  0.9407
  192POPC  H13C22126   5.382   0.642   6.215 -0.3888  0.6934 -0.9481
  192POPC   C1422127   5.175   0.706   6.053 -0.7275 -0.3242 -0.3401
  192POPC  H14A22128   5.201   0.789   6.116 -0.0065 -1.7826  1.3705
  192POPC  H14B22129   5.240   0.700   5.967 -0.1742 -0.6972  0.0905
  192POPC  H14C22130   5.075   0.721   6.016 -1.5249 -0.5011  1.6588
  192POPC   C1522131   5.119   0.588   6.266 -0.2726 -0.3924  0.5182
  192POPC  H15A22132   5.166   0.660   6.330  3.1441 -0.5931 -1.5090
  192POPC  H15B22133   5.132   0.490   6.311  1.8771 -0.3977 -0.0013
  192POPC  H15C22134   5.015   0.616   6.257  0.4362  2.7395  0.9535
  192POPC   C1122135   5.136   0.315   6.115 -0.1813 -0.1403  0.0128
  192POPC  H11A22136   5.245   0.302   6.134  0.0697 -0.5933 -1.6158
  192POPC  H11B22137   5.109   0.240   6.038  1.0570  1.1482 -1.7616
  192POPC     P22138   4.902   0.260   6.237  0.0194  0.0373 -0.2976
  192POPC   O1322139   4.886   0.121   6.186 -0.0339  0.7021  0.0899
  192POPC   O1422140   4.825   0.359   6.163  0.6296 -0.3128 -0.4155
  192POPC   O1222141   5.063   0.295   6.238  0.4950  0.5482  0.4958
  192POPC   O1122142   4.868   0.271   6.390  0.7318  0.3387  0.1327
  192POPC    C122143   4.896   0.177   6.491 -0.0753  0.4799  0.6608
  192POPC    HA22144   4.968   0.101   6.453  2.1854  2.9778 -0.3923
  192POPC    HB22145   4.804   0.125   6.525 -0.6780  0.4247 -0.9868
  192POPC    C222146   4.983   0.239   6.609 -0.9863  0.3376  0.2649
  192POPC    HS22147   5.011   0.151   6.670  1.5168  0.1774 -1.0029
  192POPC   O2122148   4.914   0.340   6.678  0.4356 -0.1042 -0.0225
  192POPC   C2122149   4.799   0.293   6.749 -1.0274  0.1013  0.0334
  192POPC   O2222150   4.775   0.173   6.765  0.2811 -0.3912 -0.0525
  192POPC   C2222151   4.718   0.412   6.794 -0.2069  0.4919 -0.3770
  192POPC   H2R22152   4.614   0.380   6.819 -0.4133  0.4401 -1.2933
  192POPC   H2S22153   4.705   0.488   6.715 -0.9396  2.4421  1.5168
  192POPC    C322154   5.122   0.301   6.557 -0.2628  0.2545  0.0244
  192POPC    HX22155   5.098   0.392   6.498 -1.1762  0.1906  0.2837
  192POPC    HY22156   5.159   0.225   6.485  0.4370 -0.4111  1.0644
  192POPC   O3122157   5.214   0.339   6.664  0.1809  0.5532  0.0126
  192POPC   C3122158   5.281   0.240   6.718  0.4065  0.1836  0.0347
  192POPC   O3222159   5.258   0.125   6.700  0.0284  0.4474  0.2490
  192POPC   C3222160   5.383   0.289   6.819 -0.0402  0.1100  0.4053
  192POPC   H2X22161   5.373   0.399   6.834 -1.2156  0.0165  0.4279
  192POPC   H2Y22162   5.489   0.264   6.798  0.2148  1.7029 -0.3355
  192POPC   C2322163   4.793   0.477   6.910  0.1167  0.2845 -0.1479
  192POPC   H3R22164   4.737   0.566   6.943 -3.6555 -0.7968 -3.0327
  192POPC   H3S22165   4.895   0.506   6.876  0.0936 -0.2967 -0.7292
  192POPC   C2422166   4.830   0.402   7.035  0.0343 -0.1421 -0.2735
  192POPC   H4R22167   4.889   0.314   7.002 -0.3503 -0.3390 -0.4503
  192POPC   H4S22168   4.744   0.363   7.094  1.1235 -2.7658 -0.2780
  192POPC   C2522169   4.925   0.487   7.135 -0.7501  0.7223 -0.5154
  192POPC   H5R22170   4.862   0.571   7.173 -0.1366  0.6264  0.7654
  192POPC   H5S22171   5.015   0.521   7.079  0.0583  0.5022  0.6275
  192POPC   C2622172   4.978   0.401   7.252 -0.4220  0.0617 -0.1034
  192POPC   H6R22173   5.063   0.462   7.290  0.0903 -0.8657  0.2684
  192POPC   H6S22174   5.011   0.306   7.204 -1.8709  0.5267 -2.1474
  192POPC   C2722175   4.885   0.375   7.364 -1.0076  0.6008  0.0055
  192POPC   H7R22176   4.791   0.327   7.330 -1.6217  0.9509  1.1534
  192POPC   H7S22177   4.854   0.465   7.420 -0.4681 -0.2365  1.7538
  192POPC   C2822178   4.955   0.277   7.464 -0.3739 -0.8798 -0.3139
  192POPC   H8R22179   4.990   0.196   7.398 -0.6629 -0.2974 -1.1968
  192POPC   H8S22180   4.875   0.240   7.532 -1.8969  2.0410 -0.3119
  192POPC   C2922181   5.073   0.344   7.534  0.3930 -0.6132 -0.9023
  192POPC   H9122182   5.152   0.377   7.465 -0.0840 -1.5411 -1.9372
  192POPC  C21022183   5.082   0.386   7.667  0.5905  0.5045  0.6464
  192POPC  H10122184   5.173   0.441   7.691  1.1759 -0.4741  0.7460
  192POPC  C21122185   4.972   0.371   7.778 -0.4954 -0.2297  0.5162
  192POPC  H11R22186   4.877   0.335   7.734  0.0345  0.1213 -0.9725
  192POPC  H11S22187   4.942   0.465   7.828  1.6220 -0.6215  2.7416
  192POPC  C21222188   5.016   0.271   7.887 -0.7169 -0.3728 -0.0609
  192POPC  H12R22189   5.058   0.179   7.842  1.3966  0.8234 -0.6714
  192POPC  H12S22190   4.926   0.255   7.950 -0.7079  0.1985  0.1075
  192POPC  C21322191   5.124   0.322   7.980 -0.3226 -0.9596 -0.1522
  192POPC  H13R22192   5.221   0.352   7.934 -1.6419  2.3083 -1.0654
  192POPC  H13S22193   5.149   0.238   8.048 -1.1637 -0.6557  0.5468
  192POPC  C21422194   5.085   0.448   8.057 -0.1191 -0.3542 -1.5708
  192POPC  H14R22195   4.976   0.441   8.077  0.2676  0.8227  1.4268
  192POPC  H14S22196   5.108   0.539   7.997 -2.0054  0.2014 -1.4957
  192POPC  C21522197   5.151   0.467   8.200 -0.2764  0.1354 -0.7775
  192POPC  H15R22198   5.170   0.575   8.212  2.3193 -0.2267 -0.9269
  192POPC  H15S22199   5.255   0.428   8.204 -0.8129 -1.5233 -1.7206
  192POPC  C21622200   5.075   0.397   8.310  0.2251 -0.2110  0.2934
  192POPC  H16R22201   5.063   0.289   8.286 -0.7372  0.3485 -1.9845
  192POPC  H16S22202   4.972   0.436   8.321 -0.0527 -0.2919 -1.5851
  192POPC  C21722203   5.131   0.425   8.451 -0.1346  0.3865  0.4258
  192POPC  H17R22204   5.053   0.391   8.523 -0.3016 -0.2750 -0.0532
  192POPC  H17S22205   5.141   0.535   8.462  2.5775  0.0723  1.7692
  192POPC  C21822206   5.261   0.359   8.477  0.2278 -0.2376  0.5415
  192POPC  H18R22207   5.286   0.377   8.584 -0.0221 -0.2185  0.5967
  192POPC  H18S22208   5.343   0.403   8.416 -0.4370 -1.7094 -1.5111
  192POPC  H18T22209   5.246   0.249   8.469 -0.2828 -0.2111  1.0307
  192POPC   C3322210   5.343   0.224   6.959 -0.1856 -0.8009  0.6315
  192POPC   H3X22211   5.394   0.126   6.957  2.9352  0.6713 -2.4352
  192POPC   H3Y22212   5.233   0.217   6.977 -0.1184 -0.9511  0.9717
  192POPC   C3422213   5.405   0.301   7.080 -0.2631 -0.0055 -0.5214
  192POPC   H4X22214   5.329   0.377   7.108 -2.1608 -1.2698 -1.9881
  192POPC   H4Y22215   5.504   0.340   7.048  0.0519  2.3986  2.8093
  192POPC   C3522216   5.423   0.194   7.192 -0.4393 -0.0631 -0.3472
  192POPC   H5X22217   5.518   0.137   7.190 -0.2011  0.3132  0.0460
  192POPC   H5Y22218   5.340   0.119   7.189 -0.7859  0.3370 -1.0243
  192POPC   C3622219   5.423   0.270   7.326  0.1459  0.0394  0.1483
  192POPC   H6X22220   5.325   0.323   7.327 -0.2666 -0.5798 -1.9619
  192POPC   H6Y22221   5.507   0.342   7.330  0.0107  0.1608  1.0267
  192POPC   C3722222   5.445   0.184   7.453 -0.4437  0.0712 -0.4555
  192POPC   H7X22223   5.545   0.136   7.442  0.2925  0.6112  2.7397
  192POPC   H7Y22224   5.371   0.103   7.466 -0.8429  0.5516  0.3637
  192POPC   C3822225   5.461   0.268   7.579  0.7757  0.5265 -0.4665
  192POPC   H8X22226   5.358   0.284   7.617  0.7969  0.6292 -0.4505
  192POPC   H8Y22227   5.514   0.361   7.549  0.1913  0.2609 -2.4838
  192POPC   C3922228   5.537   0.195   7.700 -0.6669  0.6374  0.0334
  192POPC   H9X22229   5.642   0.174   7.671  0.0321  3.3608  0.3097
  192POPC   H9Y22230   5.493   0.093   7.710  1.4978 -0.5936 -1.9379
  192POPC  C31022231   5.524   0.260   7.832 -0.3802  0.0386  1.4566
  192POPC  H10X22232   5.417   0.250   7.862 -0.3514  2.9317  2.7656
  192POPC  H10Y22233   5.552   0.367   7.829  3.0560 -0.7805  0.0626
  192POPC  C31122234   5.592   0.191   7.948 -0.9776 -0.1959  0.0236
  192POPC  H11X22235   5.701   0.190   7.926 -1.1710  0.5793 -0.9998
  192POPC  H11Y22236   5.560   0.085   7.940  1.1065 -0.9182  0.6038
  192POPC  C31222237   5.557   0.251   8.085 -0.3852 -0.1420  0.6611
  192POPC  H12X22238   5.449   0.231   8.103 -0.1944 -0.9207  0.9854
  192POPC  H12Y22239   5.568   0.361   8.092  1.2972 -0.1358 -1.3948
  192POPC  C31322240   5.629   0.188   8.210  0.1819  0.0358  0.1475
  192POPC  H13X22241   5.624   0.259   8.296  0.0928 -0.7805  0.8274
  192POPC  H13Y22242   5.735   0.183   8.177  0.0838 -0.9934 -0.0244
  192POPC  C31422243   5.575   0.051   8.254  1.0858 -0.3236  0.2525
  192POPC  H14X22244   5.587  -0.010   8.162  1.5473 -0.2525  0.2635
  192POPC  H14Y22245   5.466   0.065   8.273  1.0278  2.5290 -1.6440
  192POPC  C31522246   5.636  -0.006   8.382 -0.3582 -0.2902  0.5516
  192POPC  H15X22247   5.732  -0.044   8.341  0.1813 -0.4319  1.8689
  192POPC  H15Y22248   5.584  -0.101   8.408 -0.7111 -0.1388  0.3955
  192POPC  C31622249   5.668   0.085   8.506 -0.0996  0.3496  0.2996
  192POPC  H16X22250   5.582   0.137   8.552  2.2547  3.1067  1.9358
  192POPC  H16Y22251   5.748   0.162   8.491 -0.6352  0.4651 -2.5986
  192POPC  H16Z22252   5.713   0.016   8.581  0.7533 -0.1481 -0.6422
  193SOD    SOD22253   3.598   5.286  13.669  0.1036 -0.0775  0.2985
  194SOD    SOD22254   2.454   1.463   5.446  0.2533  0.2588 -0.1705
  195SOD    SOD22255   2.038   2.525   6.437  0.4495  0.0929  0.5369
  196SOD    SOD22256   0.320   2.233  12.229 -0.1583  0.0447 -0.3696
  197SOD    SOD22257   3.286   4.952   6.202  0.1233  0.1837  0.2058
  198SOD    SOD22258   2.688   2.050  10.786 -0.3596 -0.1059  0.4783
  199SOD    SOD22259   5.815   1.831   5.596  0.1178  0.2909 -0.4330
  200SOD    SOD22260   3.337   1.555   3.230 -0.0608  0.1470  0.0804
  201SOD    SOD22261   5.889   2.498   1.222  0.1600 -0.6808  0.2612
  202SOD    SOD22262   0.919   1.273   4.986  0.1607  0.8779 -0.3345
  203SOD    SOD22263   0.164   3.985  12.300 -0.0030  0.4086 -0.4482
  204SOD    SOD22264   5.158   1.108  15.584 -0.3692 -0.6944  0.4078
  205SOD    SOD22265   6.363   0.408  12.284  0.0557  0.1948 -0.0886
  206SOD    SOD22266   0.183   6.034  16.712 -0.5841  0.0319 -0.3179
  207SOD    SOD22267   2.982   3.518   5.934  0.3889  0.1317  0.1782
  208SOD    SOD22268   1.204   2.698  16.279 -0.2066  0.2023  0.3179
  209SOD    SOD22269   6.348   2.941   6.764  0.2414  0.1232  0.3829
  210SOD    SOD22270   2.466   2.134  14.533  0.0985 -0.1392 -0.3358
  211SOD    SOD22271   2.896   3.156  12.350  0.0741 -0.0160  0.2089
  212SOD    SOD22272   1.134   6.596  11.081 -0.2340  0.3354  0.5664
  213SOD    SOD22273   6.751   5.509  12.947  0.3641  0.1729 -0.4758
  214SOD    SOD22274   2.191   2.290  16.322 -0.0359  0.4174  0.0219
  215SOD    SOD22275   5.343   2.211  13.848  0.5804  0.0765  0.5070
  216SOD    SOD22276   0.929   3.168  16.066 -0.1142  0.3920 -0.0009
  217SOD    SOD22277   1.099   3.785  14.415  0.0250 -0.0302 -0.1714
  218SOD    SOD22278   1.451   6.711   5.747 -0.1914 -0.1258  0.3225
  219SOD    SOD22279   0.847   1.216   2.365 -0.1159  0.4917 -0.5778
  220SOD    SOD22280   4.986   4.339   2.551 -0.1250  0.3353  0.1413
  221SOD    SOD22281   2.884   2.699   2.059 -0.0297 -0.0923  0.3333
  222SOD    SOD22282   6.074   5.867  12.832 -0.0226  0.0435  0.2737
  223SOD    SOD22283   3.614   2.523   0.575 -0.2176 -0.1111  0.3320
  224SOD    SOD22284   6.252   2.792   6.148  0.0942  0.2225  0.2046
  225SOD    SOD22285   4.556   4.505   3.963 -0.0557  0.3722 -0.2360
  226SOD    SOD22286   5.236   3.627  10.920 -0.3216 -0.0509  0.2952
  227SOD    SOD22287   4.491   2.916   0.428  0.2911 -0.0938  0.2410
  228SOD    SOD22288   5.106   6.033  12.492  0.2358 -0.2321 -0.3036
  229SOD    SOD22289   6.406   0.763   4.868 -0.2181  0.1847  0.4029
  230SOD    SOD22290   4.933   1.268   6.132  0.5311  0.3155  0.2984
  231SOD    SOD22291   0.339   4.446   3.339  0.0387 -0.5282  0.3394
  232SOD    SOD22292   2.863   3.303   0.063  0.3971  0.4525  0.0953
  233SOD    SOD22293   1.073   5.743  14.058 -0.1960  0.7579 -0.2729
  234SOD    SOD22294   2.831   6.385   2.659  0.2922  0.1970  0.1066
  235SOD    SOD22295   4.850   1.498  16.200 -0.2153  0.1934 -0.2760
  236SOD    SOD22296   3.434   2.458  10.602 -0.0542 -0.2619 -0.1020
  237SOD    SOD22297   0.868   5.169  11.528  0.3673  0.4187  0.5806
  238SOD    SOD22298   6.536   3.927   4.994  0.4242 -0.1943 -0.1762
  239SOD    SOD22299   2.449   5.377   0.338 -0.0629 -0.2599 -0.4843
  240SOD    SOD22300   4.482   4.976   5.272 -0.2517  0.2258  0.3222
  241SOD    SOD22301   0.477   3.130  11.216 -0.3900  0.2881 -0.3774
  242SOD    SOD22302   6.703   3.738   0.026  0.1135 -0.0842 -0.3304
  243SOD    SOD22303   1.726   0.183  15.518  0.4697 -0.0028  0.4758
  244SOD    SOD22304   5.260   1.371  14.965 -0.4599 -0.1559 -0.3105
  245SOD    SOD22305   3.418   0.661   5.617 -0.0114 -0.2615  0.2806
  246SOD    SOD22306   5.298   4.257  14.551 -0.1860 -0.5011 -0.1811
  247SOD    SOD22307   2.265   4.904   0.501  0.1376  0.0069 -0.2214
  248SOD    SOD22308   3.867   5.483   0.925  0.2048  0.2339 -0.0856
  249SOD    SOD22309   4.923   2.583  11.161  0.1397  0.0842 -0.5294
  250SOD    SOD22310   4.998   6.373   3.820  0.1529  0.2896  0.4741
  251SOD    SOD22311   2.516   0.976  12.715  0.4332  0.0776  0.5649
  252SOD    SOD22312   0.056   5.566   0.347 -0.0161 -0.8553  0.3348
  253SOD    SOD22313   4.432   0.959  11.860 -0.5639  0.2092  0.1700
  254SOD    SOD22314   5.706   5.859  17.030  0.4963  0.3506 -0.1625
  255SOD    SOD22315   2.506   2.174  11.956  0.2114  0.0598  0.0680
  256SOD    SOD22316   6.247   3.983  13.246  0.0851  0.0097 -0.6210
  257SOD    SOD22317   5.115   6.075   1.394  0.1744  0.3119  0.2034
  258SOD    SOD22318   0.630   0.027  10.713 -0.1343  0.2859  0.0924
  259SOD    SOD22319   0.704   1.570  11.392  0.6173 -0.4359 -0.2397
  260SOD    SOD22320   3.137   0.591   0.014  0.3434 -0.5421  0.2155
  261SOD    SOD22321   5.407   3.992   2.329 -0.5194 -0.1803  0.9188
  262SOD    SOD22322   0.139   3.653   3.667  0.3002  0.1303  0.0163
  263SOD    SOD22323   2.506   4.145  11.429  0.1178 -0.2484  0.3317
  264SOD    SOD22324   4.348   2.179   2.812 -0.5949  0.3977 -0.2348
  265SOD    SOD22325   4.381   6.254  11.949 -0.0502 -0.0340  0.0046
  266SOD    SOD22326   3.678   4.956   2.339 -0.0428  0.6271  0.6296
  267SOD    SOD22327   3.324   3.517  13.525 -0.1680 -0.4623  0.3484
  268SOD    SOD22328   0.716   5.194   5.373 -0.5708 -0.1585 -0.0585
  269SOD    SOD22329   2.005   6.408   2.539  0.3075 -0.1914  0.0395
  270CLA    CLA22330   0.615   6.154   3.287 -0.1694  0.7039 -0.1698
  271CLA    CLA22331   6.449   6.490   5.501 -0.3353 -0.0181 -0.1057
  272CLA    CLA22332   2.213   6.512   1.833  0.1562  0.6326 -0.0959
  273CLA    CLA22333   5.371   3.617   2.816 -0.0234 -0.2270  0.1679
  274CLA    CLA22334   2.161   1.654  11.870 -0.0570 -0.2883 -0.1503
  275CLA    CLA22335   1.329   3.167  11.381  0.1738  0.0211  0.2611
  276CLA    CLA22336   2.997   2.061   2.056  0.1122 -0.3344  0.2076
  277CLA    CLA22337   0.804   0.228  14.666 -0.6052 -0.1831  0.3710
  278CLA    CLA22338   4.716   3.308  14.749  0.1917  0.0567  0.4269
  279CLA    CLA22339   0.287   1.555   4.617  0.1865 -0.1899 -0.4685
  280CLA    CLA22340   0.319   4.044   2.738  0.3719  0.2092  0.0233
  281CLA    CLA22341   2.702   2.721  13.464  0.1961  0.3530 -0.0460
  282CLA    CLA22342   5.413   5.332  12.131  0.0983 -0.0330 -0.0587
  283CLA    CLA22343   0.999   2.732  13.571 -0.1161  0.1801  0.8045
  284CLA    CLA22344   5.727   3.000  11.422  0.2044 -0.6646 -0.3803
  285CLA    CLA22345   4.993   6.203  17.383  0.7232  0.0743 -0.0540
  286CLA    CLA22346   6.717   3.029  16.032 -0.0603 -0.1325  0.0229
  287CLA    CLA22347   2.233   0.325  11.930 -0.5046 -0.3041 -0.2919
  288CLA    CLA22348   3.251   5.252   3.494 -0.0395  0.0313  0.1223
  289CLA    CLA22349   2.319   5.803   2.036 -0.1624 -0.2382 -0.3840
  290CLA    CLA22350   0.283   4.271  12.538  0.4539  0.2898  0.1904
  291CLA    CLA22351   0.542   1.232  13.574 -0.2975  0.1635 -0.3271
  292CLA    CLA22352   2.177   2.330  17.301 -0.3755  0.0312 -0.1852
  293CLA    CLA22353   3.351   2.930  13.557 -0.0662 -0.0993  0.3458
  294CLA    CLA22354   4.329   1.404  15.238  0.1360  0.1861  0.3658
  295CLA    CLA22355   0.540   5.969  12.627 -0.1475  0.2674 -0.2119
  296CLA    CLA22356   5.508   4.850   1.028  0.4882  0.0927 -0.0763
  297CLA    CLA22357   6.323   1.916  16.679  0.0114  0.1608 -0.1302
  298CLA    CLA22358   5.967   2.821  13.454  0.2646  0.1934 -0.2452
  299CLA    CLA22359   3.423   4.406  14.049  0.1960  0.3071  0.5369
  300CLA    CLA22360   0.345   1.804  16.480  0.2130  0.2795 -0.0829
  301CLA    CLA22361   3.942   5.291   2.081 -0.6481 -0.2666  0.3154
  302CLA    CLA22362   1.304   1.791   2.286  0.4999  0.0736  0.1176
  303CLA    CLA22363   2.935   6.351  17.299 -0.3185  0.2275  0.0843
  304CLA    CLA22364   4.472   3.751  16.644  0.3743 -0.2098 -0.2147
  305CLA    CLA22365   2.676   4.890  17.092  0.5410  0.2645  0.1415
  306CLA    CLA22366   1.088   5.582  16.308 -0.1211 -0.2091 -0.4065
  307CLA    CLA22367   3.446   4.244   0.882 -0.2823 -0.4426 -0.3152
  308CLA    CLA22368   5.347   2.731   1.726 -0.2818  0.1081  0.4590
  309CLA    CLA22369   1.202   4.296  17.125  0.1020  0.0462 -0.1846
  310CLA    CLA22370   0.047   4.123  15.835 -0.0989  0.3528 -0.0681
  311CLA    CLA22371   6.304   1.528   2.133  0.3018 -0.3694 -0.6028
  312CLA    CLA22372   2.138   3.776   0.604  0.6868  0.2317  0.2170
  313CLA    CLA22373   6.238   1.682  14.425 -0.0941 -0.1083  0.2908
  314CLA    CLA22374   0.540   0.435   4.210 -0.2329 -0.1985 -0.4081
  315CLA    CLA22375   6.209   3.463   0.947  0.1735 -0.2328  0.3575
  316CLA    CLA22376   2.564   0.889   5.775  0.0679 -0.0034  0.4552
  317CLA    CLA22377   2.299   0.826  13.320  0.2008 -0.1763 -0.2199
  318CLA    CLA22378   5.126   0.777  17.280  0.2433  0.1241  0.0803
  319CLA    CLA22379   4.353   4.763  12.778 -0.2489  0.3725  0.0523
  320CLA    CLA22380   5.945   4.614   3.097 -0.1649  0.0997 -0.0163
  321CLA    CLA22381   4.837   4.554  12.003  0.1227 -0.2585 -0.0721
  322CLA    CLA22382   5.044   6.198  16.321 -0.3277  0.1186 -0.4954
  323TIP3   OH222383   0.108   1.151  16.172 -0.8050 -0.2221 -0.2216
  323TIP3    H122384   0.187   1.154  16.118 -2.1508  0.7096 -2.3081
  323TIP3    H222385   0.140   1.149  16.262  1.5689  0.5656 -0.9661
  324TIP3   OH222386   4.134   0.269   1.792  0.0878 -0.7533  0.3260
  324TIP3    H122387   4.187   0.312   1.859  3.5825 -1.0200 -1.9468
  324TIP3    H222388   4.066   0.332   1.770  0.8819  0.6983  1.8119
  325TIP3   OH222389   6.492   6.351   1.652 -0.3878  0.3725 -0.2905
  325TIP3    H122390   6.503   6.257   1.666 -0.2309  0.4928  0.4200
  325TIP3    H222391   6.548   6.371   1.577  2.7494  0.5909  1.9226
  326TIP3   OH222392   4.579   2.708  13.446 -0.0363  0.8827  0.7154
  326TIP3    H122393   4.519   2.760  13.394 -1.3805  1.1370  2.4240
  326TIP3    H222394   4.621   2.771  13.505 -1.6889  0.1130  2.8137
  327TIP3   OH222395   5.375   5.068  15.706  0.1060 -0.9040 -0.5638
  327TIP3    H122396   5.391   5.160  15.686  1.3677 -0.8148  0.7697
  327TIP3    H222397   5.280   5.062  15.716  0.1428  0.7118  1.3092
  328TIP3   OH222398   3.499   4.996   0.938 -0.5690 -0.1262  0.2332
  328TIP3    H122399   3.406   4.977   0.924 -0.7777  1.9016 -1.6725
  328TIP3    H222400   3.528   5.034   0.855  2.2801 -1.6770  0.4029
  329TIP3   OH222401   3.394   4.377   5.894 -0.4660  0.2225 -0.5534
  329TIP3    H122402   3.314   4.429   5.889 -1.3768 -1.0966 -0.2687
  329TIP3    H222403   3.446   4.420   5.961 -0.0508  2.2209 -2.0598
  330TIP3   OH222404   3.037   4.024  13.589  0.2466 -0.0829 -0.1566
  330TIP3    H122405   3.090   4.079  13.531 -2.5822  1.1601 -1.7626
  330TIP3    H222406   3.061   4.054  13.678  0.9457  1.6683 -0.8765
  331TIP3   OH222407   4.743   4.051   4.660 -0.4979  0.3929 -0.3569
  331TIP3    H122408   4.720   3.971   4.612 -0.8333 -0.5324  1.2770
  331TIP3    H222409   4.660   4.094   4.678 -0.3806  0.6732 -0.4658
  332TIP3   OH222410   3.937   4.756   4.318 -0.5323 -0.2774  0.0435
  332TIP3    H122411   3.909   4.847   4.313 -2.1726 -0.7788 -0.5624
  332TIP3    H222412   3.981   4.749   4.403  0.0739  1.1760 -0.1238
  333TIP3   OH222413   4.808   5.517  13.243 -0.5158 -0.0946 -0.4821
  333TIP3    H122414   4.848   5.433  13.268  0.7097  0.3882 -0.7187
  333TIP3    H222415   4.823   5.574  13.319  0.5785  0.5120 -1.1227
  334TIP3   OH222416   1.734   1.270  12.450 -0.4317  0.1411  0.2642
  334TIP3    H122417   1.655   1.319  12.476  0.0596  1.0254  0.1530
  334TIP3    H222418   1.702   1.182  12.431 -1.2913  0.3094  0.8401
  335TIP3   OH222419   4.301   5.460  15.533 -0.3240  0.3373  0.0746
  335TIP3    H122420   4.225   5.474  15.589 -0.8018  2.3569 -0.9634
  335TIP3    H222421   4.366   5.523  15.565 -0.0351  0.4064 -0.6324
  336TIP3   OH222422   0.250   0.349  14.568  0.1489 -0.3967 -0.1942
  336TIP3    H122423   0.196   0.299  14.630  2.0405 -1.2864  0.8036
  336TIP3    H222424   0.295   0.282  14.517 -0.2426  0.3450 -1.5518
  337TIP3   OH222425   4.433   1.409   1.358 -0.0621 -0.3417  0.3354
  337TIP3    H122426   4.468   1.493   1.329 -1.1587 -0.2518 -0.8326
  337TIP3    H222427   4.439   1.412   1.454  2.3021 -0.0260  0.2251
  338TIP3   OH222428   1.296   3.852  16.408 -0.1505 -1.1842  0.1819
  338TIP3    H122429   1.274   3.767  16.444  1.0699 -0.5399  2.6496
  338TIP3    H222430   1.386   3.842  16.376 -1.1241 -1.6776 -2.7062
  339TIP3   OH222431   4.220   3.818  11.961  0.4547 -0.1534 -0.6051
  339TIP3    H122432   4.235   3.818  11.866 -2.1424 -2.2860 -1.1148
  339TIP3    H222433   4.211   3.911  11.983  1.5900  0.4176 -2.3224
  340TIP3   OH222434   0.931   1.533   2.984  0.2100  0.1347 -0.1286
  340TIP3    H122435   0.850   1.543   3.034 -1.0665  0.8984 -2.1865
  340TIP3    H222436   0.901   1.517   2.894  2.3681 -2.3508 -0.5194
  341TIP3   OH222437   3.804   5.460  13.966 -0.2976  0.6470 -0.7049
  341TIP3    H122438   3.719   5.462  13.923 -0.0889 -0.6392 -1.2473
  341TIP3    H222439   3.788   5.492  14.055 -1.3641  0.3493 -0.7814
  342TIP3   OH222440   0.322   1.002  12.456 -0.2529 -0.5703 -0.3875
  342TIP3    H122441   0.269   0.924  12.442  0.5361 -1.0883 -0.5681
  342TIP3    H222442   0.348   0.997  12.548 -0.8814 -0.0854 -0.1836
  343TIP3   OH222443   6.676   1.454  11.793  0.0081 -0.3183  0.6583
  343TIP3    H122444   6.662   1.486  11.882  0.6930 -0.0010  0.6571
  343TIP3    H222445   6.637   1.521  11.737  0.0021 -0.2829  0.7042
  344TIP3   OH222446   5.969   1.002   4.413 -0.4394  0.6832 -0.3549
  344TIP3    H122447   5.936   0.959   4.334 -0.1120  3.1923 -1.9952
  344TIP3    H222448   5.938   1.093   4.406 -0.3381  1.0241  2.4030
  345TIP3   OH222449   5.714   5.364   0.374  0.6921 -0.6514 -0.0536
  345TIP3    H122450   5.668   5.371   0.290 -0.2590 -3.6634  0.1052
  345TIP3    H222451   5.764   5.282   0.367  0.3336 -1.1487  2.4114
  346TIP3   OH222452   0.875   6.054  12.424 -0.1427 -0.0291 -0.3425
  346TIP3    H122453   0.923   5.998  12.364 -0.2400  0.0324 -0.4772
  346TIP3    H222454   0.841   5.995  12.491  1.2057  0.0722  0.4811
  347TIP3   OH222455   3.463   0.742   4.480 -0.3697 -0.7259  0.0925
  347TIP3    H122456   3.411   0.816   4.448 -0.8121 -1.2372 -0.3911
  347TIP3    H222457   3.417   0.713   4.558 -1.0906 -1.4729 -0.5962
  348TIP3   OH222458   0.749   0.582  14.318 -0.3156 -0.2203 -0.0260
  348TIP3    H122459   0.792   0.533  14.389  0.2295  1.5481  0.9163
  348TIP3    H222460   0.819   0.634  14.279 -0.8396 -0.3491 -1.1665
  349TIP3   OH222461   5.118   1.866  14.932 -0.2677 -0.0350  0.4516
  349TIP3    H122462   5.164   1.938  14.977  0.9941  0.5848 -1.6764
  349TIP3    H222463   5.187   1.803  14.913 -0.8731 -0.5325 -0.1184
  350TIP3   OH222464   3.328   0.398   4.907 -0.2360 -0.2800  0.0714
  350TIP3    H122465   3.244   0.388   4.861  1.2881 -1.7701 -2.6763
  350TIP3    H222466   3.342   0.313   4.949 -0.7882  0.5056  1.9532
  351TIP3   OH222467   6.412   6.268  12.251 -0.2600 -0.1263 -0.1190
  351TIP3    H122468   6.433   6.330  12.320 -0.4842 -1.1415  0.8963
  351TIP3    H222469   6.449   6.306  12.171 -0.9626  1.6051  0.3485
  352TIP3   OH222470   5.662   3.451   0.426 -0.1232 -0.7717 -0.3063
  352TIP3    H122471   5.648   3.515   0.495  1.2088  0.3966 -1.0509
  352TIP3    H222472   5.639   3.497   0.345  0.6858 -1.2640 -0.8404
  353TIP3   OH222473   2.895   0.180   3.779  0.1764  0.5037 -0.4608
  353TIP3    H122474   2.939   0.228   3.709  1.2976 -0.9579 -0.8105
  353TIP3    H222475   2.954   0.186   3.853  0.7592 -1.0100 -0.7658
  354TIP3   OH222476   3.572   5.720  15.293  0.4594 -0.3419 -0.2433
  354TIP3    H122477   3.502   5.768  15.336  0.6405 -0.4288  0.1538
  354TIP3    H222478   3.590   5.646  15.351  1.0631 -0.1711 -0.1997
  355TIP3   OH222479   1.018   5.443  13.271 -0.0174  0.2387 -0.7387
  355TIP3    H122480   0.929   5.409  13.273  0.0147  0.1802  0.1188
  355TIP3    H222481   1.019   5.503  13.197 -0.8854  0.5341 -0.5269
  356TIP3   OH222482   3.834   5.435   1.139 -0.2122  0.2012 -0.1375
  356TIP3    H122483   3.773   5.486   1.193  0.2868  1.3770 -0.6421
  356TIP3    H222484   3.903   5.408   1.200  1.6843  3.6464 -0.5306
  357TIP3   OH222485   5.506   0.979  16.051  0.1127  0.1564  0.5178
  357TIP3    H122486   5.424   1.029  16.055  0.3086  0.4196  1.6769
  357TIP3    H222487   5.530   0.965  16.142 -0.1286 -2.4114  0.2633
  358TIP3   OH222488   0.188   5.873  12.897  0.7354 -0.1584 -0.1608
  358TIP3    H122489   0.247   5.825  12.839 -0.1612 -0.7665 -0.5956
  358TIP3    H222490   0.224   5.962  12.899  2.6201 -0.8775  0.9237
  359TIP3   OH222491   0.297   4.431  12.071  0.0325 -0.5093  0.1711
  359TIP3    H122492   0.342   4.365  12.017  0.9627 -0.9200  1.3930
  359TIP3    H222493   0.352   4.509  12.064 -1.1726  0.2671 -1.4342
  360TIP3   OH222494   5.018   1.605   1.434 -0.1994 -0.0053 -0.2815
  360TIP3    H122495   5.070   1.529   1.407 -3.1288 -2.4504  0.4614
  360TIP3    H222496   4.974   1.634   1.354 -1.4105 -1.0958 -0.0439
  361TIP3   OH222497   1.133   1.509  13.571 -0.2595 -0.6438  0.0908
  361TIP3    H122498   1.053   1.557  13.589  0.0775 -0.6676  1.8802
  361TIP3    H222499   1.119   1.469  13.486 -2.0674 -0.4762  0.2815
  362TIP3   OH222500   2.802   3.846   5.276  0.1636  0.1640 -0.5421
  362TIP3    H122501   2.712   3.848   5.308  0.3864  1.6747  0.0683
  362TIP3    H222502   2.799   3.789   5.199 -1.3937  0.5517 -0.7970
  363TIP3   OH222503   2.151   4.969  16.210  0.0158 -0.1238  0.5383
  363TIP3    H122504   2.241   4.953  16.239  0.0195 -0.9533  0.0967
  363TIP3    H222505   2.097   4.914  16.267 -0.0361 -1.1953 -0.5121
  364TIP3   OH222506   2.896   4.149   0.136 -1.0695  0.3924  0.6125
  364TIP3    H122507   2.807   4.149   0.099 -0.3775  0.3337 -1.1603
  364TIP3    H222508   2.952   4.121   0.063  0.3938  0.2361  1.7514
  365TIP3   OH222509   3.624   4.821   5.561  0.6715  0.1721 -0.0248
  365TIP3    H122510   3.670   4.793   5.482 -0.0660 -0.1799 -0.3459
  365TIP3    H222511   3.636   4.748   5.623 -1.6308 -1.1703 -1.0156
  366TIP3   OH222512   4.701   6.053  11.889 -0.4819  0.3717  0.4780
  366TIP3    H122513   4.683   5.989  11.958 -1.0747  1.1686  1.0788
  366TIP3    H222514   4.781   6.020  11.847 -1.1382 -1.1137  0.3238
  367TIP3   OH222515   2.472   5.437   3.411  0.5711  0.3961  0.3515
  367TIP3    H122516   2.500   5.353   3.449 -0.5943 -0.7067 -1.0817
  367TIP3    H222517   2.526   5.446   3.332 -1.1558 -0.4218 -0.9816
  368TIP3   OH222518   5.811   2.955  12.331  0.3247 -0.1017 -0.5868
  368TIP3    H122519   5.825   2.872  12.286  1.3324 -1.1125  1.4626
  368TIP3    H222520   5.899   2.983  12.358 -0.2127  0.4846  0.6695
  369TIP3   OH222521   4.495   5.092  13.937 -0.2156 -0.6875 -0.7626
  369TIP3    H122522   4.507   5.122  13.847 -1.8756 -0.2562 -0.8871
  369TIP3    H222523   4.412   5.045  13.935 -1.5106  1.3294  0.9634
  370TIP3   OH222524   2.613   4.418   1.587 -0.4156 -0.1748 -0.0318
  370TIP3    H122525   2.535   4.435   1.640 -0.9156 -0.9359 -0.5049
  370TIP3    H222526   2.625   4.323   1.592  1.4205  0.0771  1.3193
  371TIP3   OH222527   6.283   6.301  17.361  0.4249  0.3994  0.0642
  371TIP3    H122528   6.195   6.338  17.361  1.0117  1.8756 -0.4693
  371TIP3    H222529   6.310   6.303  17.452 -0.1613 -0.2527  0.2577
  372TIP3   OH222530   3.357   2.892  14.708  0.1469  0.1349  0.5019
  372TIP3    H122531   3.452   2.891  14.724  0.0976  1.2655  0.9350
  372TIP3    H222532   3.348   2.927  14.620  0.1415 -0.3455  0.3081
  373TIP3   OH222533   2.483   5.343  12.467  0.3569 -0.5593  0.5839
  373TIP3    H122534   2.450   5.433  12.471 -0.1673 -0.8019  2.3654
  373TIP3    H222535   2.566   5.350  12.419 -0.5539  0.5733 -0.9242
  374TIP3   OH222536   2.654   0.925  13.402 -0.6693  0.4291 -0.1168
  374TIP3    H122537   2.686   0.836  13.420 -0.0347  0.9634  1.4893
  374TIP3    H222538   2.559   0.918  13.407 -0.6219 -0.1513  0.0187
  375TIP3   OH222539   4.969   1.511  17.318 -0.0277 -0.6151  0.2053
  375TIP3    H122540   4.948   1.547  17.232 -0.2395  0.8017  0.8236
  375TIP3    H222541   5.004   1.423  17.299  0.9707  0.0734 -1.3907
  376TIP3   OH222542   3.108   4.046   4.218 -0.3343  0.3077  0.7686
  376TIP3    H122543   3.060   3.972   4.181  0.6808  0.3808 -0.7920
  376TIP3    H222544   3.105   4.114   4.150  1.0033  0.7079  1.0610
  377TIP3   OH222545   1.537   5.135  16.127  0.0131  0.6203  0.0149
  377TIP3    H122546   1.614   5.080  16.112 -0.4166  0.1429 -0.4757
  377TIP3    H222547   1.560   5.219  16.086  0.8873  1.0121  1.2468
  378TIP3   OH222548   5.270   5.909  11.661 -0.3777  0.3430  0.1254
  378TIP3    H122549   5.199   5.970  11.643 -1.0506  0.0276  1.4957
  378TIP3    H222550   5.237   5.856  11.735  0.4370 -1.2233 -0.5819
  379TIP3   OH222551   1.406   5.528   0.542  0.0583  0.4605  0.4986
  379TIP3    H122552   1.357   5.455   0.502  1.2052 -0.0803  0.0466
  379TIP3    H222553   1.355   5.550   0.620 -1.4434  0.5634 -0.4603
  380TIP3   OH222554   3.289   5.479   0.005 -0.2831 -0.0236 -0.9323
  380TIP3    H122555   3.249   5.404  -0.039 -1.6144 -1.3366  2.2567
  380TIP3    H222556   3.216   5.528   0.042  0.7372 -0.4537  1.9362
  381TIP3   OH222557   4.142   5.425  11.823  0.3583 -0.3954  0.0333
  381TIP3    H122558   4.153   5.462  11.736 -1.9680 -1.0771 -0.6253
  381TIP3    H222559   4.231   5.413  11.856  1.2597  2.7468 -0.9665
  382TIP3   OH222560   6.654   5.776  14.334  0.2013 -0.1047  0.3594
  382TIP3    H122561   6.688   5.813  14.415  0.6889 -0.1177  0.1606
  382TIP3    H222562   6.655   5.681  14.349 -1.4035 -0.0574  1.0137
  383TIP3   OH222563   2.019   1.747  15.236  0.4002  0.2445 -0.1399
  383TIP3    H122564   2.023   1.695  15.155  0.5320  0.8685 -0.5427
  383TIP3    H222565   1.927   1.744  15.261  0.4042 -0.1746 -0.1615
  384TIP3   OH222566   3.407   4.337   4.238 -0.3460 -0.6948 -0.1785
  384TIP3    H122567   3.460   4.399   4.289  1.0514 -0.5642 -1.7031
  384TIP3    H222568   3.462   4.259   4.233 -1.0980 -1.2202 -0.2558
  385TIP3   OH222569   5.711   1.404   0.738  0.5602  0.3665 -0.2217
  385TIP3    H122570   5.741   1.459   0.666  2.7484 -1.7207 -1.0442
  385TIP3    H222571   5.768   1.428   0.812 -1.8132  2.6570  1.0538
  386TIP3   OH222572   6.693   4.811   5.905  0.4282  0.7836  0.1068
  386TIP3    H122573   6.621   4.873   5.888 -0.2244 -0.4073 -1.8029
  386TIP3    H222574   6.760   4.834   5.841  0.1075 -0.5631 -0.7340
  387TIP3   OH222575   0.233   1.445   5.280  0.0231  0.3598 -0.8721
  387TIP3    H122576   0.210   1.361   5.240  0.9127 -1.3531  1.9715
  387TIP3    H222577   0.151   1.475   5.320  0.2436 -0.4215  0.2021
  388TIP3   OH222578   1.178   4.823   3.196  0.0538 -0.1507 -0.0091
  388TIP3    H122579   1.207   4.808   3.286 -1.1870 -1.0654  0.2521
  388TIP3    H222580   1.202   4.743   3.150  0.2375  0.1181 -0.3808
  389TIP3   OH222581   2.415   5.935  15.189  0.3176 -0.0409  0.3013
  389TIP3    H122582   2.482   5.957  15.253  0.3163  0.5823  0.0991
  389TIP3    H222583   2.349   5.887  15.238  0.7324 -0.3442  0.5764
  390TIP3   OH222584   6.502   5.444  13.575 -0.0773  0.0639 -0.6010
  390TIP3    H122585   6.502   5.348  13.569  2.5648  0.0385 -1.1344
  390TIP3    H222586   6.476   5.473  13.488  2.8998 -0.2532 -1.6965
  391TIP3   OH222587   2.597   0.196   1.472  0.5610 -0.1616  0.3257
  391TIP3    H122588   2.603   0.102   1.455  2.1154 -0.1144  0.5062
  391TIP3    H222589   2.539   0.228   1.402  1.4687 -0.9850 -0.8557
  392TIP3   OH222590   3.983   1.522   1.830 -0.5435 -0.2754  0.0543
  392TIP3    H122591   3.916   1.589   1.821  1.0431  1.2271 -1.1166
  392TIP3    H222592   4.027   1.520   1.746  0.2922 -1.9128  0.4792
  393TIP3   OH222593   1.111   6.500   5.027 -0.1797 -0.5554  0.4983
  393TIP3    H122594   1.181   6.530   4.970  0.9816 -0.2561  2.0036
  393TIP3    H222595   1.128   6.407   5.040 -0.2962 -0.5712  0.5406
  394TIP3   OH222596   0.037   0.542  13.319 -0.3289  0.1169  0.2600
  394TIP3    H122597   0.041   0.510  13.229  0.7743 -0.2032  0.4093
  394TIP3    H222598   0.086   0.477  13.370  0.1419  0.9480  0.8908
  395TIP3   OH222599   0.116   0.813  11.616 -0.4381  0.0053 -0.0109
  395TIP3    H122600   0.078   0.725  11.608 -1.2830  0.4124 -0.7345
  395TIP3    H222601   0.210   0.798  11.623 -0.6446 -0.9940  0.7968
  396TIP3   OH222602   5.965   1.757   5.788  0.0115  0.1580 -0.4959
  396TIP3    H122603   6.021   1.680   5.782  1.7663  1.2915  0.5380
  396TIP3    H222604   6.000   1.807   5.862 -0.9855  2.0069 -1.2021
  397TIP3   OH222605   2.988   6.276   2.804 -0.0224 -0.0720 -0.5838
  397TIP3    H122606   3.077   6.293   2.773  0.2845 -1.1717 -0.3419
  397TIP3    H222607   3.001   6.233   2.889 -0.8258  2.1150  0.7255
  398TIP3   OH222608   0.660   4.843  14.481 -0.3821  0.4835 -0.4212
  398TIP3    H122609   0.607   4.907  14.529 -1.5917 -0.0675 -0.9972
  398TIP3    H222610   0.702   4.790  14.549 -1.1580  0.4560  0.0378
  399TIP3   OH222611   0.666   2.448   1.852  0.2127  0.0241 -0.4777
  399TIP3    H122612   0.714   2.526   1.825 -0.0632 -0.4326 -2.4082
  399TIP3    H222613   0.733   2.388   1.884  0.5227  0.7139  0.1876
  400TIP3   OH222614   3.958   0.972   5.744  0.1788 -0.4782  0.4635
  400TIP3    H122615   3.984   1.042   5.684  3.3596 -3.2346 -1.7798
  400TIP3    H222616   4.026   0.973   5.812 -0.4839 -0.5899  1.1373
  401TIP3   OH222617   3.523   3.723   1.133  0.0848 -0.1535 -0.5728
  401TIP3    H122618   3.492   3.812   1.118  1.9284  0.4410 -1.1605
  401TIP3    H222619   3.445   3.675   1.162 -0.6928  1.9442  1.1223
  402TIP3   OH222620   4.879   1.402  15.784  0.4569 -0.0188 -0.2922
  402TIP3    H122621   4.860   1.314  15.751 -0.6620 -0.3518  1.0894
  402TIP3    H222622   4.973   1.412  15.774  0.7953 -1.8617  0.5664
  403TIP3   OH222623   0.425   5.379   3.244 -0.0588  0.2804 -0.1612
  403TIP3    H122624   0.358   5.311   3.238  0.4832 -0.1553 -2.1353
  403TIP3    H222625   0.412   5.433   3.165  1.5688  0.4850 -0.3295
  404TIP3   OH222626   4.835   6.240  16.831  0.2053  0.0563 -0.4073
  404TIP3    H122627   4.863   6.234  16.922 -0.0827 -1.5352 -0.3980
  404TIP3    H222628   4.916   6.236  16.780  0.2880 -0.1217 -0.2608
  405TIP3   OH222629   2.310   3.975  17.069 -0.1984  0.2100 -0.3333
  405TIP3    H122630   2.356   4.025  17.136 -1.4585  2.2464 -0.8843
  405TIP3    H222631   2.229   4.024  17.054  0.4949  0.5398 -4.0867
  406TIP3   OH222632   3.843   2.460  13.083  0.0257 -0.2500  0.7164
  406TIP3    H122633   3.893   2.379  13.070 -0.0523 -0.1623 -0.1979
  406TIP3    H222634   3.866   2.514  13.007 -2.3529 -0.6618 -0.3923
  407TIP3   OH222635   0.458   0.146   1.218  0.6744  0.0279  0.5820
  407TIP3    H122636   0.415   0.121   1.300 -1.1698 -0.5282 -0.5082
  407TIP3    H222637   0.460   0.065   1.167  0.2795  0.7418 -0.5812
  408TIP3   OH222638   4.945   2.588  15.648 -0.4714  0.0589  0.1451
  408TIP3    H122639   4.898   2.521  15.696 -0.1441  1.2193  2.1886
  408TIP3    H222640   5.036   2.560  15.650 -0.5841 -0.4074 -0.7378
  409TIP3   OH222641   5.918   3.144  11.204 -0.0730 -0.3569 -0.3765
  409TIP3    H122642   5.869   3.226  11.212  1.9103  1.0478 -1.8110
  409TIP3    H222643   5.903   3.099  11.288 -0.3497  1.9653  0.9052
  410TIP3   OH222644   6.223   1.946  11.707  0.0024  0.2901 -0.8718
  410TIP3    H122645   6.231   1.867  11.653  1.0166 -0.6393  0.5672
  410TIP3    H222646   6.165   1.920  11.778  2.0811  0.0885  0.8403
  411TIP3   OH222647   4.152   1.172  15.102  0.1452  0.4634 -0.9093
  411TIP3    H122648   4.190   1.092  15.140 -0.5988  0.4496 -0.1784
  411TIP3    H222649   4.187   1.243  15.155 -2.6644  0.3029  1.4126
  412TIP3   OH222650   4.563   1.817   3.142 -0.1696 -0.4665 -0.7781
  412TIP3    H122651   4.514   1.760   3.082 -0.4232 -0.6410 -0.4076
  412TIP3    H222652   4.567   1.768   3.224 -1.2527  0.4547 -0.1425
  413TIP3   OH222653   1.214   3.916   4.246  0.4957 -0.2554 -0.4304
  413TIP3    H122654   1.159   3.934   4.323 -0.2365  1.2175 -1.2429
  413TIP3    H222655   1.299   3.893   4.283 -0.2403 -1.0599  0.8387
  414TIP3   OH222656   6.459   0.184  15.771  0.3835 -0.5027  0.2432
  414TIP3    H122657   6.474   0.192  15.677  0.0802  0.7463  0.2813
  414TIP3    H222658   6.379   0.132  15.778 -0.7853  1.1422 -0.2873
  415TIP3   OH222659   2.616   4.275  15.829  0.2142 -0.2169  0.1805
  415TIP3    H122660   2.531   4.318  15.828  0.4999  0.3750  0.5126
  415TIP3    H222661   2.632   4.250  15.738 -1.2347 -2.2327  0.4257
  416TIP3   OH222662   2.247   5.511  15.627 -0.3030 -0.4168 -0.0694
  416TIP3    H122663   2.258   5.518  15.532  1.1162  0.6128  0.1411
  416TIP3    H222664   2.321   5.560  15.664 -1.3131 -0.0304  1.5652
  417TIP3   OH222665   4.325   4.207   3.177 -0.0214 -0.2476  0.2065
  417TIP3    H122666   4.301   4.166   3.261  0.9340  0.8778  1.0584
  417TIP3    H222667   4.420   4.213   3.180 -0.0958  1.4210 -0.1913
  418TIP3   OH222668   6.243   3.698  16.226  0.5383  0.5212 -0.4788
  418TIP3    H122669   6.182   3.749  16.279  0.1372  0.6759 -1.0782
  418TIP3    H222670   6.317   3.680  16.284 -0.4821 -0.4800  0.5503
  419TIP3   OH222671   5.764   3.252   5.830 -0.1739  0.0495  0.5435
  419TIP3    H122672   5.684   3.285   5.872 -0.5116  1.1358 -0.8603
  419TIP3    H222673   5.822   3.328   5.825  0.0412 -0.1632 -0.4741
  420TIP3   OH222674   6.143   2.386  11.824 -0.1557  0.0000  0.1234
  420TIP3    H122675   6.157   2.414  11.734 -3.2797  0.7737 -0.2250
  420TIP3    H222676   6.231   2.382  11.862  1.0102  3.3689 -1.8361
  421TIP3   OH222677   5.584   5.158   4.313  0.2911  0.5373  0.5318
  421TIP3    H122678   5.489   5.171   4.307  0.1354 -0.1908  1.2139
  421TIP3    H222679   5.621   5.245   4.301 -0.3631  0.5873 -1.4808
  422TIP3   OH222680   3.070   3.115  14.016  0.0803  0.2024 -0.5623
  422TIP3    H122681   3.120   3.192  14.043 -0.7229  0.6182 -0.2229
  422TIP3    H222682   3.123   3.075  13.947  1.9937 -0.6535  1.2958
  423TIP3   OH222683   6.485   0.011   4.424 -0.5271  0.0180  0.5320
  423TIP3    H122684   6.406  -0.008   4.372 -1.6692  0.0120  2.1962
  423TIP3    H222685   6.458   0.080   4.484  1.4550  1.7418 -0.4378
  424TIP3   OH222686   4.605   3.324  14.044  0.4931  0.0870 -0.4154
  424TIP3    H122687   4.649   3.395  13.996 -0.6229  0.4260 -0.9741
  424TIP3    H222688   4.676   3.273  14.081  1.3343  1.3602 -0.2006
  425TIP3   OH222689   3.325   5.094   3.862 -0.5030  0.4425  0.2347
  425TIP3    H122690   3.248   5.098   3.806 -1.6794  0.9764  1.8443
  425TIP3    H222691   3.334   5.002   3.884 -0.9023  0.4257  0.3328
  426TIP3   OH222692   1.955   6.260   6.119  0.1861  0.2514  0.4602
  426TIP3    H122693   1.949   6.344   6.072 -1.4595 -0.0363  0.1002
  426TIP3    H222694   2.030   6.271   6.177  0.8409  1.4797 -0.5531
  427TIP3   OH222695   5.427   3.566   0.786  0.1212  0.3823  0.0146
  427TIP3    H122696   5.403   3.504   0.717 -1.8458  0.3846  0.6403
  427TIP3    H222697   5.415   3.652   0.746 -1.3691  0.3894  0.4323
  428TIP3   OH222698   1.919   0.914   3.791  0.5675  0.8475 -0.6576
  428TIP3    H122699   2.004   0.906   3.748  1.0923 -3.8092  0.7837
  428TIP3    H222700   1.859   0.866   3.735 -0.0896  0.1216  0.6279
  429TIP3   OH222701   3.755   6.567   2.577 -0.6496 -0.4772  0.4898
  429TIP3    H122702   3.717   6.492   2.622 -1.1960 -1.2021 -1.1209
  429TIP3    H222703   3.804   6.529   2.504 -1.7666  0.7624 -0.9594
  430TIP3   OH222704   6.106   2.556  14.521  0.0074 -0.2005  0.0585
  430TIP3    H122705   6.196   2.525  14.529  0.6137  1.4086 -0.0438
  430TIP3    H222706   6.054   2.477  14.508  0.9436 -1.5662  3.5124
  431TIP3   OH222707   6.598   6.009   0.714 -0.5429  0.5203 -0.2862
  431TIP3    H122708   6.534   6.079   0.700  1.0312  1.7426 -1.7796
  431TIP3    H222709   6.667   6.050   0.767 -0.7594 -0.6567  0.9592
  432TIP3   OH222710   0.771   0.043  17.309  0.1263  0.5898  0.5017
  432TIP3    H122711   0.804   0.063  17.221  2.4883 -1.6611  0.7692
  432TIP3    H222712   0.678   0.066  17.305  0.6199  2.6000 -1.8699
  433TIP3   OH222713   1.867   6.391   2.994  0.0557 -0.2132 -0.6654
  433TIP3    H122714   1.829   6.391   2.906  0.6912 -0.6985 -0.9482
  433TIP3    H222715   1.927   6.465   2.994  0.0112 -0.1779 -0.6253
  434TIP3   OH222716   1.563   1.697   3.262 -0.1547 -0.4556  1.0728
  434TIP3    H122717   1.650   1.659   3.252 -0.7496 -1.8504  0.9999
  434TIP3    H222718   1.525   1.651   3.337 -0.1225  1.5614  2.4221
  435TIP3   OH222719   5.141   1.812   5.572  0.2340  0.6621 -0.4291
  435TIP3    H122720   5.158   1.893   5.621  3.6356 -0.0495 -0.1900
  435TIP3    H222721   5.157   1.835   5.481  0.5424  0.4089 -0.4382
  436TIP3   OH222722   2.803   5.274  13.917 -0.0622  0.0397  0.2436
  436TIP3    H122723   2.829   5.365  13.933 -0.7064  0.0396  1.3647
  436TIP3    H222724   2.811   5.264  13.822  0.4698  1.1226  0.1515
  437TIP3   OH222725   1.460   5.887   5.442 -1.1114  0.0491 -0.2582
  437TIP3    H122726   1.477   5.937   5.361 -1.7789 -0.6230 -0.8221
  437TIP3    H222727   1.490   5.799   5.423  0.8490  0.3718  1.0283
  438TIP3   OH222728   1.626   4.040   0.164 -0.3392 -0.0460  0.5346
  438TIP3    H122729   1.560   3.981   0.201 -1.3150 -0.8346 -2.2215
  438TIP3    H222730   1.575   4.107   0.119  0.7743  2.1798  2.3766
  439TIP3   OH222731   6.156   5.582  16.723  0.0626 -0.4744 -0.1075
  439TIP3    H122732   6.070   5.614  16.751 -0.2372 -1.5047  0.2134
  439TIP3    H222733   6.185   5.645  16.657 -0.7091  0.1645  0.1460
  440TIP3   OH222734   0.081   6.211   1.736 -0.3897 -0.8624 -1.0062
  440TIP3    H122735   0.098   6.155   1.811  0.9824  1.5219  0.5614
  440TIP3    H222736  -0.011   6.237   1.746  0.3348  1.0926  1.0886
  441TIP3   OH222737   0.445   4.877  13.287  0.2664  0.8719  0.4754
  441TIP3    H122738   0.403   4.873  13.201  2.1092  0.7092 -0.4633
  441TIP3    H222739   0.446   4.970  13.310 -2.1823  0.7621  1.4056
  442TIP3   OH222740   0.421   0.296  15.234 -0.0985 -0.3900  0.1043
  442TIP3    H122741   0.383   0.213  15.204  0.0274 -0.3639 -0.1326
  442TIP3    H222742   0.515   0.285  15.220 -0.2876  0.9883 -3.0373
  443TIP3   OH222743   2.801   1.177   3.056 -0.0591  0.3870 -0.5335
  443TIP3    H122744   2.895   1.157   3.057 -0.1153  0.0189 -1.4675
  443TIP3    H222745   2.764   1.112   2.996 -0.5562  1.9329 -1.9777
  444TIP3   OH222746   4.923   4.139   3.750  0.4100 -0.4930  0.1429
  444TIP3    H122747   4.905   4.166   3.660  2.7920  0.9545  0.0016
  444TIP3    H222748   4.938   4.221   3.797  0.9357 -1.3045  1.4483
  445TIP3   OH222749   0.680   3.437  16.328  0.1891  0.0198 -0.4072
  445TIP3    H122750   0.632   3.393  16.398 -0.5082 -1.2048 -1.5859
  445TIP3    H222751   0.637   3.407  16.248 -0.4775  3.0747 -1.3294
  446TIP3   OH222752   6.017   4.165   1.023 -0.7229 -0.1877  1.0831
  446TIP3    H122753   6.113   4.157   1.024 -0.8145 -1.4148  0.8949
  446TIP3    H222754   5.996   4.210   1.104  0.2172  2.7697 -0.1687
  447TIP3   OH222755   6.506   1.455  12.964  0.4656  0.2912  0.4715
  447TIP3    H122756   6.511   1.372  12.917 -1.7266 -0.4824  1.4751
  447TIP3    H222757   6.433   1.444  13.025 -0.1906  3.1354  0.3212
  448TIP3   OH222758   2.891   0.940  12.100 -0.0031 -0.2031 -0.0869
  448TIP3    H122759   2.937   0.885  12.163  0.3523  0.9441  0.6859
  448TIP3    H222760   2.831   0.880  12.055 -0.8476 -0.9193  1.8956
  449TIP3   OH222761   3.533   2.489  11.936  0.6511 -0.0049  0.6148
  449TIP3    H122762   3.474   2.426  11.977  2.0997 -2.0528 -0.3194
  449TIP3    H222763   3.612   2.487  11.991  0.3432  1.8327  1.1865
  450TIP3   OH222764   5.538   2.482   5.978 -0.2560 -0.2965 -0.0681
  450TIP3    H122765   5.631   2.464   5.993  0.2047  2.1905  0.4725
  450TIP3    H222766   5.496   2.456   6.060  0.7060  2.8792  1.5835
  451TIP3   OH222767   4.494   4.047   1.071  0.3177 -0.1185 -0.2731
  451TIP3    H122768   4.444   3.986   1.017  1.1558 -0.3545 -0.8001
  451TIP3    H222769   4.464   4.029   1.160  1.2874 -2.0513 -0.2868
  452TIP3   OH222770   1.207   0.754  15.407 -0.0223 -0.0092  0.0557
  452TIP3    H122771   1.159   0.683  15.365 -1.1692 -0.3378  1.8095
  452TIP3    H222772   1.197   0.828  15.348  1.1613 -1.2447 -1.7957
  453TIP3   OH222773   6.515   4.051   4.787 -0.0298 -0.1261  0.0734
  453TIP3    H122774   6.607   4.072   4.771 -0.0761  0.7700  0.9295
  453TIP3    H222775   6.467   4.101   4.721 -0.0708  1.7438  1.4463
  454TIP3   OH222776   0.519   1.107  16.928  0.1851  0.2448  0.0060
  454TIP3    H122777   0.424   1.096  16.935  0.2705 -0.6771 -0.1526
  454TIP3    H222778   0.555   1.043  16.989  0.7099  1.0162  0.5298
  455TIP3   OH222779   5.340   2.951   0.682 -0.0132  0.2180  0.2147
  455TIP3    H122780   5.391   3.000   0.747 -0.0738  1.8891 -0.9321
  455TIP3    H222781   5.334   3.010   0.607 -1.1459 -1.1051 -0.7868
  456TIP3   OH222782   5.339   1.922  15.421 -0.2649 -0.0624 -0.6560
  456TIP3    H122783   5.394   1.976  15.364 -1.2460  0.4514 -1.1448
  456TIP3    H222784   5.249   1.950  15.401 -0.6302  0.3812  1.3852
  457TIP3   OH222785   4.758   0.480   3.435  0.2186  0.3617  0.0599
  457TIP3    H122786   4.677   0.430   3.423 -1.1853  2.6424 -0.5398
  457TIP3    H222787   4.808   0.429   3.498 -2.8287  0.1156  2.5443
  458TIP3   OH222788   4.462   2.543   5.938 -0.0079  0.0830  0.3205
  458TIP3    H122789   4.454   2.637   5.953 -1.4551  0.1158 -0.5186
  458TIP3    H222790   4.447   2.532   5.844  2.1013 -0.7989  0.0273
  459TIP3   OH222791   4.333   3.134   5.496  0.1591  0.3111 -0.0020
  459TIP3    H122792   4.273   3.181   5.438 -0.2048 -0.9764 -0.7080
  459TIP3    H222793   4.308   3.042   5.487 -0.5256  0.1297  2.9151
  460TIP3   OH222794   0.252   0.268   0.148 -0.3899  0.7319  0.6315
  460TIP3    H122795   0.311   0.234   0.215 -0.8018 -0.3410  0.4874
  460TIP3    H222796   0.209   0.189   0.113  0.2107  1.2106 -1.2673
  461TIP3   OH222797   0.988   2.193  14.677  0.1201  0.2726 -0.6161
  461TIP3    H122798   1.043   2.264  14.646  0.3903 -0.5105 -2.0217
  461TIP3    H222799   1.050   2.126  14.708 -0.1357  1.1744  2.1129
  462TIP3   OH222800   0.191   3.695  17.397  0.2629  0.1868  0.4646
  462TIP3    H122801   0.192   3.608  17.356  2.0663 -0.0845  1.0046
  462TIP3    H222802   0.229   3.753  17.331  1.8941 -0.0030  1.2110
  463TIP3   OH222803   5.453   6.163  11.655  0.1676 -0.6238 -0.4955
  463TIP3    H122804   5.412   6.077  11.650 -1.0194 -0.0908 -0.2802
  463TIP3    H222805   5.530   6.149  11.711 -1.7624 -0.9351  2.2819
  464TIP3   OH222806   4.604   3.287   4.978 -0.1123  0.1661  0.1708
  464TIP3    H122807   4.645   3.333   5.051  0.2626  0.4659 -0.2197
  464TIP3    H222808   4.655   3.207   4.968 -0.2935  0.0246  0.3674
  465TIP3   OH222809   1.274   3.684   1.869  0.2303 -0.0507 -0.4257
  465TIP3    H122810   1.266   3.685   1.773 -4.4768 -0.9650 -0.2724
  465TIP3    H222811   1.283   3.776   1.893  1.0299  0.2317 -1.6563
  466TIP3   OH222812   3.189   1.702  14.749 -0.3663 -0.3664  0.6738
  466TIP3    H122813   3.208   1.705  14.655 -1.7621  0.4072  0.3874
  466TIP3    H222814   3.148   1.787  14.767 -1.7768 -1.2072  1.5991
  467TIP3   OH222815   1.985   1.738   3.595  0.2075  0.1147  0.1655
  467TIP3    H122816   1.955   1.738   3.504 -0.3139  0.5396  0.3341
  467TIP3    H222817   1.996   1.646   3.617 -1.5532 -0.0862  0.2894
  468TIP3   OH222818   3.996   4.389  14.505 -0.0990 -0.6575  0.2776
  468TIP3    H122819   4.078   4.355  14.469  0.1540 -0.9803  1.1451
  468TIP3    H222820   3.967   4.321  14.566  0.4656  0.6899  2.1385
  469TIP3   OH222821   1.804   1.364  16.160 -0.0687 -0.2862 -0.6801
  469TIP3    H122822   1.846   1.282  16.135  0.8855 -1.2655  3.3300
  469TIP3    H222823   1.746   1.340  16.233 -1.3609  2.3302 -0.7093
  470TIP3   OH222824   4.586   2.745   4.233  0.0370  0.6225  0.0745
  470TIP3    H122825   4.594   2.831   4.191 -1.1922 -0.4379 -2.5640
  470TIP3    H222826   4.499   2.745   4.272 -1.2913 -0.3539 -2.5914
  471TIP3   OH222827   3.296   0.017   4.064 -0.0353  0.3606 -0.3663
  471TIP3    H122828   3.342  -0.066   4.077 -0.2974  0.0756 -1.1448
  471TIP3    H222829   3.226  -0.005   4.002  0.4176  1.3429 -1.2477
  472TIP3   OH222830   1.911   0.576  16.876 -0.4899  0.0047  0.3316
  472TIP3    H122831   1.828   0.579  16.923  0.1191  1.5126  1.3933
  472TIP3    H222832   1.951   0.493  16.902 -1.4945 -0.5550  0.0993
  473TIP3   OH222833   5.903   4.319   5.750  0.4084  0.4044 -0.5177
  473TIP3    H122834   5.961   4.311   5.675  1.5239  2.2046  0.0862
  473TIP3    H222835   5.940   4.260   5.816 -0.4133 -0.9628 -1.2221
  474TIP3   OH222836   5.374   0.871   1.678 -0.5684  0.3785  0.7384
  474TIP3    H122837   5.451   0.911   1.638  0.8748 -0.8198  2.2293
  474TIP3    H222838   5.301   0.904   1.625  0.9932  0.9452 -1.2037
  475TIP3   OH222839   1.857   3.184   3.743  0.3766  0.5127  0.7219
  475TIP3    H122840   1.837   3.185   3.836 -0.0145  0.5790  0.6409
  475TIP3    H222841   1.848   3.092   3.717 -1.8952  0.7989  0.2676
  476TIP3   OH222842   5.587   2.497   4.358  0.0409 -0.6114 -0.1711
  476TIP3    H122843   5.581   2.482   4.264  0.0541 -1.7710 -0.0022
  476TIP3    H222844   5.646   2.571   4.368 -1.9803  1.2628 -1.1962
  477TIP3   OH222845   2.461   0.399   4.747  0.4668 -0.5675 -0.2064
  477TIP3    H122846   2.504   0.314   4.752  1.0964 -0.2302  0.3055
  477TIP3    H222847   2.496   0.439   4.667 -0.4524 -1.1122 -0.8923
  478TIP3   OH222848   3.656   4.586  13.398  0.1136 -0.7607 -0.4296
  478TIP3    H122849   3.581   4.536  13.429  0.9053 -2.6786 -1.4997
  478TIP3    H222850   3.639   4.601  13.305  0.9765 -1.0752 -0.6461
  479TIP3   OH222851   2.250   0.896   2.663  0.6289  0.5829  0.2001
  479TIP3    H122852   2.341   0.871   2.645 -0.0304 -1.3634 -0.5788
  479TIP3    H222853   2.205   0.885   2.579 -0.9698 -1.5708  1.2567
  480TIP3   OH222854   2.175   0.484  15.033 -0.7467  0.3812  0.5387
  480TIP3    H122855   2.162   0.466  15.126  0.2800 -0.4112  0.5497
  480TIP3    H222856   2.201   0.576  15.029 -0.0525  0.2152  1.1162
  481TIP3   OH222857   2.361   5.340   1.845 -0.3247  0.2741  0.4351
  481TIP3    H122858   2.331   5.259   1.803 -0.5627  0.4297  0.2965
  481TIP3    H222859   2.453   5.325   1.863 -0.1325  0.3265 -0.4523
  482TIP3   OH222860   2.248   6.116   4.085 -0.5864  0.1427  0.6315
  482TIP3    H122861   2.273   6.208   4.095  2.3081 -0.4090 -0.7336
  482TIP3    H222862   2.273   6.075   4.168  0.7687  0.1037  0.2274
  483TIP3   OH222863   4.581   6.482   1.209  0.0426  0.1509  0.5076
  483TIP3    H122864   4.620   6.464   1.124  1.5691 -2.1406  1.6123
  483TIP3    H222865   4.533   6.403   1.231  0.1145  0.5056  2.0194
  484TIP3   OH222866   3.577   4.647   3.722  0.3001  0.4929  0.6902
  484TIP3    H122867   3.530   4.600   3.652 -0.6403  0.9932  0.9721
  484TIP3    H222868   3.666   4.658   3.687  0.2410 -0.5026  0.1593
  485TIP3   OH222869   0.037   3.229   1.492  0.6906 -0.1071  0.3009
  485TIP3    H122870   0.115   3.282   1.506  0.4064  0.2824  0.4395
  485TIP3    H222871   0.009   3.203   1.579 -0.1860  1.0105  0.3705
  486TIP3   OH222872   5.372   6.460   3.507  1.0557 -0.0583 -0.2932
  486TIP3    H122873   5.285   6.494   3.489  0.8481 -0.3581  0.1288
  486TIP3    H222874   5.372   6.439   3.601  1.7903  0.5389 -0.1457
  487TIP3   OH222875   4.494   2.222   2.380 -0.4056  0.3160  0.3259
  487TIP3    H122876   4.485   2.315   2.400  0.8305  0.7979 -1.1841
  487TIP3    H222877   4.516   2.218   2.287 -0.5602 -1.4992  0.3145
  488TIP3   OH222878   3.100   3.845   4.615  0.1300  0.0050 -0.4752
  488TIP3    H122879   3.167   3.907   4.641  0.1848 -0.0679 -0.4417
  488TIP3    H222880   3.027   3.861   4.675  0.5542 -0.6957  0.2339
  489TIP3   OH222881   0.352   4.815  15.981  0.3742 -0.6365 -0.3321
  489TIP3    H122882   0.436   4.843  16.017  1.0889 -0.8372 -1.7587
  489TIP3    H222883   0.287   4.868  16.027  1.4116  0.7151 -0.3506
  490TIP3   OH222884   1.559   2.551   0.263 -0.3609  0.1823  0.3922
  490TIP3    H122885   1.494   2.522   0.199  0.5397  0.2803 -0.5823
  490TIP3    H222886   1.641   2.513   0.233  0.0136 -0.1259  1.7400
  491TIP3   OH222887   1.478   6.436   2.253 -0.1670 -0.1448 -0.7338
  491TIP3    H122888   1.397   6.424   2.301 -0.0172 -0.2455 -0.5055
  491TIP3    H222889   1.450   6.468   2.167 -0.5217 -1.3127 -1.0667
  492TIP3   OH222890   0.074   1.846  12.795 -0.3333  0.3592 -0.1608
  492TIP3    H122891   0.015   1.833  12.721 -0.5585 -0.1304  0.1053
  492TIP3    H222892   0.135   1.914  12.765  0.2148 -0.5592 -1.1818
  493TIP3   OH222893   1.639   1.842   4.880 -0.2797 -0.2030 -0.2604
  493TIP3    H122894   1.612   1.893   4.803  2.4414  1.2807 -0.3574
  493TIP3    H222895   1.581   1.872   4.950  0.3211  2.0968 -0.6470
  494TIP3   OH222896   5.243   3.371   2.651  0.6585 -0.1531 -0.2703
  494TIP3    H122897   5.172   3.372   2.715  1.6939 -0.1732  0.9445
  494TIP3    H222898   5.303   3.439   2.682  1.2007 -0.1809 -1.2194
  495TIP3   OH222899   1.806   3.795  12.009 -0.2955 -0.4261 -0.5066
  495TIP3    H122900   1.729   3.767  11.960  0.4616 -0.8957 -1.4531
  495TIP3    H222901   1.875   3.804  11.944  0.4937 -0.1441  0.3381
  496TIP3   OH222902   1.206   2.154   2.232 -0.2304 -0.5725 -0.2688
  496TIP3    H122903   1.190   2.119   2.144 -0.4727  1.5378 -1.1516
  496TIP3    H222904   1.119   2.182   2.262  0.0827  0.2959 -0.1282
  497TIP3   OH222905   6.270   6.748  14.946  0.1899  0.3839  0.2405
  497TIP3    H122906   6.335   6.805  14.988 -0.3065 -0.6864  2.6556
  497TIP3    H222907   6.186   6.794  14.960  0.1350  0.5836 -0.6892
  498TIP3   OH222908   1.970   2.416   1.121  0.0345  0.1521 -0.2100
  498TIP3    H122909   1.959   2.478   1.049 -2.1860  0.8003  0.6179
  498TIP3    H222910   1.948   2.466   1.200  0.9202 -0.9594  0.7903
  499TIP3   OH222911   6.335   2.184  12.681 -0.9714 -0.4615 -0.4590
  499TIP3    H122912   6.314   2.100  12.722 -2.4284 -0.7238 -1.6583
  499TIP3    H222913   6.297   2.249  12.740 -1.7109 -0.7660 -0.5776
  500TIP3   OH222914   3.322   1.697   6.510 -0.0502  0.6836 -0.8308
  500TIP3    H122915   3.343   1.652   6.428 -0.1314  0.8993 -0.9689
  500TIP3    H222916   3.333   1.790   6.490  2.0300  0.6729 -0.0232
  501TIP3   OH222917   3.342   4.794  15.845  0.9575 -0.3160  0.4244
  501TIP3    H122918   3.275   4.797  15.777  1.0600 -1.4103  0.2603
  501TIP3    H222919   3.402   4.725  15.817 -0.5671 -2.9420  3.0320
  502TIP3   OH222920   1.495   6.417  12.544  0.2971 -1.1203  0.1011
  502TIP3    H122921   1.402   6.435  12.556  0.5538  0.7636 -0.4676
  502TIP3    H222922   1.498   6.326  12.514 -1.1182 -2.2155  2.9064
  503TIP3   OH222923   1.656   3.021  16.189 -0.5080 -0.3118 -0.3080
  503TIP3    H122924   1.594   3.053  16.256 -1.4077 -2.8639  0.1870
  503TIP3    H222925   1.739   3.011  16.237 -0.0583  1.6136 -0.5952
  504TIP3   OH222926   2.826   0.869  16.549 -0.4608  0.1432 -0.3729
  504TIP3    H122927   2.731   0.878  16.552 -0.2659  2.0460  1.1558
  504TIP3    H222928   2.852   0.913  16.468 -0.7770  0.8381 -0.1009
  505TIP3   OH222929   5.809   3.128  15.456  0.4859 -0.1927 -0.0331
  505TIP3    H122930   5.806   3.201  15.395  2.7514  0.2335  0.2475
  505TIP3    H222931   5.765   3.161  15.535  2.4089  1.3500  0.4816
  506TIP3   OH222932   1.813   5.554   0.331  0.4478  0.2320 -0.0309
  506TIP3    H122933   1.734   5.597   0.364  0.0260 -1.7043  1.6611
  506TIP3    H222934   1.787   5.517   0.247  0.1424  1.2148 -0.3836
  507TIP3   OH222935   3.404   1.516  13.979 -0.2806 -0.1147  0.0818
  507TIP3    H122936   3.370   1.514  13.889 -0.0357  1.4219 -0.0714
  507TIP3    H222937   3.345   1.575  14.026  0.9732  1.0403  0.2920
  508TIP3   OH222938   4.486   3.225   3.715 -0.5274 -0.0084 -0.0945
  508TIP3    H122939   4.415   3.261   3.768 -1.5803 -2.0313 -0.0343
  508TIP3    H222940   4.501   3.138   3.752  0.8567 -0.2652 -1.1785
  509TIP3   OH222941   4.641   2.364   6.093  0.6983  0.3604 -0.3933
  509TIP3    H122942   4.603   2.324   6.172  0.3641  0.3979 -0.5345
  509TIP3    H222943   4.581   2.435   6.071  0.3533 -0.1553 -1.1437
  510TIP3   OH222944   3.524   6.058  16.548  0.0504 -0.1146 -0.8117
  510TIP3    H122945   3.529   6.022  16.637  2.0859 -0.3503 -0.9666
  510TIP3    H222946   3.451   6.120  16.551 -0.1146 -0.3393  0.9463
  511TIP3   OH222947   4.946   6.160   2.934 -0.2745  0.3186 -0.1961
  511TIP3    H122948   5.006   6.160   3.008 -1.0521  1.6631  0.4702
  511TIP3    H222949   4.920   6.068   2.924 -0.2688  0.1436  1.2892
  512TIP3   OH222950   0.419   6.070   2.578  0.3952 -0.1314  0.3540
  512TIP3    H122951   0.391   6.020   2.502  4.5794 -2.0924 -0.2055
  512TIP3    H222952   0.423   6.160   2.547 -0.2081 -0.5508 -1.0257
  513TIP3   OH222953   0.767   1.674   2.569 -0.0427  0.0331 -0.0695
  513TIP3    H122954   0.831   1.737   2.602  0.4155 -0.3980 -0.1316
  513TIP3    H222955   0.807   1.588   2.584  0.0941 -0.1961 -1.5494
  514TIP3   OH222956   1.198   1.158  11.169 -0.3236  0.7310  0.1105
  514TIP3    H122957   1.237   1.093  11.110  0.6730  0.9713  0.4823
  514TIP3    H222958   1.198   1.115  11.255  0.3111  1.1918  0.3520
  515TIP3   OH222959   5.297   1.620  11.937  0.5937  0.0309  0.3199
  515TIP3    H122960   5.383   1.612  11.979  1.2318  0.1867 -0.9116
  515TIP3    H222961   5.246   1.547  11.971  2.4248 -2.3351 -1.6686
  516TIP3   OH222962   5.148   3.839  11.556 -0.2553  0.1174  0.3217
  516TIP3    H122963   5.195   3.756  11.561 -0.4007 -0.0502 -0.8537
  516TIP3    H222964   5.198   3.898  11.613  0.3363 -0.5392  0.4971
  517TIP3   OH222965   1.827   2.907  14.577 -0.1824  0.0822  0.1499
  517TIP3    H122966   1.840   2.853  14.655  0.0562  1.4967  1.1364
  517TIP3    H222967   1.916   2.921  14.543 -0.3399 -1.0807 -0.7892
  518TIP3   OH222968   4.164   2.537  11.457 -0.5700 -0.0421  0.0199
  518TIP3    H122969   4.188   2.453  11.416 -2.1523  0.9389 -3.2184
  518TIP3    H222970   4.185   2.524  11.550  4.9325 -1.9352 -1.0578
  519TIP3   OH222971   2.322   2.987  12.531  0.5963  0.4823  0.0856
  519TIP3    H122972   2.232   2.963  12.553  0.4742  1.2822  0.4825
  519TIP3    H222973   2.313   3.039  12.450  0.6846  0.6978  0.2142
  520TIP3   OH222974   0.910   4.144  15.803  0.0353 -0.1535  0.3624
  520TIP3    H122975   0.911   4.238  15.824 -2.4996  0.4710 -1.7624
  520TIP3    H222976   0.842   4.135  15.736  0.5030 -3.4804  0.1604
  521TIP3   OH222977   6.624   4.823  10.921  0.0843  0.1726  0.1681
  521TIP3    H122978   6.534   4.820  10.955  0.1965  0.6997  0.5224
  521TIP3    H222979   6.637   4.915  10.897  0.6103  0.1446  0.3413
  522TIP3   OH222980   1.020   6.176   0.384 -0.3136 -0.2964  0.3994
  522TIP3    H122981   0.991   6.211   0.300 -0.6919  0.3294  0.7841
  522TIP3    H222982   1.085   6.239   0.415  1.7053 -1.7968 -0.5620
  523TIP3   OH222983   6.650   5.002  14.456  0.0555  0.1176  0.2169
  523TIP3    H122984   6.600   5.063  14.401 -2.3511 -2.1067 -0.2375
  523TIP3    H222985   6.657   4.923  14.403 -0.6797 -1.4500  2.3722
  524TIP3   OH222986   0.851   2.670   5.943 -0.5069 -0.1507  0.3369
  524TIP3    H122987   0.805   2.625   6.014 -0.3266 -2.0266 -0.6783
  524TIP3    H222988   0.851   2.762   5.970 -1.1392 -0.6810  2.3744
  525TIP3   OH222989   3.014   0.491   2.714 -0.2954  0.6096  0.1650
  525TIP3    H122990   2.950   0.455   2.776 -0.4620 -1.4351 -1.0807
  525TIP3    H222991   3.094   0.502   2.766 -0.9355  0.7037  1.1510
  526TIP3   OH222992   5.864   2.461  15.995  0.0240  0.3764  0.5260
  526TIP3    H122993   5.871   2.366  15.990 -0.2135  0.3807  0.0489
  526TIP3    H222994   5.926   2.493  15.929 -1.0328  0.5159 -0.4145
  527TIP3   OH222995   6.525   1.202   6.296 -0.1227 -0.5146  0.5424
  527TIP3    H122996   6.446   1.236   6.254  0.1308 -0.8427 -0.2282
  527TIP3    H222997   6.501   1.189   6.387 -0.8968 -0.4142  0.3546
  528TIP3   OH222998   3.401   0.952  12.759 -0.0069 -0.0439 -0.8223
  528TIP3    H122999   3.423   0.983  12.847 -1.0697 -0.7221 -0.2928
  528TIP3    H223000   3.388   0.858  12.770 -0.1897 -0.1258 -1.7024
  529TIP3   OH223001   4.318   5.010  14.409 -0.1815 -0.1382  0.5105
  529TIP3    H123002   4.250   4.942  14.408  0.0491 -0.3719  0.6834
  529TIP3    H223003   4.281   5.081  14.357  0.5993 -1.3803 -1.8745
  530TIP3   OH223004   1.262   1.663  13.776  0.3161 -0.3536 -0.0759
  530TIP3    H123005   1.251   1.756  13.758 -0.9154 -0.4390  0.1348
  530TIP3    H223006   1.233   1.619  13.695  0.7097 -0.5551 -0.1078
  531TIP3   OH223007   2.759   1.659   6.046 -0.0775 -0.1543 -0.0142
  531TIP3    H123008   2.744   1.737   6.098  0.3974  0.3398 -0.6033
  531TIP3    H223009   2.820   1.606   6.098  0.6562  0.4878 -0.2082
  532TIP3   OH223010   1.767   5.394  12.493  0.1239  0.3004 -0.0132
  532TIP3    H123011   1.787   5.488  12.492  1.2734  0.0804 -1.6750
  532TIP3    H223012   1.853   5.352  12.498 -0.3712 -0.6880  0.4684
  533TIP3   OH223013   5.749   1.093  12.962 -0.5161  0.7163  0.4876
  533TIP3    H123014   5.843   1.084  12.948 -0.3369  0.0393  1.8750
  533TIP3    H223015   5.718   1.142  12.887  0.5659 -1.0770 -1.2399
  534TIP3   OH223016   5.847   0.111   1.098  0.3793  0.7750  0.0407
  534TIP3    H123017   5.886   0.070   1.175  1.8315  1.7588 -0.1473
  534TIP3    H223018   5.892   0.071   1.023  0.3315  1.2147 -0.2239
  535TIP3   OH223019   0.973   4.840  16.271  0.3142 -0.0832 -0.0595
  535TIP3    H123020   1.048   4.882  16.315  1.0737  0.0678 -1.4490
  535TIP3    H223021   0.928   4.792  16.341  1.8407 -0.3563  0.7852
  536TIP3   OH223022   5.042   2.014  14.706 -0.0910  0.1709  0.3133
  536TIP3    H123023   5.000   1.951  14.647  1.7348  0.5485 -1.5204
  536TIP3    H223024   5.045   1.970  14.790 -0.0682 -1.6747 -0.5963
  537TIP3   OH223025   1.759   4.749  12.038 -0.2287 -0.0602 -0.6513
  537TIP3    H123026   1.769   4.843  12.026 -1.6213  0.2727  0.5503
  537TIP3    H223027   1.847   4.714  12.027  1.1804  1.8804  2.9357
  538TIP3   OH223028   3.372   3.890   0.012 -0.5209  0.0546  0.2218
  538TIP3    H123029   3.405   3.806   0.045  0.3271  0.2109 -0.1899
  538TIP3    H223030   3.312   3.920   0.080  0.9651  0.2361  1.5430
  539TIP3   OH223031   1.002   5.373  16.539  0.5518 -0.5060 -0.6216
  539TIP3    H123032   1.087   5.363  16.582  1.9744 -1.5291 -3.4071
  539TIP3    H223033   1.014   5.449  16.481 -0.8903  0.1271 -0.1301
  540TIP3   OH223034   6.095   4.851  15.161  0.2470 -0.4223  0.0665
  540TIP3    H123035   6.009   4.869  15.125  0.9909 -0.3824 -1.8143
  540TIP3    H223036   6.087   4.765  15.203 -0.2583 -1.3174 -1.7723
  541TIP3   OH223037   3.397   4.106  15.131  0.2094  0.2688 -0.0565
  541TIP3    H123038   3.400   4.180  15.070  0.8281  0.1434 -0.1860
  541TIP3    H223039   3.403   4.146  15.218  2.0825  0.2975 -0.1723
  542TIP3   OH223040   2.349   4.325   0.940 -0.4271 -0.3064  0.0619
  542TIP3    H123041   2.394   4.378   1.005 -0.5314 -1.4892  1.1328
  542TIP3    H223042   2.289   4.385   0.896  2.3901  1.4590 -1.7166
  543TIP3   OH223043   5.682   2.782  15.606  0.3844 -0.2080  0.0015
  543TIP3    H123044   5.745   2.789  15.534 -1.3265  0.4632 -1.5071
  543TIP3    H223045   5.662   2.872  15.630  1.4683 -0.4158  1.8784
  544TIP3   OH223046   3.223   0.813   0.749  0.6330  0.3136  0.4874
  544TIP3    H123047   3.146   0.800   0.694  0.6334  0.6573  0.3992
  544TIP3    H223048   3.225   0.907   0.765  1.7753  0.5218 -0.6100
  545TIP3   OH223049   2.514   3.103  12.979  0.0962 -0.1999 -0.5581
  545TIP3    H123050   2.524   3.028  12.920 -0.2243  0.2589 -1.1997
  545TIP3    H223051   2.443   3.155  12.941 -0.9615 -0.5271  0.9061
  546TIP3   OH223052   0.571   4.291  16.894 -0.3524  0.7110 -0.3574
  546TIP3    H123053   0.647   4.341  16.866  0.0100 -0.5943 -1.8093
  546TIP3    H223054   0.552   4.324  16.982  2.4468  0.4639  0.4377
  547TIP3   OH223055   1.017   5.405  15.630 -0.0885  0.0304  0.3019
  547TIP3    H123056   0.953   5.405  15.701 -0.8685 -0.7164 -0.3843
  547TIP3    H223057   1.038   5.313  15.616 -0.3230  0.1205 -0.7619
  548TIP3   OH223058   0.101   6.035  12.472 -0.6299  0.0507  0.5813
  548TIP3    H123059   0.038   6.088  12.423 -0.1985  0.3987  0.3986
  548TIP3    H223060   0.122   6.087  12.549  0.6907  0.7184 -0.1717
  549TIP3   OH223061   2.232   0.657  12.908  0.7025 -0.6898  0.2238
  549TIP3    H123062   2.143   0.623  12.900  0.3856 -0.2594  1.6034
  549TIP3    H223063   2.277   0.626  12.829 -1.2792  1.0679 -1.7138
  550TIP3   OH223064   2.360   2.948   3.470 -0.2032 -0.0601 -0.1256
  550TIP3    H123065   2.276   2.924   3.431 -0.6946  2.4341 -0.8151
  550TIP3    H223066   2.425   2.913   3.409 -0.7587 -1.2577 -0.0528
  551TIP3   OH223067   4.271   5.964  15.982  0.7914 -0.7210 -1.0015
  551TIP3    H123068   4.301   5.890  16.035  1.0741 -0.5182 -0.8774
  551TIP3    H223069   4.261   5.928  15.894  0.7691 -0.9455 -0.9077
  552TIP3   OH223070   6.405   2.284  14.248  0.3965  0.2581  0.0867
  552TIP3    H123071   6.473   2.245  14.193  1.5081 -0.7562  2.0737
  552TIP3    H223072   6.453   2.338  14.312 -0.8491  1.4635  0.0606
  553TIP3   OH223073   5.190   5.488   1.080  0.1123  0.4682 -0.2447
  553TIP3    H123074   5.167   5.573   1.042 -0.2365  0.3044 -0.4084
  553TIP3    H223075   5.121   5.428   1.049  0.6386  0.0125 -0.5599
  554TIP3   OH223076   3.707   5.869  15.118  0.3646  0.2699  0.0496
  554TIP3    H123077   3.645   5.812  15.164  0.4982 -0.5632 -0.7654
  554TIP3    H223078   3.743   5.925  15.187 -0.9117  0.4232  0.6119
  555TIP3   OH223079   1.987   0.823  11.639 -0.0493  0.0549  0.0084
  555TIP3    H123080   1.955   0.741  11.677 -1.7918  1.1287  1.0002
  555TIP3    H223081   2.050   0.855  11.703  1.8888 -1.2339 -1.1464
  556TIP3   OH223082   3.646   4.024  16.554  0.4676  0.2624 -0.1669
  556TIP3    H123083   3.631   4.114  16.526  0.3891  0.8534  1.6031
  556TIP3    H223084   3.717   3.992  16.499 -1.5999  0.2663 -3.0464
  557TIP3   OH223085   4.313   3.355  16.155  0.5244  0.3178  0.3843
  557TIP3    H123086   4.369   3.291  16.110 -0.5957 -0.2420 -0.2501
  557TIP3    H223087   4.304   3.321  16.244 -0.3535 -0.6384 -0.0421
  558TIP3   OH223088   1.689   1.156   1.210 -0.6006  0.1167  0.0356
  558TIP3    H123089   1.735   1.235   1.238 -0.3075 -0.6654  1.9300
  558TIP3    H223090   1.740   1.084   1.248 -1.1482 -0.9625 -1.2088
  559TIP3   OH223091   2.510   1.593   2.596 -0.0852  0.5370  0.2856
  559TIP3    H123092   2.576   1.553   2.539  0.2442 -0.0312  1.0577
  559TIP3    H223093   2.432   1.598   2.541  0.4425  0.7559 -0.4789
  560TIP3   OH223094   4.199   2.474   2.214  0.4822 -0.1200  0.0226
  560TIP3    H123095   4.246   2.391   2.198  1.0416  0.0382  0.7693
  560TIP3    H223096   4.110   2.447   2.235  0.9776 -0.6448  1.5701
  561TIP3   OH223097   5.204   3.649  17.244  0.2241 -0.2335 -0.5503
  561TIP3    H123098   5.129   3.613  17.292  0.7879 -1.5821 -0.6337
  561TIP3    H223099   5.176   3.645  17.152  0.2762 -0.4444 -0.5583
  562TIP3   OH223100   3.012   3.155  13.616  0.0316  0.4933 -0.3927
  562TIP3    H123101   2.957   3.108  13.553 -0.2897  1.9287 -1.2318
  562TIP3    H223102   2.991   3.247  13.602  3.0113  1.1811 -1.1547
  563TIP3   OH223103   3.058   6.517  11.886  0.4118 -0.1801  0.3884
  563TIP3    H123104   3.067   6.591  11.826 -0.6036 -0.4037 -0.0701
  563TIP3    H223105   3.025   6.446  11.831 -1.8276 -0.0196  1.4056
  564TIP3   OH223106   2.171   2.778  12.242  0.0105 -0.7533  0.1648
  564TIP3    H123107   2.169   2.770  12.146 -1.0121 -2.3719  0.2790
  564TIP3    H223108   2.079   2.774  12.268  0.2195  0.5572  1.1836
  565TIP3   OH223109   3.049   1.378  14.682 -0.4996 -0.1763 -0.6050
  565TIP3    H123110   3.033   1.313  14.613  0.4927 -1.0323 -0.0673
  565TIP3    H223111   3.133   1.352  14.720 -0.5781  0.8308  0.3132
  566TIP3   OH223112   5.116   5.555  15.676  0.7169  0.2221  0.4218
  566TIP3    H123113   5.130   5.525  15.766  2.6396 -0.4293 -0.0519
  566TIP3    H223114   5.166   5.637  15.670  1.3715 -0.2153 -0.2928
  567TIP3   OH223115   1.554   6.130  14.024  0.4079 -0.1425  0.2664
  567TIP3    H123116   1.628   6.074  14.050  0.8987  0.7234  0.7844
  567TIP3    H223117   1.591   6.189  13.958 -0.3216 -0.9795 -0.9237
  568TIP3   OH223118   6.721   1.196   1.376  0.2623 -0.2064  0.7115
  568TIP3    H123119   6.689   1.110   1.349  1.2972 -0.1751 -0.7059
  568TIP3    H223120   6.811   1.200   1.345 -0.1407  1.8747 -0.4187
  569TIP3   OH223121   1.299   3.614  15.756 -0.0445 -0.0068 -0.1055
  569TIP3    H123122   1.227   3.676  15.745  0.7431  1.6272  2.8577
  569TIP3    H223123   1.360   3.635  15.685 -0.8043  1.0923 -0.4645
  570TIP3   OH223124   3.438   0.587  11.104 -0.1175  0.0720  0.2161
  570TIP3    H123125   3.450   0.493  11.092 -0.8152  0.0956 -0.8581
  570TIP3    H223126   3.494   0.627  11.038 -0.9963  0.3455 -0.3928
  571TIP3   OH223127   6.447   3.013   0.556  0.3227  0.4029 -0.2050
  571TIP3    H123128   6.465   3.063   0.636  2.7584  1.9889 -1.6129
  571TIP3    H223129   6.356   3.032   0.535 -0.4675 -0.2602  2.2551
  572TIP3   OH223130   5.489   5.298   5.992 -0.0485 -0.4452 -0.1455
  572TIP3    H123131   5.494   5.276   5.899 -0.0231  0.4485 -0.3630
  572TIP3    H223132   5.521   5.219   6.037 -0.7853 -1.1710 -0.8552
  573TIP3   OH223133   0.377   4.193   1.129  0.0292 -0.3320  0.2515
  573TIP3    H123134   0.332   4.110   1.111 -0.2911 -0.1931  0.3940
  573TIP3    H223135   0.372   4.242   1.047 -1.4791  0.3248  0.7025
  574TIP3   OH223136   2.840   1.789  15.583 -0.0878  0.6817 -0.1116
  574TIP3    H123137   2.845   1.839  15.501  0.7000 -0.9271 -1.0963
  574TIP3    H223138   2.924   1.804  15.626 -0.1810  0.8673  0.0076
  575TIP3   OH223139   1.883   6.252  11.755  0.1332 -0.2311 -0.0516
  575TIP3    H123140   1.834   6.213  11.827  2.4635  1.1234  2.4659
  575TIP3    H223141   1.894   6.344  11.780  2.8422 -0.1894 -1.0181
  576TIP3   OH223142   3.373   5.507   5.818  0.0357 -0.3626  0.6152
  576TIP3    H123143   3.329   5.455   5.885 -1.5465 -0.9378 -0.7924
  576TIP3    H223144   3.305   5.566   5.784  0.6223 -0.4644 -0.8369
  577TIP3   OH223145   5.114   6.093   5.201  0.5752  0.0412  0.1284
  577TIP3    H123146   5.117   6.178   5.245  0.1165 -0.4595  1.1596
  577TIP3    H223147   5.135   6.029   5.270  0.1046 -0.7397 -0.4371
  578TIP3   OH223148   2.982   5.389  15.351  0.1305 -0.0909  0.5696
  578TIP3    H123149   3.033   5.309  15.366 -0.6890 -0.4674  1.4754
  578TIP3    H223150   3.044   5.460  15.367  1.0135 -0.5214 -0.7651
  579TIP3   OH223151   0.244   1.209  13.123 -0.1509 -0.4481  0.0502
  579TIP3    H123152   0.264   1.257  13.203 -0.0652 -0.0581 -0.2012
  579TIP3    H223153   0.165   1.159  13.143  0.4749 -1.1971  0.7207
  580TIP3   OH223154   6.071   1.849   0.779  0.0393 -0.2766 -0.3288
  580TIP3    H123155   6.020   1.802   0.844  1.2836 -1.5498 -0.2168
  580TIP3    H223156   6.101   1.928   0.823  0.6387 -0.9893  0.5787
  581TIP3   OH223157   4.666   2.643   1.773  0.4525  0.1516 -0.7989
  581TIP3    H123158   4.669   2.550   1.750  0.2624 -0.0290 -0.1290
  581TIP3    H223159   4.685   2.689   1.691  2.1359 -0.5011 -0.8015
  582TIP3   OH223160   2.689   0.531  12.947 -0.0162  0.5595  0.0037
  582TIP3    H123161   2.630   0.556  13.018 -0.8407  0.8878 -0.7667
  582TIP3    H223162   2.640   0.553  12.867  0.5756 -0.4919 -0.6693
  583TIP3   OH223163   0.648   1.222  15.939  0.2541  0.1309  0.5781
  583TIP3    H123164   0.649   1.314  15.913 -0.5033  0.6118  2.1326
  583TIP3    H223165   0.588   1.180  15.877  0.5264  0.6828 -0.0735
  584TIP3   OH223166   1.754   5.233  10.966 -0.4046 -0.4869  0.4474
  584TIP3    H123167   1.677   5.194  11.008 -1.0339 -1.8282 -1.7991
  584TIP3    H223168   1.744   5.211  10.874  1.6173  1.1559 -0.2202
  585TIP3   OH223169   5.608   0.352  17.029  0.2137 -0.9366  0.4511
  585TIP3    H123170   5.685   0.398  16.993  0.4696 -1.8100 -0.1521
  585TIP3    H223171   5.538   0.371  16.966  0.1211 -0.7368  0.6136
  586TIP3   OH223172   5.950   5.698   2.557  0.6754  0.6389  0.5904
  586TIP3    H123173   6.031   5.647   2.550  0.5801  0.5178  0.3734
  586TIP3    H223174   5.940   5.740   2.472  0.1473  0.1042  0.3802
  587TIP3   OH223175   2.902   5.575   2.107 -0.3916 -0.4541 -0.4313
  587TIP3    H123176   2.977   5.564   2.047  1.0910  2.0070  0.8299
  587TIP3    H223177   2.828   5.594   2.049  0.1170 -1.9277 -1.6532
  588TIP3   OH223178   6.141   0.471   2.067  0.0091  0.1585 -0.0502
  588TIP3    H123179   6.055   0.461   2.108  0.3462  0.0604  0.6540
  588TIP3    H223180   6.202   0.439   2.133  0.7364  1.9213  0.1848
  589TIP3   OH223181   4.322   5.019  15.251  0.4869  0.1225  0.4929
  589TIP3    H123182   4.365   4.984  15.328  2.3682  1.5214  0.1469
  589TIP3    H223183   4.357   4.967  15.178  1.6536  1.2434  0.2139
  590TIP3   OH223184   2.330   1.087   3.791  0.0668  0.0999  0.3146
  590TIP3    H123185   2.387   1.140   3.847  0.2905  1.0962 -0.8308
  590TIP3    H223186   2.354   0.997   3.812 -1.1932  0.3117  3.2426
  591TIP3   OH223187   3.003   1.400  10.628 -0.2452  0.0610 -0.2612
  591TIP3    H123188   3.075   1.431  10.573  0.0010  1.2177  0.6780
  591TIP3    H223189   2.992   1.308  10.603  0.9390  0.1177 -1.0705
  592TIP3   OH223190   6.478   4.655   3.829  0.3467  0.2149 -0.1165
  592TIP3    H123191   6.464   4.748   3.847 -2.1005 -0.0057 -0.6339
  592TIP3    H223192   6.460   4.645   3.736  1.9095 -0.5876 -0.3684
  593TIP3   OH223193   5.462   1.579  11.395  0.6077 -0.1643  0.1884
  593TIP3    H123194   5.520   1.595  11.320  0.2678  2.3185  0.3847
  593TIP3    H223195   5.460   1.662  11.442 -0.8588 -1.0496  1.7865
  594TIP3   OH223196   1.069   4.447   3.319 -0.2588  0.1898 -0.2088
  594TIP3    H123197   1.103   4.481   3.236  2.1417 -1.0664  0.1493
  594TIP3    H223198   1.084   4.518   3.382  1.8037 -0.2869 -0.0842
  595TIP3   OH223199   0.515   3.887   1.251 -0.0312  0.1863  0.0504
  595TIP3    H123200   0.426   3.906   1.220 -0.6517  1.7669  2.5425
  595TIP3    H223201   0.504   3.819   1.317  0.6129  0.3755  0.3597
  596TIP3   OH223202   3.683   5.549   1.338 -0.1923 -0.4105 -0.5029
  596TIP3    H123203   3.664   5.639   1.366  0.1745 -0.0836 -1.2958
  596TIP3    H223204   3.657   5.495   1.413  0.3977  0.4222  0.3257
  597TIP3   OH223205   3.935   4.427  11.677  0.1673  0.3145  0.1210
  597TIP3    H123206   3.898   4.368  11.743  1.0474 -2.6668 -1.8578
  597TIP3    H223207   3.859   4.456  11.626 -0.0491 -1.6760 -0.7802
  598TIP3   OH223208   1.662   5.332  15.993 -0.4792 -0.2538 -0.4328
  598TIP3    H123209   1.738   5.295  15.948  0.9228 -1.0741  2.4047
  598TIP3    H223210   1.686   5.423  16.008  1.2460 -1.0768  2.6955
  599TIP3   OH223211   6.605   2.981   4.689  0.1480  0.6123 -0.1004
  599TIP3    H123212   6.511   2.993   4.682  0.3034  1.7116 -0.5190
  599TIP3    H223213   6.624   2.992   4.782 -0.2168 -0.4215  0.1167
  600TIP3   OH223214   5.717   2.669  12.583 -0.3742 -0.9181 -0.6149
  600TIP3    H123215   5.782   2.725  12.625  0.8574 -1.4662 -1.6944
  600TIP3    H223216   5.757   2.581  12.586 -0.3040 -0.9975 -2.7316
  601TIP3   OH223217   1.363   2.594   0.067 -0.4325  0.4823 -0.0919
  601TIP3    H123218   1.353   2.648  -0.011 -4.0864 -1.3776 -1.1806
  601TIP3    H223219   1.342   2.505   0.037  3.0496 -1.2824  2.0667
  602TIP3   OH223220   1.786   6.484   5.284 -0.1004 -0.2628  0.6919
  602TIP3    H123221   1.796   6.435   5.365  1.7433  1.2531  1.4539
  602TIP3    H223222   1.867   6.533   5.275 -1.0154  1.0659 -1.0992
  603TIP3   OH223223   3.230   2.843   2.024  0.3217  0.5017  0.2451
  603TIP3    H123224   3.233   2.827   1.930  1.2889 -3.1039  0.7372
  603TIP3    H223225   3.320   2.866   2.047  0.5350 -0.5573  0.5134
  604TIP3   OH223226   4.220   0.958  14.374 -0.2198  0.1406  0.2719
  604TIP3    H123227   4.225   0.960  14.469  0.9598 -1.4931  0.2846
  604TIP3    H223228   4.270   1.035  14.346  0.3339  0.0498  0.9729
  605TIP3   OH223229   0.364   3.318  14.082  0.5719 -0.4838  0.1143
  605TIP3    H123230   0.276   3.307  14.119 -0.7634  0.2572 -2.5633
  605TIP3    H223231   0.405   3.232  14.093 -1.3142 -1.5344 -0.4535
  606TIP3   OH223232   2.711   3.644   5.564 -0.5445  0.0536  0.2438
  606TIP3    H123233   2.752   3.731   5.558 -0.9834  0.2365 -0.2136
  606TIP3    H223234   2.617   3.663   5.569 -0.5777 -0.3594  1.2572
  607TIP3   OH223235   3.409   5.591   0.583  0.4812  0.4888 -0.0295
  607TIP3    H123236   3.318   5.595   0.552  0.1281  0.5585  0.9902
  607TIP3    H223237   3.446   5.675   0.557  0.7830 -0.1726 -1.9648
  608TIP3   OH223238   4.266   0.336  12.961  0.0237  0.2006  0.0852
  608TIP3    H123239   4.217   0.368  13.036  1.5904 -2.1071  2.2365
  608TIP3    H223240   4.279   0.414  12.906 -1.8855  1.8035  1.7368
  609TIP3   OH223241   5.953   0.277   0.395 -0.5407  0.5645 -0.2891
  609TIP3    H123242   6.042   0.310   0.410 -0.3540 -0.0474  0.0410
  609TIP3    H223243   5.962   0.217   0.321 -0.9810  1.6556 -1.2435
  610TIP3   OH223244   4.405   2.136  11.856  0.0598  0.3796  0.1577
  610TIP3    H123245   4.310   2.130  11.859 -0.1221  1.4107 -1.7824
  610TIP3    H223246   4.433   2.055  11.815 -0.0783  0.4918 -0.1647
  611TIP3   OH223247   4.340   1.983  10.588  0.1044 -0.5012  0.2616
  611TIP3    H123248   4.302   1.931  10.659 -2.2290  1.4435  0.5580
  611TIP3    H223249   4.393   2.049  10.633 -1.0197  0.4581  0.2050
  612TIP3   OH223250   0.513   2.320   3.172  0.0010 -0.0043 -0.4117
  612TIP3    H123251   0.452   2.285   3.107 -0.0080 -0.7681 -0.0078
  612TIP3    H223252   0.562   2.388   3.125 -0.9276  0.3969 -0.8318
  613TIP3   OH223253   5.525   5.377  15.817 -0.2852 -0.1862  0.2804
  613TIP3    H123254   5.582   5.450  15.794 -1.6417  1.1047  0.8384
  613TIP3    H223255   5.548   5.356  15.908 -0.6658  0.3190  0.4983
  614TIP3   OH223256   6.175   0.016  12.218 -0.5855 -0.2783  0.5258
  614TIP3    H123257   6.178  -0.079  12.221 -0.6413 -0.3288 -0.6654
  614TIP3    H223258   6.133   0.037  12.135 -1.4877  0.7833  1.2157
  615TIP3   OH223259   2.060   1.592   1.872  0.2949  0.1517  0.0471
  615TIP3    H123260   2.118   1.577   1.797  0.9733 -2.2813  0.9593
  615TIP3    H223261   2.105   1.660   1.923  0.5485  0.7962 -0.9916
  616TIP3   OH223262   0.952   5.288   2.729  0.4150 -0.2277 -0.3962
  616TIP3    H123263   0.995   5.337   2.659 -3.5035  2.9255 -0.9557
  616TIP3    H223264   0.985   5.328   2.809 -0.3785  1.2225 -0.7581
  617TIP3   OH223265   4.134   0.789   5.074 -0.4765 -0.3184  0.2375
  617TIP3    H123266   4.091   0.757   5.153  0.7871  0.1590  1.1427
  617TIP3    H223267   4.207   0.842   5.106  0.3142 -0.4633 -1.2587
  618TIP3   OH223268   0.512   2.373  15.904  0.1051 -0.3456 -0.1978
  618TIP3    H123269   0.496   2.279  15.912 -0.2446 -0.2330  0.4174
  618TIP3    H223270   0.447   2.403  15.840 -1.2193 -0.1484  1.2104
  619TIP3   OH223271   0.005   6.177   2.633  0.0123  0.0048 -0.1006
  619TIP3    H123272   0.008   6.244   2.565 -1.1041  0.3198  0.1322
  619TIP3    H223273  -0.069   6.121   2.607 -0.7629  0.4322  1.1042
  620TIP3   OH223274   0.975   3.368  13.762  0.1352 -0.1932  0.0324
  620TIP3    H123275   0.981   3.437  13.696 -0.8489 -0.5833 -0.4914
  620TIP3    H223276   1.006   3.290  13.717 -1.1479 -0.5963 -0.2124
  621TIP3   OH223277   3.026   0.402   5.700 -0.1455  0.6739 -0.4461
  621TIP3    H123278   3.008   0.448   5.782  0.2762  0.2976 -0.1366
  621TIP3    H223279   2.996   0.313   5.715  1.3449  0.1918 -0.1359
  622TIP3   OH223280   5.708   3.440   1.243 -0.0341 -0.3301  0.3282
  622TIP3    H123281   5.794   3.479   1.228  0.1711  0.1782  2.5390
  622TIP3    H223282   5.679   3.475   1.327 -1.7562 -1.6399  0.3453
  623TIP3   OH223283   0.653   1.906  13.342 -0.0069  0.1796 -0.3065
  623TIP3    H123284   0.655   2.001  13.328 -0.0677  0.5192  1.7825
  623TIP3    H223285   0.619   1.895  13.430 -0.2696 -1.8230 -0.6111
  624TIP3   OH223286   3.961   4.912   5.653 -0.0290  0.2256  0.0106
  624TIP3    H123287   4.049   4.916   5.690 -0.2955 -0.4904  0.7823
  624TIP3    H223288   3.909   4.871   5.722 -0.8294  0.0421 -0.6874
  625TIP3   OH223289   3.419   2.988  12.829 -0.3520 -0.4849 -0.4496
  625TIP3    H123290   3.405   2.985  12.923 -0.5628 -0.1438 -0.4682
  625TIP3    H223291   3.382   2.906  12.796  1.2570 -1.4180 -0.0480
  626TIP3   OH223292   0.382   6.582   0.061  0.4404  0.2830 -0.3265
  626TIP3    H123293   0.420   6.590   0.148  0.4711  3.5792 -0.5481
  626TIP3    H223294   0.288   6.587   0.075  0.4476  0.8792 -0.4783
  627TIP3   OH223295   1.404   2.360  10.647 -0.0558 -0.5989  0.0730
  627TIP3    H123296   1.317   2.398  10.664  0.2701  1.2090 -1.9302
  627TIP3    H223297   1.387   2.288  10.586 -0.2755 -1.2611  0.8947
  628TIP3   OH223298   3.739   2.444   5.478 -0.7587 -0.0248 -0.3701
  628TIP3    H123299   3.716   2.456   5.570 -1.1498  0.8574 -0.5732
  628TIP3    H223300   3.703   2.521   5.434 -0.7638 -0.5401 -1.2961
  629TIP3   OH223301   6.111   5.290   1.766  0.3410  0.3525  0.6683
  629TIP3    H123302   6.196   5.285   1.808  1.0376  2.3062 -0.4112
  629TIP3    H223303   6.101   5.205   1.721  2.4171  0.6533 -0.4595
  630TIP3   OH223304   0.457   3.486   1.375  0.2331  0.4431  0.2461
  630TIP3    H123305   0.408   3.404   1.386  1.7081 -0.3051  1.5699
  630TIP3    H223306   0.502   3.499   1.458  0.4489  2.3351 -0.1314
  631TIP3   OH223307   1.355   1.563  11.695 -0.2064 -0.1893 -0.3393
  631TIP3    H123308   1.415   1.519  11.755  0.4004 -0.9693 -1.4819
  631TIP3    H223309   1.411   1.620  11.642 -0.8672  1.3168  0.5062
  632TIP3   OH223310   2.114   1.131   0.632 -0.3672 -0.8907  0.2417
  632TIP3    H123311   2.084   1.179   0.709  0.9235  1.9872 -0.9199
  632TIP3    H223312   2.208   1.121   0.645 -0.1657 -0.5487 -0.8573
  633TIP3   OH223313   4.224   6.252  12.780  0.1629  0.8062  0.1035
  633TIP3    H123314   4.293   6.256  12.846  0.1331 -0.2726  0.2316
  633TIP3    H223315   4.199   6.343  12.765  2.1309  1.2930 -0.5086
  634TIP3   OH223316   6.398   5.799  16.746  0.0383 -0.2094 -0.5259
  634TIP3    H123317   6.371   5.762  16.662  0.2553 -0.7406 -0.3677
  634TIP3    H223318   6.419   5.723  16.800 -1.6467  0.0257  0.5633
  635TIP3   OH223319   0.467   1.973   2.532 -0.1591 -0.2238 -0.0540
  635TIP3    H123320   0.447   2.037   2.464  2.5366  1.4294  0.5228
  635TIP3    H223321   0.382   1.943   2.564 -1.5035  0.2207 -2.9160
  636TIP3   OH223322   3.063   3.858  11.825  0.1979 -0.4025 -0.1553
  636TIP3    H123323   3.107   3.795  11.769  0.8762 -0.6169  0.6004
  636TIP3    H223324   3.004   3.906  11.766  0.1994 -1.2527 -0.8608
  637TIP3   OH223325   5.506   3.202  16.024 -0.3036 -0.2557 -0.0732
  637TIP3    H123326   5.581   3.146  16.004  0.1153  0.3424 -0.2336
  637TIP3    H223327   5.465   3.218  15.939 -0.0811  0.1351 -0.1142
  638TIP3   OH223328   3.721   0.289  13.204 -0.6407  0.5844  0.2775
  638TIP3    H123329   3.711   0.230  13.279  0.8795  0.6519  0.5737
  638TIP3    H223330   3.753   0.233  13.134  0.0878  0.9026  0.3443
  639TIP3   OH223331   5.527   1.442  11.010  0.2551  0.0786 -0.3619
  639TIP3    H123332   5.459   1.507  10.994  0.7857  0.6377 -0.3654
  639TIP3    H223333   5.608   1.483  10.981  0.4094 -1.1738 -1.8263
  640TIP3   OH223334   2.031   3.847   3.092  0.0232 -0.1008 -0.0655
  640TIP3    H123335   1.972   3.917   3.121  0.9584  1.1156 -0.9874
  640TIP3    H223336   2.114   3.865   3.136 -0.1009 -1.4998  0.8156
  641TIP3   OH223337   0.628   5.154  11.489  0.3075  0.8718 -0.3407
  641TIP3    H123338   0.580   5.078  11.457  0.5844  1.1686 -1.5521
  641TIP3    H223339   0.564   5.203  11.541  0.5997 -1.0323  1.9857
  642TIP3   OH223340   0.096   0.527  16.431 -0.1418  0.2124 -0.3345
  642TIP3    H123341   0.127   0.531  16.340 -0.3085  1.7426 -0.3497
  642TIP3    H223342   0.129   0.443  16.463 -0.0440 -0.3425 -1.7923
  643TIP3   OH223343   2.114   4.995  15.633  0.9546 -0.0511  0.3378
  643TIP3    H123344   2.129   5.036  15.718  1.6314  1.1257 -0.3068
  643TIP3    H223345   2.191   4.940  15.619  0.8631 -0.2121  0.4714
  644TIP3   OH223346   3.705   2.367  13.856 -0.0122 -0.0204 -0.4068
  644TIP3    H123347   3.718   2.461  13.871 -0.9736  0.3201 -1.6156
  644TIP3    H223348   3.634   2.343  13.916  3.2616 -1.0901  3.4671
  645TIP3   OH223349   6.383   4.213   3.185  0.2103 -0.7822 -0.0622
  645TIP3    H123350   6.442   4.273   3.140 -0.8390 -0.8922 -1.6423
  645TIP3    H223351   6.379   4.136   3.128 -2.5781 -0.1997 -0.7893
  646TIP3   OH223352   1.007   1.020  15.502 -0.1038 -0.0290 -0.1442
  646TIP3    H123353   0.932   1.049  15.450 -0.4432  1.3234  1.0252
  646TIP3    H223354   1.076   1.082  15.481 -0.2529  0.5434  1.0121
  647TIP3   OH223355   2.404   1.283  13.620 -0.5834 -0.1032  0.4361
  647TIP3    H123356   2.495   1.253  13.618  0.0825  1.8068 -1.1932
  647TIP3    H223357   2.402   1.344  13.693 -0.7161 -0.5358  0.8003
  648TIP3   OH223358   5.115   5.212   5.096 -0.4635 -0.0954  0.1639
  648TIP3    H123359   5.197   5.249   5.130 -0.2968 -0.4238  0.1234
  648TIP3    H223360   5.095   5.264   5.018 -1.6404  1.6686  1.5480
  649TIP3   OH223361   1.808   0.616   4.838 -0.2435  0.0457  0.4389
  649TIP3    H123362   1.746   0.686   4.819  0.0775  0.0178 -0.7770
  649TIP3    H223363   1.755   0.537   4.841 -0.3823  0.1274  0.1748
  650TIP3   OH223364   4.944   1.207  11.229  0.1312 -0.1822  0.2742
  650TIP3    H123365   5.032   1.173  11.241  0.2018  0.2315  0.9945
  650TIP3    H223366   4.956   1.289  11.180 -0.0023 -0.9275 -1.0585
  651TIP3   OH223367   6.108   3.629   2.090  0.1755 -0.2406  0.0047
  651TIP3    H123368   6.203   3.626   2.077  0.2299  0.3314  0.2527
  651TIP3    H223369   6.096   3.678   2.171 -0.2535 -1.9559  1.0383
  652TIP3   OH223370   1.074   4.121   1.182 -0.6635 -0.1303  0.0504
  652TIP3    H123371   1.089   4.150   1.092 -1.2759  0.9621  0.2744
  652TIP3    H223372   1.080   4.026   1.179 -0.1961 -0.0789 -1.0495
  653TIP3   OH223373   5.264   5.105   4.350 -0.1169  0.2236  0.0301
  653TIP3    H123374   5.260   5.036   4.284 -1.0806 -1.1734  1.4817
  653TIP3    H223375   5.268   5.059   4.433  1.9139  1.9252  0.9625
  654TIP3   OH223376   1.498   6.689  15.257 -0.0560  0.2368  0.3380
  654TIP3    H123377   1.557   6.643  15.197  0.4986 -0.1871  1.1847
  654TIP3    H223378   1.417   6.637  15.256 -0.3966  0.7581 -0.7404
  655TIP3   OH223379   6.372   0.813  16.631 -0.1660 -0.6322 -0.0173
  655TIP3    H123380   6.282   0.793  16.605 -0.2239 -0.6915  0.2311
  655TIP3    H223381   6.401   0.735  16.680 -0.6915  0.2183  1.7230
  656TIP3   OH223382   0.845   6.682  12.631 -0.2566 -0.1863  0.2100
  656TIP3    H123383   0.842   6.630  12.551  1.3629  1.1609 -0.7743
  656TIP3    H223384   0.937   6.704  12.643 -0.6356  0.7587  1.7252
  657TIP3   OH223385   5.548   6.484   3.908  0.2102  0.0617  0.5064
  657TIP3    H123386   5.559   6.529   3.992  1.7865 -0.0343  0.3737
  657TIP3    H223387   5.631   6.496   3.863 -0.9079  0.9284 -1.4788
  658TIP3   OH223388   2.395   3.923  13.065  0.1736  0.8106  0.5308
  658TIP3    H123389   2.374   3.952  13.154 -1.5196 -0.6472  0.6637
  658TIP3    H223390   2.317   3.942  13.014  0.1947 -0.5670 -0.0683
  659TIP3   OH223391   5.737   2.917  11.126  0.8607  0.0991 -0.2005
  659TIP3    H123392   5.696   2.831  11.116 -0.5807  0.7689 -0.2977
  659TIP3    H223393   5.719   2.942  11.217 -0.8832  1.3134 -0.8209
  660TIP3   OH223394   4.096   6.559   5.697 -0.1486 -0.0037 -0.2247
  660TIP3    H123395   4.016   6.611   5.695 -0.3366 -0.2143  0.8919
  660TIP3    H223396   4.156   6.603   5.638 -0.2297  1.6077  0.8388
  661TIP3   OH223397   2.487   6.313   2.182 -0.1332 -0.1829 -0.1868
  661TIP3    H123398   2.457   6.244   2.123 -0.2071  0.2811 -0.7088
  661TIP3    H223399   2.472   6.279   2.270 -1.6624 -0.2002 -0.4366
  662TIP3   OH223400   2.334   1.015   1.001 -0.1302 -0.0181  0.4020
  662TIP3    H123401   2.265   0.969   1.050  0.9602 -2.5728 -0.3001
  662TIP3    H223402   2.383   1.062   1.068  0.6325 -2.5186  1.7419
  663TIP3   OH223403   1.623   4.283  16.487 -0.1862  0.1144  0.2291
  663TIP3    H123404   1.546   4.232  16.511 -0.1348 -0.1522 -0.1608
  663TIP3    H223405   1.678   4.222  16.439  0.5457  0.1364  1.0187
  664TIP3   OH223406   1.243   1.321   4.409 -0.1309 -0.1964 -0.3516
  664TIP3    H123407   1.206   1.385   4.470  0.0982  1.3255 -1.7384
  664TIP3    H223408   1.172   1.260   4.392  0.1506 -1.4443  2.3455
  665TIP3   OH223409   0.017   0.457  16.999  0.4633 -0.0518  0.5405
  665TIP3    H123410  -0.030   0.514  17.060  1.5771 -0.1650  1.5614
  665TIP3    H223411  -0.016   0.369  17.018  1.3533 -0.1922  1.5790
  666TIP3   OH223412   3.573   1.303   3.817 -0.0298 -0.1765 -0.2569
  666TIP3    H123413   3.574   1.248   3.738 -0.4765  0.5622 -0.7908
  666TIP3    H223414   3.666   1.324   3.832  0.1035 -0.7198 -0.3006
  667TIP3   OH223415   6.128   1.224  15.061  0.0500 -0.1038  0.1192
  667TIP3    H123416   6.178   1.304  15.081 -0.3785  0.3792 -0.6537
  667TIP3    H223417   6.038   1.246  15.084 -0.3986  0.3542 -1.8967
  668TIP3   OH223418   2.608   4.839  11.175  0.5733  0.5853 -0.7274
  668TIP3    H123419   2.633   4.776  11.107  1.3987 -1.0199  0.9794
  668TIP3    H223420   2.676   4.905  11.174  0.0689  1.1140 -2.0745
  669TIP3   OH223421   2.434   6.453  14.164  0.0220 -0.4121 -0.0894
  669TIP3    H123422   2.468   6.481  14.079  0.4872 -2.1306 -0.4925
  669TIP3    H223423   2.346   6.422  14.147 -0.6565  1.1235  0.4338
  670TIP3   OH223424   2.755   3.422  14.469  0.6602 -0.7195 -0.6067
  670TIP3    H123425   2.747   3.467  14.553 -1.2911  0.0458 -1.1649
  670TIP3    H223426   2.848   3.428  14.447  0.5917  2.6730 -0.4246
  671TIP3   OH223427   5.440   4.941  14.085 -0.0474  0.2643  0.1980
  671TIP3    H123428   5.382   4.999  14.133  0.0683  0.5848 -0.0425
  671TIP3    H223429   5.430   4.855  14.127  1.1535  0.8405  1.7713
  672TIP3   OH223430   3.018   0.646  14.016  0.5826  0.2044  0.0686
  672TIP3    H123431   3.109   0.646  13.986  0.9345 -0.4095  1.0909
  672TIP3    H223432   3.017   0.583  14.088 -0.7344 -0.0642 -0.1664
  673TIP3   OH223433   2.103   6.058  15.645  0.1023 -0.1991  0.7892
  673TIP3    H123434   2.198   6.054  15.654  0.4602  2.8370 -0.5298
  673TIP3    H223435   2.083   6.006  15.567  0.8382  0.2048  0.3302
  674TIP3   OH223436   0.443   5.437  16.523 -0.1933  0.3840  0.4266
  674TIP3    H123437   0.369   5.447  16.582 -0.4668  0.5581  0.0612
  674TIP3    H223438   0.423   5.358  16.472 -0.1721  0.4887  0.2579
  675TIP3   OH223439   0.438   4.110   3.948 -0.3832 -0.8255 -0.0139
  675TIP3    H123440   0.401   4.187   3.905  0.9424 -1.9593 -3.4782
  675TIP3    H223441   0.364   4.050   3.956 -0.9988  0.0154  0.9471
  676TIP3   OH223442   0.864   0.601   1.383  0.1607 -0.1509 -0.3158
  676TIP3    H123443   0.929   0.539   1.349 -1.0826 -0.9421 -1.3885
  676TIP3    H223444   0.911   0.652   1.448  1.7228 -1.0075 -0.7090
  677TIP3   OH223445   0.112   0.047  14.498 -0.0285 -0.7730  0.0539
  677TIP3    H123446   0.099   0.075  14.588  0.3229  2.1417 -0.6861
  677TIP3    H223447   0.197   0.003  14.498  1.7374  2.3438  0.6429
  678TIP3   OH223448   6.041   3.221  14.171 -0.8219  0.0300 -0.4237
  678TIP3    H123449   6.069   3.172  14.249  2.4613  2.7041  0.3139
  678TIP3    H223450   6.094   3.185  14.100  0.5109  1.3623 -0.1639
  679TIP3   OH223451   1.245   1.730   0.742  0.4535 -0.2390  0.1336
  679TIP3    H123452   1.335   1.760   0.758  1.0526 -2.3483  1.0849
  679TIP3    H223453   1.254   1.637   0.724 -1.4767 -0.3003 -0.7441
  680TIP3   OH223454   6.192   5.374  17.266 -0.4880  0.2360 -0.6366
  680TIP3    H123455   6.103   5.347  17.242  0.0951 -1.4655 -1.0681
  680TIP3    H223456   6.236   5.292  17.289  0.3758  1.2791  1.6676
  681TIP3   OH223457   6.218   1.158   5.468  0.0447 -0.2640  0.6550
  681TIP3    H123458   6.148   1.109   5.425  0.4609 -0.8563  0.6306
  681TIP3    H223459   6.218   1.244   5.426 -1.7863  0.3628  1.8268
  682TIP3   OH223460   0.501   2.769  15.688 -0.5869  0.2386  0.0442
  682TIP3    H123461   0.434   2.824  15.647 -0.3881 -0.1455 -0.8360
  682TIP3    H223462   0.462   2.740  15.770 -1.5190 -0.0178 -0.4737
  683TIP3   OH223463   3.277   4.000   6.762 -0.5148  0.1204  0.8582
  683TIP3    H123464   3.238   3.991   6.675  0.8242  1.4794  0.0777
  683TIP3    H223465   3.274   4.094   6.780 -0.4082 -0.0996  2.1336
  684TIP3   OH223466   5.254   0.213  15.461  0.0285 -0.0946  0.5086
  684TIP3    H123467   5.161   0.197  15.445  0.1388 -0.4176  0.1788
  684TIP3    H223468   5.298   0.174  15.385  0.4552 -0.2450  0.8322
  685TIP3   OH223469   1.686   3.573  11.172 -0.1094  0.0889  0.1853
  685TIP3    H123470   1.645   3.651  11.135  0.5560  0.7402  0.7823
  685TIP3    H223471   1.616   3.532  11.223 -0.2247  0.8004  0.6162
  686TIP3   OH223472   4.609   0.211  13.037 -0.0620 -0.0396 -0.0902
  686TIP3    H123473   4.594   0.283  13.098  0.2300  0.4216 -0.5598
  686TIP3    H223474   4.679   0.241  12.980  0.9058 -1.1798  0.4620
  687TIP3   OH223475   4.454   2.298  13.565 -0.2626 -0.6734 -0.2448
  687TIP3    H123476   4.516   2.368  13.545 -2.4386  2.0562  1.7447
  687TIP3    H223477   4.489   2.256  13.644 -0.5737  0.4627  0.5229
  688TIP3   OH223478   2.799   3.190   1.162 -0.1471  0.4876 -0.4394
  688TIP3    H123479   2.865   3.189   1.231 -0.4808 -2.1391 -0.0645
  688TIP3    H223480   2.846   3.162   1.084 -0.5101  0.0360 -0.4952
  689TIP3   OH223481   3.481   0.866   3.317 -0.1016 -0.0051  0.0953
  689TIP3    H123482   3.557   0.920   3.339 -0.7221  0.6971  0.5956
  689TIP3    H223483   3.474   0.803   3.388  1.5079 -1.7865 -1.2255
  690TIP3   OH223484   0.401   4.089  14.467  0.1643 -0.9784  0.4387
  690TIP3    H123485   0.482   4.096  14.517  1.3635 -2.1732 -1.2445
  690TIP3    H223486   0.337   4.055  14.530  0.4983  1.4005  2.2026
  691TIP3   OH223487   5.734   0.161  14.754  0.2976  0.2381 -0.6602
  691TIP3    H123488   5.680   0.138  14.678  0.1832 -2.9300  0.2258
  691TIP3    H223489   5.807   0.099  14.751 -0.0953 -0.4704  2.1449
  692TIP3   OH223490   1.314   3.269  16.255 -0.0935 -0.1006  0.0023
  692TIP3    H123491   1.244   3.305  16.310  0.2548  0.5060  0.0586
  692TIP3    H223492   1.359   3.208  16.313  0.4392  0.7354  0.4987
  693TIP3   OH223493   0.709   6.536   4.173  0.1548 -0.3346 -0.3638
  693TIP3    H123494   0.706   6.525   4.268  2.3255  0.4212 -0.1485
  693TIP3    H223495   0.782   6.595   4.158 -1.9554  2.0149 -2.3525
  694TIP3   OH223496   6.159   4.996   0.282  0.4001  0.1658 -0.0224
  694TIP3    H123497   6.129   4.960   0.365 -1.4187 -0.6045 -0.9636
  694TIP3    H223498   6.249   4.964   0.273 -0.3134 -2.1250  0.3517
  695TIP3   OH223499   6.318   3.650   4.218 -0.1547  0.0498 -0.5767
  695TIP3    H123500   6.377   3.710   4.171 -0.8761  0.4708 -0.9639
  695TIP3    H223501   6.232   3.667   4.180 -0.5243 -0.5715 -0.0280
  696TIP3   OH223502   2.297   3.546   1.504  0.2653  0.1773 -0.4607
  696TIP3    H123503   2.212   3.588   1.520  0.3624  0.2482 -0.1203
  696TIP3    H223504   2.286   3.456   1.532  0.2237  0.1202 -0.6632
  697TIP3   OH223505   2.250   6.742   2.569 -0.0136  0.0272 -0.2613
  697TIP3    H123506   2.290   6.805   2.509 -0.4244 -0.4631 -1.0681
  697TIP3    H223507   2.230   6.666   2.514  2.8456 -1.9349  1.1299
  698TIP3   OH223508   6.149   0.738   2.136 -0.4631 -0.2697  0.0972
  698TIP3    H123509   6.142   0.654   2.090  0.9868  0.2107 -1.0582
  698TIP3    H223510   6.060   0.774   2.132 -0.9132 -1.3569 -0.1385
  699TIP3   OH223511   5.996   1.799  12.399 -0.7151  0.3111  0.1119
  699TIP3    H123512   5.983   1.893  12.408  1.9878  0.6688  1.5200
  699TIP3    H223513   6.049   1.789  12.320  0.3244  0.1715  0.8066
  700TIP3   OH223514   5.750   5.160  13.553  0.8274  0.6420  0.1124
  700TIP3    H123515   5.699   5.080  13.566  1.4557  0.1988 -0.1472
  700TIP3    H223516   5.715   5.197  13.472  2.3883 -0.8376 -1.3320
  701TIP3   OH223517   6.218   0.013  13.223 -0.6914 -0.3091 -0.1367
  701TIP3    H123518   6.274  -0.018  13.294 -0.6499  1.4894  0.6815
  701TIP3    H223519   6.137   0.041  13.267 -0.3385  1.6415 -0.6376
  702TIP3   OH223520   2.987   2.887  17.286  0.2828  0.4101  0.1588
  702TIP3    H123521   2.946   2.926  17.209  0.1710  0.8042  0.4192
  702TIP3    H223522   3.074   2.927  17.290 -0.0109  1.0045  0.7099
  703TIP3   OH223523   1.410   3.873   5.921  0.0637  0.0824  0.2297
  703TIP3    H123524   1.495   3.840   5.951 -0.1874 -1.3605 -0.5412
  703TIP3    H223525   1.427   3.904   5.832 -0.4734 -1.5177 -0.4647
  704TIP3   OH223526   4.432   4.082  15.981 -0.5550  0.2262 -0.5204
  704TIP3    H123527   4.518   4.080  15.938  0.4043 -1.1075  1.3324
  704TIP3    H223528   4.412   3.990  15.997 -0.8335  0.6594  1.8793
  705TIP3   OH223529   3.780   6.446  13.021 -0.8493 -0.3256 -0.5392
  705TIP3    H123530   3.850   6.484  13.074 -0.8923 -1.8532  0.6831
  705TIP3    H223531   3.784   6.353  13.040  0.1257 -1.2669 -4.3965
  706TIP3   OH223532   3.214   4.338  16.891  0.4412 -0.9507 -0.1752
  706TIP3    H123533   3.202   4.304  16.980  0.1859  0.2140  0.2641
  706TIP3    H223534   3.137   4.309  16.843  0.0802 -0.7439  0.2715
  707TIP3   OH223535   0.995   0.661  16.388  0.3674  0.0023 -0.3295
  707TIP3    H123536   1.047   0.581  16.383  1.2112  0.4973  0.1773
  707TIP3    H223537   0.933   0.655  16.316 -0.7661 -1.9159  0.7309
  708TIP3   OH223538   6.374   6.026   4.567 -0.5546  0.2558  0.2990
  708TIP3    H123539   6.431   6.046   4.493  0.6516 -0.3678  1.0047
  708TIP3    H223540   6.400   6.089   4.635 -0.6577 -0.0717  0.6496
  709TIP3   OH223541   0.242   0.046   2.024  0.1731 -0.3175 -0.1370
  709TIP3    H123542   0.174  -0.003   2.070 -0.6887  1.4031  0.5031
  709TIP3    H223543   0.217   0.039   1.932 -0.8221  0.1945  0.0789
  710TIP3   OH223544   3.435   0.595   5.167 -0.5631 -0.5030  0.4998
  710TIP3    H123545   3.461   0.642   5.247 -2.0005 -0.6724  1.1016
  710TIP3    H223546   3.406   0.664   5.107 -1.5173 -0.5029  0.9369
  711TIP3   OH223547   2.912   1.639  13.150  1.0146  0.4343 -0.0034
  711TIP3    H123548   2.829   1.674  13.118 -0.2811 -2.3249 -0.0457
  711TIP3    H223549   2.933   1.692  13.227 -1.1455  0.8254  0.3759
  712TIP3   OH223550   1.188   4.739  15.477 -0.2513  0.1296  0.0314
  712TIP3    H123551   1.097   4.728  15.452 -0.0784 -1.1225 -0.1486
  712TIP3    H223552   1.189   4.729  15.572 -0.4175  1.0820  0.1365
  713TIP3   OH223553   1.564   2.540  14.141 -0.2087 -0.1220  0.7525
  713TIP3    H123554   1.607   2.581  14.066 -0.4128 -0.2681  0.5539
  713TIP3    H223555   1.636   2.521  14.202  0.0341 -0.5161  0.3526
  714TIP3   OH223556   1.304   1.433   3.493  0.4444 -0.3475 -0.1474
  714TIP3    H123557   1.270   1.501   3.435 -0.0237 -0.7495 -0.3564
  714TIP3    H223558   1.398   1.448   3.496  0.3263  0.3773 -0.0990
  715TIP3   OH223559   3.122   0.139  13.167 -0.4015 -0.3089 -0.5343
  715TIP3    H123560   3.145   0.221  13.210 -0.3780 -0.4682 -0.2381
  715TIP3    H223561   3.153   0.149  13.077  0.1777 -0.2424 -0.3298
  716TIP3   OH223562   5.967   3.710   0.686 -0.2773  0.0363  0.3186
  716TIP3    H123563   6.002   3.719   0.775  0.8032 -0.9064  0.0203
  716TIP3    H223564   6.044   3.713   0.630 -0.7064 -1.4777 -0.4134
  717TIP3   OH223565   3.803   0.494  10.432 -0.4949  0.7372 -0.6214
  717TIP3    H123566   3.727   0.505  10.376 -1.1813  0.9951  0.3413
  717TIP3    H223567   3.785   0.548  10.509 -0.2812 -0.7827  0.5574
  718TIP3   OH223568   2.021   5.194  15.463 -0.2660  0.1432 -0.3613
  718TIP3    H123569   2.041   5.142  15.540  0.3568  1.7114  0.5930
  718TIP3    H223570   2.010   5.130  15.392  2.2718 -1.1849  0.3322
  719TIP3   OH223571   1.606   1.390  16.895  0.7197 -0.0014  0.2377
  719TIP3    H123572   1.559   1.336  16.831  0.5233  0.7002 -0.2160
  719TIP3    H223573   1.573   1.360  16.980  1.7048 -1.6246  0.0935
  720TIP3   OH223574   4.495   5.696   3.367 -0.4030 -0.1257  0.3820
  720TIP3    H123575   4.488   5.668   3.458  1.4551  0.3315  0.7150
  720TIP3    H223576   4.436   5.770   3.360 -1.9212 -1.2553  0.7072
  721TIP3   OH223577   4.497   5.095   2.778 -0.0945 -0.1616  0.7424
  721TIP3    H123578   4.479   5.163   2.712 -0.9537 -1.2475 -0.1692
  721TIP3    H223579   4.555   5.033   2.733 -2.0013 -1.7808  0.4089
  722TIP3   OH223580   6.100   1.789  17.370  0.1187  0.2625 -0.2428
  722TIP3    H123581   6.009   1.767  17.389  1.2501 -3.0666  2.0869
  722TIP3    H223582   6.136   1.710  17.329  2.2603  1.0777 -0.0595
  723TIP3   OH223583   0.057   0.535   4.189  0.4604  0.1557 -0.0810
  723TIP3    H123584  -0.015   0.590   4.159 -0.1051 -1.1633 -1.2693
  723TIP3    H223585   0.130   0.557   4.132 -0.2563 -1.4604 -1.7301
  724TIP3   OH223586   0.285   0.135   4.801  0.1291  0.4506 -0.0383
  724TIP3    H123587   0.237   0.127   4.718  0.3410 -0.6706 -0.0705
  724TIP3    H223588   0.377   0.129   4.775  0.3066  2.0951  0.0805
  725TIP3   OH223589   2.730   2.050   4.902 -0.4465 -0.4393 -0.1355
  725TIP3    H123590   2.806   2.081   4.951 -0.4213  1.7761 -1.4839
  725TIP3    H223591   2.670   2.019   4.970  0.6893 -0.0269  1.1079
  726TIP3   OH223592   2.706   1.142   4.787  1.3549  0.2389  0.0735
  726TIP3    H123593   2.738   1.226   4.754  1.3554  0.4239  0.5490
  726TIP3    H223594   2.629   1.124   4.733  0.4609  1.2776  0.9516
  727TIP3   OH223595   5.723   0.740  11.257  0.2803 -0.3898 -0.4946
  727TIP3    H123596   5.645   0.794  11.270  1.9832  1.7841  1.7251
  727TIP3    H223597   5.795   0.803  11.250  2.2639 -2.3183  1.0748
  728TIP3   OH223598   6.132   3.903   5.351 -0.8121 -0.4017  0.6312
  728TIP3    H123599   6.063   3.883   5.414 -0.4593 -1.0718  0.8088
  728TIP3    H223600   6.180   3.821   5.340 -1.3713 -0.5377 -1.1521
  729TIP3   OH223601   1.565   2.366  11.491  0.3522  0.2109 -0.1580
  729TIP3    H123602   1.589   2.457  11.475 -2.2381  1.4336  2.1077
  729TIP3    H223603   1.505   2.345  11.419 -0.6192  1.0319  0.3836
  730TIP3   OH223604   2.491   2.322  16.824 -0.1721 -0.1488 -0.1334
  730TIP3    H123605   2.397   2.323  16.846 -0.6021  0.8073 -1.8075
  730TIP3    H223606   2.493   2.334  16.729  1.6765 -0.0155 -0.1099
  731TIP3   OH223607   2.391   5.061  16.602  0.7942 -0.2894 -0.4217
  731TIP3    H123608   2.433   4.976  16.594  0.6155 -0.3769 -0.4370
  731TIP3    H223609   2.299   5.045  16.580  1.1231  0.2815 -2.4296
  732TIP3   OH223610   1.070   6.569   1.517 -0.0165 -0.0155  0.4212
  732TIP3    H123611   1.061   6.653   1.472  1.6302 -0.8405 -1.6005
  732TIP3    H223612   1.116   6.589   1.598 -1.2803  1.2367  0.8774
  733TIP3   OH223613   5.642   6.115  11.854  0.1346  0.1609  0.2309
  733TIP3    H123614   5.641   6.020  11.851 -0.0973  0.1846 -0.5777
  733TIP3    H223615   5.718   6.137  11.909  0.4230 -0.4749  0.0853
  734TIP3   OH223616   3.638   5.331  12.363 -0.0881  0.7897 -0.6187
  734TIP3    H123617   3.710   5.390  12.385 -1.0492  1.8125 -0.1496
  734TIP3    H223618   3.657   5.304  12.273  0.6297  1.4195 -0.6691
  735TIP3   OH223619   5.872   4.384   4.802 -0.6193 -0.3638  0.1540
  735TIP3    H123620   5.872   4.318   4.732  0.5649  0.3583 -0.5666
  735TIP3    H223621   5.964   4.409   4.811 -1.0618  1.3813  0.2018
  736TIP3   OH223622   4.294   2.310  12.492 -0.2036  0.3333 -0.4084
  736TIP3    H123623   4.260   2.313  12.403 -1.5262 -2.6548 -0.1064
  736TIP3    H223624   4.216   2.307  12.547  0.6039  1.2338  0.8488
  737TIP3   OH223625   1.174   5.911   5.237 -1.0266  0.2432  0.0886
  737TIP3    H123626   1.117   5.955   5.174 -1.7292 -1.6232 -0.6399
  737TIP3    H223627   1.156   5.955   5.320  1.8081  4.5636 -1.2427
  738TIP3   OH223628   4.251   5.640  14.038  0.5982  0.0353  0.9303
  738TIP3    H123629   4.199   5.584  13.981  0.6739  2.1325 -1.3587
  738TIP3    H223630   4.207   5.634  14.124 -1.3665 -0.8860 -0.0707
  739TIP3   OH223631   5.135   0.981   5.619  0.3961  0.4971  0.5832
  739TIP3    H123632   5.217   0.937   5.602 -0.7131 -1.6489  0.4690
  739TIP3    H223633   5.095   0.993   5.532  0.4553  1.2752  0.6575
  740TIP3   OH223634   6.633   5.267  11.960 -0.1760  0.0707 -0.8294
  740TIP3    H123635   6.699   5.273  11.891 -0.2639 -0.4464 -0.9626
  740TIP3    H223636   6.559   5.319  11.928  0.9286  2.4835  0.2521
  741TIP3   OH223637   0.464   3.418  15.262  0.2791 -0.2884  0.3042
  741TIP3    H123638   0.511   3.388  15.184 -1.2146 -0.9318 -0.3960
  741TIP3    H223639   0.509   3.375  15.335  1.6769  0.2968 -0.1822
  742TIP3   OH223640   5.837   6.221   4.770  0.0669  0.6098  0.1912
  742TIP3    H123641   5.753   6.178   4.787  0.1494  0.0478 -0.7912
  742TIP3    H223642   5.815   6.314   4.768 -0.3505  0.5425  0.9447
  743TIP3   OH223643   0.331   5.961  17.163 -0.2640  0.2561 -0.4365
  743TIP3    H123644   0.331   6.044  17.210 -3.3719  0.6137 -0.8244
  743TIP3    H223645   0.422   5.948  17.135  0.6448  2.5987  1.1572
  744TIP3   OH223646   6.539   1.826  16.266 -0.5656  0.0977  0.3279
  744TIP3    H123647   6.566   1.915  16.243 -0.7648  0.3047  0.8747
  744TIP3    H223648   6.565   1.816  16.358 -0.9270 -0.2522  0.3940
  745TIP3   OH223649   2.314   5.179  11.144 -0.1196 -0.4348 -0.8677
  745TIP3    H123650   2.321   5.228  11.062  0.2333  0.0209 -0.5726
  745TIP3    H223651   2.399   5.191  11.187 -0.7433  0.4647  0.1836
  746TIP3   OH223652   5.814   5.979   3.406 -0.5205  0.3886 -0.3129
  746TIP3    H123653   5.867   5.904   3.430  1.8299  2.0130 -0.0847
  746TIP3    H223654   5.745   5.982   3.472  1.5570  0.5575  2.0096
  747TIP3   OH223655   5.509   2.879  16.668  0.3459  0.5484 -0.1052
  747TIP3    H123656   5.505   2.936  16.744  1.1417  0.2688  0.1593
  747TIP3    H223657   5.511   2.790  16.704  0.9349  0.4192 -0.4263
  748TIP3   OH223658   3.684   4.355  13.831 -0.3488 -0.3378  0.0527
  748TIP3    H123659   3.669   4.441  13.791 -0.5147 -0.3319  0.1278
  748TIP3    H223660   3.632   4.357  13.911 -0.2200 -0.4456  0.1384
  749TIP3   OH223661   5.917   2.744  17.287 -0.6383 -0.3369 -0.5815
  749TIP3    H123662   5.961   2.818  17.329 -0.2087 -0.7406 -0.3133
  749TIP3    H223663   5.840   2.782  17.246  0.0232  0.3969 -1.1521
  750TIP3   OH223664   3.870   5.356  13.333  0.1436 -0.4174 -0.1299
  750TIP3    H123665   3.939   5.359  13.399  1.2381  0.4475 -1.2713
  750TIP3    H223666   3.832   5.443  13.333 -1.0097 -0.9009  0.5206
  751TIP3   OH223667   6.047   1.707  15.534  0.2421 -0.2529  0.5376
  751TIP3    H123668   6.060   1.667  15.621  0.4398  1.0920  1.1482
  751TIP3    H223669   6.134   1.708  15.496 -0.0803 -2.4133 -0.4372
  752TIP3   OH223670   0.421   5.136  11.987  0.1666  0.3005 -0.3223
  752TIP3    H123671   0.390   5.205  12.045 -0.5227  0.0111 -0.3402
  752TIP3    H223672   0.423   5.058  12.043  1.6231  0.4620 -0.1087
  753TIP3   OH223673   1.056   5.865  11.683  0.3156 -0.7786 -0.3127
  753TIP3    H123674   1.051   5.773  11.710  1.4220 -0.3355  1.5588
  753TIP3    H223675   1.146   5.891  11.701 -0.0719  0.8004 -0.4599
  754TIP3   OH223676   1.119   0.336   2.847  0.2893  0.3861 -0.2720
  754TIP3    H123677   1.131   0.419   2.895  0.3814 -0.3389  1.0119
  754TIP3    H223678   1.178   0.342   2.772  1.4127  0.8781  0.6274
  755TIP3   OH223679   5.000   1.252  13.425 -0.2765 -0.3058  0.6629
  755TIP3    H123680   4.956   1.336  13.419  0.2122 -0.1234 -0.7165
  755TIP3    H223681   5.088   1.273  13.456 -0.4227 -0.4217  1.1745
  756TIP3   OH223682   3.074   6.390   5.743 -0.0611  0.4553 -0.6690
  756TIP3    H123683   3.132   6.389   5.667 -0.1652 -1.4966 -0.7596
  756TIP3    H223684   3.000   6.335   5.717 -1.0403  1.3487  0.1564
  757TIP3   OH223685   4.997   4.613  12.277  0.2126  0.1126  0.0063
  757TIP3    H123686   4.973   4.567  12.357 -0.8319  1.1122  0.2842
  757TIP3    H223687   4.944   4.573  12.209 -0.9616  1.0946  0.3085
  758TIP3   OH223688   6.542   3.435  15.305 -0.5971 -0.5063 -0.1450
  758TIP3    H123689   6.626   3.471  15.278  0.0705 -1.2693  0.8146
  758TIP3    H223690   6.513   3.492  15.376 -0.9957 -0.1287 -0.6045
  759TIP3   OH223691   1.184   5.216  17.309 -0.0154  0.8646  0.7785
  759TIP3    H123692   1.101   5.198  17.264 -0.4542 -1.7863  2.4794
  759TIP3    H223693   1.166   5.294  17.362 -0.0677  2.8550 -1.9623
  760TIP3   OH223694   3.945   2.227  13.811  0.0228  0.5002  0.3345
  760TIP3    H123695   3.922   2.180  13.731 -0.2322  1.0997  0.0541
  760TIP3    H223696   3.875   2.291  13.823  0.4440  0.9099  0.6368
  761TIP3   OH223697   6.357   6.700  13.715 -0.1875 -0.0711  0.3889
  761TIP3    H123698   6.418   6.749  13.770  1.4506  0.0261 -1.3862
  761TIP3    H223699   6.325   6.764  13.652  1.7264 -1.0627 -1.7491
  762TIP3   OH223700   0.408   3.662   0.830  0.5674 -0.2164  0.0385
  762TIP3    H123701   0.324   3.626   0.805  0.5129  0.8607 -1.4137
  762TIP3    H223702   0.413   3.648   0.925 -0.4573 -1.8593 -0.1260
  763TIP3   OH223703   3.623   3.134  15.921  0.3705 -0.1292  0.1146
  763TIP3    H123704   3.532   3.161  15.912  0.5761  0.2636 -0.9622
  763TIP3    H223705   3.621   3.039  15.910  0.2186  0.0034 -1.1450
  764TIP3   OH223706   2.456   0.444   0.826 -0.1096 -0.3833 -0.7212
  764TIP3    H123707   2.457   0.539   0.820  1.5227 -0.3740 -0.6731
  764TIP3    H223708   2.452   0.426   0.920 -1.8063 -0.3913 -0.7726
  765TIP3   OH223709   4.674   1.199   4.025  0.1918  0.4660  0.3358
  765TIP3    H123710   4.713   1.286   4.032 -1.9261  1.6724 -1.6302
  765TIP3    H223711   4.737   1.149   3.972  1.8044  0.4617  2.1313
  766TIP3   OH223712   4.546   4.158   2.566 -0.0363 -0.0607  0.0009
  766TIP3    H123713   4.564   4.117   2.650 -2.9430 -0.5829  0.4599
  766TIP3    H223714   4.474   4.108   2.529 -2.2205  3.1197 -0.4738
  767TIP3   OH223715   4.414   6.149   1.771  0.1714  0.0272 -0.6911
  767TIP3    H123716   4.379   6.175   1.686 -2.7216 -4.1457 -1.0868
  767TIP3    H223717   4.495   6.103   1.751  0.3668  0.5181 -1.0216
  768TIP3   OH223718   5.551   4.875  11.394 -0.4618 -0.4082  0.0314
  768TIP3    H123719   5.630   4.856  11.445  0.9225  0.6433 -1.6250
  768TIP3    H223720   5.558   4.819  11.317 -1.4315 -0.4188 -0.0677
  769TIP3   OH223721   2.058   5.462  12.772 -0.5984  0.1706 -0.1274
  769TIP3    H123722   2.063   5.408  12.851  0.1929 -0.2261 -0.4370
  769TIP3    H223723   2.033   5.401  12.703  0.8087  0.0783 -0.5792
  770TIP3   OH223724   0.158   3.156  14.335  0.9081 -0.4939 -0.2468
  770TIP3    H123725   0.107   3.167  14.255  0.3257 -3.0950 -0.3347
  770TIP3    H223726   0.158   3.242  14.376 -1.4325  0.1879 -1.4997
  771TIP3   OH223727   5.799   0.300  13.203 -0.2748 -0.1288  0.6401
  771TIP3    H123728   5.802   0.395  13.218  0.4549  0.0516 -0.4735
  771TIP3    H223729   5.851   0.288  13.123 -2.3173 -1.1970 -0.5839
  772TIP3   OH223730   5.732   5.400   3.370  0.2079  0.0625 -0.6224
  772TIP3    H123731   5.670   5.327   3.368  1.1121 -0.7175 -1.7738
  772TIP3    H223732   5.761   5.409   3.279  2.1366  0.0519 -0.0558
  773TIP3   OH223733   4.641   5.216  16.316 -0.2699 -0.1504 -0.0353
  773TIP3    H123734   4.660   5.224  16.222  0.7785 -0.4266  0.1372
  773TIP3    H223735   4.629   5.307  16.345 -1.3683 -0.1048 -0.5703
  774TIP3   OH223736   6.111   0.755  16.229  0.5703  0.2356  0.4393
  774TIP3    H123737   6.168   0.722  16.299  0.3183  0.5639  0.8007
  774TIP3    H223738   6.121   0.690  16.159  1.3178  0.2357  0.5275
  775TIP3   OH223739   3.330   3.162   6.601  0.4171  0.4233 -0.3805
  775TIP3    H123740   3.326   3.110   6.682 -2.3241 -0.9995 -1.3179
  775TIP3    H223741   3.414   3.138   6.561  1.1679  0.0715  1.2972
  776TIP3   OH223742   6.519   5.956  16.467  0.1621  0.2083 -0.3493
  776TIP3    H123743   6.437   5.929  16.425  0.6166 -0.9952 -0.4951
  776TIP3    H223744   6.582   5.960  16.395  0.3870  0.5082 -0.1380
  777TIP3   OH223745   3.327   6.237   4.356 -0.2780 -0.2300  0.4316
  777TIP3    H123746   3.326   6.212   4.263  1.5050  2.3225 -0.4129
  777TIP3    H223747   3.392   6.179   4.396  0.8110  0.2685 -0.5343
  778TIP3   OH223748   2.754   5.178  15.240 -0.0318 -0.0732  0.4194
  778TIP3    H123749   2.780   5.133  15.320 -0.3582  0.5063  0.8576
  778TIP3    H223750   2.783   5.120  15.169 -1.8365 -1.7900  0.9761
  779TIP3   OH223751   6.681   4.049   3.233  0.7975 -0.3575  0.2129
  779TIP3    H123752   6.723   4.130   3.203  0.6115 -0.3165  0.0682
  779TIP3    H223753   6.672   3.996   3.154 -1.7121  0.6313 -0.2329
  780TIP3   OH223754   2.974   2.556  14.044 -0.5877  0.1435  0.0788
  780TIP3    H123755   3.023   2.634  14.015 -2.1909  1.2230  0.1106
  780TIP3    H223756   3.012   2.534  14.129  0.8278  0.0035 -0.5527
  781TIP3   OH223757   3.353   5.918   1.342  0.0685  0.1307  0.2163
  781TIP3    H123758   3.343   6.013   1.354  0.0685  0.0457  0.9177
  781TIP3    H223759   3.269   5.881   1.369  0.0036 -0.0627 -0.2320
  782TIP3   OH223760   4.383   0.015   5.917  0.1387  0.5209  0.4307
  782TIP3    H123761   4.438   0.025   5.839 -0.0343 -1.3596  0.0324
  782TIP3    H223762   4.445   0.020   5.990  0.6091  0.0657  0.0691
  783TIP3   OH223763   5.533   6.327  12.236  0.2505  0.4086  0.6066
  783TIP3    H123764   5.492   6.282  12.310  0.2029  0.5757  0.6828
  783TIP3    H223765   5.534   6.419  12.262  2.3636  0.2219  1.4256
  784TIP3   OH223766   2.048   4.369   2.629  0.1510 -0.2643  0.0059
  784TIP3    H123767   2.122   4.425   2.652  0.3999 -0.9908  1.0078
  784TIP3    H223768   2.088   4.286   2.601 -0.2936 -1.1048  1.7623
  785TIP3   OH223769   5.416   0.408  16.813 -0.2625 -0.1364  0.6719
  785TIP3    H123770   5.386   0.387  16.724  0.6523 -1.7908  0.7114
  785TIP3    H223771   5.336   0.406  16.866 -0.5128 -1.5457  0.2823
  786TIP3   OH223772   3.226   5.486   5.518  0.2935 -0.0189 -0.4332
  786TIP3    H123773   3.182   5.453   5.440 -2.5866  1.4480  0.4252
  786TIP3    H223774   3.218   5.581   5.513  2.7127  0.2969  0.2509
  787TIP3   OH223775   5.296   4.793   0.300  0.1577 -0.0594  0.6828
  787TIP3    H123776   5.356   4.731   0.341 -0.8476  0.1884  2.7117
  787TIP3    H223777   5.224   4.739   0.267  1.3348 -0.3398 -1.6067
  788TIP3   OH223778   5.966   6.028  12.682 -0.3500 -0.2083 -0.1828
  788TIP3    H123779   6.023   6.072  12.618 -0.5123 -0.0049 -0.1869
  788TIP3    H223780   5.904   5.979  12.628 -1.3337  1.0289 -0.2077
  789TIP3   OH223781   0.761   1.310  14.491  0.5964 -0.1582  0.0739
  789TIP3    H123782   0.703   1.326  14.416 -1.0405 -2.6000  0.6974
  789TIP3    H223783   0.741   1.380  14.552  0.9639  1.0959 -1.2033
  790TIP3   OH223784   4.516   5.352  17.355 -0.2572  0.1905  0.1713
  790TIP3    H123785   4.446   5.361  17.291  0.1082  2.9618  0.0675
  790TIP3    H223786   4.558   5.438  17.358  2.2558 -0.9648  1.2721
  791TIP3   OH223787   1.780   1.647   1.063  0.1366  0.4553 -0.2212
  791TIP3    H123788   1.691   1.642   1.029  0.1521  0.7637 -0.3033
  791TIP3    H223789   1.797   1.559   1.097 -0.2071  0.4021 -0.1831
  792TIP3   OH223790   1.073   0.692  13.983 -0.0244  0.0768  0.9367
  792TIP3    H123791   0.990   0.700  14.031 -0.0731  2.3756  0.5630
  792TIP3    H223792   1.137   0.737  14.038  0.6659 -0.3140  0.4693
  793TIP3   OH223793   2.880   5.766  13.354  0.6744  0.6591  0.0621
  793TIP3    H123794   2.886   5.677  13.387 -2.4313  0.3793  0.1109
  793TIP3    H223795   2.857   5.757  13.261 -4.6233  1.1235  1.0432
  794TIP3   OH223796   3.336   2.374  12.645 -0.7347  0.3934 -0.4031
  794TIP3    H123797   3.347   2.374  12.740 -0.4423 -0.9403 -0.4267
  794TIP3    H223798   3.248   2.410  12.632 -1.6331 -1.3745  0.5036
  795TIP3   OH223799   1.041   2.551  15.975 -0.0207 -0.0851 -0.1269
  795TIP3    H123800   1.041   2.587  16.063  1.4209  2.9869 -1.2210
  795TIP3    H223801   0.952   2.564  15.943 -0.4834 -0.9854  0.7760
  796TIP3   OH223802   2.167   5.840  13.026  0.1118 -0.5031  0.0723
  796TIP3    H123803   2.251   5.796  13.041  0.8746  1.0852  0.5661
  796TIP3    H223804   2.118   5.827  13.107  0.9254  0.7963  0.8016
  797TIP3   OH223805   3.851   2.820   2.069  0.4274 -0.3902  0.3010
  797TIP3    H123806   3.936   2.838   2.109 -0.4121  0.6399  1.6975
  797TIP3    H223807   3.831   2.898   2.017  0.3646 -0.6700 -0.1018
  798TIP3   OH223808   5.358   6.070  14.851  0.7122 -0.2856  0.3290
  798TIP3    H123809   5.286   6.043  14.908  0.7888 -0.9252  0.1424
  798TIP3    H223810   5.350   6.012  14.775 -0.0871  1.3116 -0.8533
  799TIP3   OH223811   0.334   5.258  14.309  0.2534  0.2788  0.1504
  799TIP3    H123812   0.329   5.253  14.214  0.9849  1.2859  0.0446
  799TIP3    H223813   0.340   5.352  14.328  0.6228  0.0636  1.1566
  800TIP3   OH223814   1.563   1.580  15.563  0.5371  0.6590  0.0539
  800TIP3    H123815   1.527   1.622  15.485 -1.5808 -1.0601  0.0302
  800TIP3    H223816   1.513   1.618  15.636 -0.2270 -0.5510  0.1818
  801TIP3   OH223817   1.551   0.539  16.117 -0.1019  0.2198  0.0805
  801TIP3    H123818   1.463   0.518  16.088  0.2533 -3.0063  0.9462
  801TIP3    H223819   1.595   0.572  16.039 -1.4757 -0.1148 -0.8735
  802TIP3   OH223820   3.857   4.672   5.824  0.1949  0.2475  0.4969
  802TIP3    H123821   3.766   4.663   5.794  0.5534  0.6308 -0.7501
  802TIP3    H223822   3.896   4.587   5.808  0.7366  0.8127 -1.4200
  803TIP3   OH223823   4.602   6.286  12.021  0.3610  0.2136 -0.1925
  803TIP3    H123824   4.622   6.238  12.101  0.3972 -0.0978 -0.3875
  803TIP3    H223825   4.643   6.235  11.951  3.8720  2.5061 -0.0748
  804TIP3   OH223826   0.360   5.111   0.636  0.0091  0.2454 -0.7222
  804TIP3    H123827   0.306   5.142   0.563  1.1379  2.6566 -0.5963
  804TIP3    H223828   0.368   5.016   0.621 -3.2721 -0.0651 -1.3434
  805TIP3   OH223829   0.526   0.097   4.032  0.2760 -0.1935 -0.4549
  805TIP3    H123830   0.561   0.160   3.969 -0.7110 -0.3679 -1.2035
  805TIP3    H223831   0.436   0.083   4.004 -0.0228 -0.6679  0.7073
  806TIP3   OH223832   0.313   1.852  14.818 -0.3744  0.0645 -0.0972
  806TIP3    H123833   0.398   1.889  14.842 -1.5474  1.3648  2.5216
  806TIP3    H223834   0.269   1.923  14.771 -1.9376  1.5734  3.3295
  807TIP3   OH223835   0.958   2.689  16.817  0.2675 -0.3974 -0.7705
  807TIP3    H123836   0.888   2.637  16.777 -0.6474  0.5463 -0.4501
  807TIP3    H223837   0.914   2.769  16.847  1.4236  0.0589 -0.2339
  808TIP3   OH223838   3.502   0.608   0.257  0.2325  0.4447  0.5276
  808TIP3    H123839   3.545   0.626   0.174 -1.0853 -2.0172 -0.8013
  808TIP3    H223840   3.479   0.515   0.253 -1.7874  0.7442  2.7385
  809TIP3   OH223841   0.946   6.112   5.290  0.0310  0.3422 -0.0956
  809TIP3    H123842   0.858   6.148   5.300 -0.1617 -0.4471  1.3485
  809TIP3    H223843   0.964   6.069   5.374  1.3548 -0.4670 -0.7586
  810TIP3   OH223844   5.741   4.946   3.971  0.4160 -0.3756  0.0482
  810TIP3    H123845   5.784   4.872   3.928  1.4399  0.6456 -0.7403
  810TIP3    H223846   5.797   4.965   4.046  0.2671 -0.2590  0.1293
  811TIP3   OH223847   5.196   1.480   2.638  0.1878 -0.0320  0.3335
  811TIP3    H123848   5.207   1.571   2.609 -0.1209  0.1452  0.7759
  811TIP3    H223849   5.147   1.486   2.719 -1.0534 -0.6752 -0.3447
  812TIP3   OH223850   6.465   2.002  11.834 -0.2795 -0.2026 -0.5214
  812TIP3    H123851   6.392   2.004  11.772 -1.0385  0.9061  0.3643
  812TIP3    H223852   6.423   2.004  11.920  0.7341  3.9337  0.0805
  813TIP3   OH223853   2.658   2.760  11.870 -0.4364 -0.0429 -0.5206
  813TIP3    H123854   2.657   2.806  11.953 -0.1848 -1.4526  0.2981
  813TIP3    H223855   2.708   2.817  11.811  1.6487 -0.1800  1.0118
  814TIP3   OH223856   2.821   1.598   1.407  0.0393  0.3803  0.3754
  814TIP3    H123857   2.889   1.657   1.438  0.2231 -0.1997  1.0978
  814TIP3    H223858   2.806   1.624   1.316 -0.5790  2.1753  0.9445
  815TIP3   OH223859   3.131   5.662   5.774  0.2866 -0.0851  0.0090
  815TIP3    H123860   3.156   5.732   5.714 -3.2270  1.4127  0.0720
  815TIP3    H223861   3.099   5.707   5.853 -2.3362 -1.6047 -0.0473
  816TIP3   OH223862   2.115   0.880  11.910 -0.0109  0.4620  0.2181
  816TIP3    H123863   2.062   0.956  11.933  2.1081  1.6990  1.3593
  816TIP3    H223864   2.205   0.914  11.905  0.9371 -1.8455  0.1742
  817TIP3   OH223865   5.310   4.124   1.096 -0.1588 -0.0628  0.1836
  817TIP3    H123866   5.253   4.128   1.020 -0.3841 -0.0269  0.3526
  817TIP3    H223867   5.397   4.108   1.060 -0.1324  0.7583 -0.1403
  818TIP3   OH223868   1.124   5.812  10.843 -0.5180 -0.9393  0.0776
  818TIP3    H123869   1.208   5.767  10.852 -0.9381 -1.4410  1.8962
  818TIP3    H223870   1.141   5.881  10.778  1.9679  0.4760  2.0314
  819TIP3   OH223871   2.403   0.765  14.382  0.4710 -0.0786  0.4638
  819TIP3    H123872   2.426   0.724  14.298  1.1965  0.7362  0.2484
  819TIP3    H223873   2.345   0.837  14.358 -1.8506 -1.6730  0.9449
  820TIP3   OH223874   5.768   1.439   1.663  0.2058 -0.1197 -1.0119
  820TIP3    H123875   5.802   1.499   1.597  1.0310  0.2411 -0.2827
  820TIP3    H223876   5.783   1.484   1.746 -2.4897  0.2847 -0.6320
  821TIP3   OH223877   4.307   6.743   5.567 -0.1000 -0.1749  0.2026
  821TIP3    H123878   4.259   6.823   5.547 -2.1725 -1.3287  0.3194
  821TIP3    H223879   4.386   6.773   5.612 -1.4190  1.7566  1.3491
  822TIP3   OH223880   4.886   3.704   1.897  0.1333 -0.2025 -0.0659
  822TIP3    H123881   4.969   3.675   1.860  0.0225 -2.7650  1.4607
  822TIP3    H223882   4.846   3.758   1.828  2.3370 -0.1892 -1.4135
  823TIP3   OH223883   2.390   3.158   3.653 -0.1057  0.2268  0.1013
  823TIP3    H123884   2.460   3.216   3.624 -1.0615  1.5123  0.2659
  823TIP3    H223885   2.399   3.080   3.598  2.1109 -0.1272  0.8723
  824TIP3   OH223886   5.698   5.625   5.741 -0.0317 -0.2349 -0.1222
  824TIP3    H123887   5.682   5.566   5.667  0.4741  0.6783 -0.9890
  824TIP3    H223888   5.611   5.657   5.764 -0.2508 -0.9113  0.0141
  825TIP3   OH223889   3.733   3.253   3.047 -0.1918  0.1709  0.0358
  825TIP3    H123890   3.760   3.304   2.971 -0.5026 -0.6325 -0.6349
  825TIP3    H223891   3.702   3.318   3.110 -1.8687  0.7608 -1.3248
  826TIP3   OH223892   6.600   4.121   4.391  0.1265 -0.3453 -0.4180
  826TIP3    H123893   6.624   4.186   4.325  2.0032 -0.2516  0.3058
  826TIP3    H223894   6.510   4.144   4.416 -0.1641  0.3788 -2.0001
  827TIP3   OH223895   1.610   2.876   4.721 -0.7759 -0.0662  0.8131
  827TIP3    H123896   1.626   2.941   4.653 -2.2796 -3.1120 -2.8468
  827TIP3    H223897   1.690   2.823   4.722 -1.8427 -1.8857 -1.0890
  828TIP3   OH223898   2.597   6.619   1.028  0.0240  0.5100 -0.0141
  828TIP3    H123899   2.561   6.539   0.990  1.8548 -0.6608  0.5603
  828TIP3    H223900   2.542   6.689   0.993 -1.0444 -0.8994 -1.3163
  829TIP3   OH223901   3.513   0.117   5.963  0.0784 -0.0704 -0.1916
  829TIP3    H123902   3.497   0.196   5.911 -3.2248 -1.2471 -1.2625
  829TIP3    H223903   3.428   0.098   6.003  1.3593 -1.8525  1.8664
  830TIP3   OH223904   6.298   5.119  15.298  0.3443 -0.0994 -0.3152
  830TIP3    H123905   6.207   5.091  15.311  0.6986 -1.4566 -0.6134
  830TIP3    H223906   6.310   5.191  15.359 -0.9202  0.0734 -0.2445
  831TIP3   OH223907   5.072   1.686   4.907  0.0116  0.1455  0.4762
  831TIP3    H123908   5.138   1.697   4.975 -1.1494 -0.8147  1.8005
  831TIP3    H223909   5.021   1.767   4.909  1.4056  1.1245 -0.9204
  832TIP3   OH223910   5.230   2.762  13.065 -0.0149 -0.3566 -0.1645
  832TIP3    H123911   5.232   2.854  13.090 -1.7443 -0.3550  0.0565
  832TIP3    H223912   5.218   2.763  12.970 -3.4376 -0.2554  0.1485
  833TIP3   OH223913   4.838   2.045   1.831  0.3543 -0.3118 -0.4081
  833TIP3    H123914   4.757   2.089   1.854  0.2401 -0.9992  0.5678
  833TIP3    H223915   4.811   1.967   1.784  0.3850 -0.9960  0.6730
  834TIP3   OH223916   4.415   2.215   3.053 -0.3935 -0.6330  0.0723
  834TIP3    H123917   4.487   2.175   3.101 -1.0412 -1.8856  0.0369
  834TIP3    H223918   4.336   2.184   3.098 -0.9168  1.2211  0.5085
  835TIP3   OH223919   6.463   2.315  12.471  0.4757 -0.5016  0.2017
  835TIP3    H123920   6.398   2.257  12.509  0.5204 -0.1826  0.7772
  835TIP3    H223921   6.478   2.382  12.538  0.9446 -0.2274 -0.1672
  836TIP3   OH223922   2.966   0.140   4.747 -0.2988  0.5471  0.3051
  836TIP3    H123923   2.917   0.114   4.669  0.2920  0.5819 -0.0803
  836TIP3    H223924   2.908   0.117   4.820  0.8604 -3.7196  0.1779
  837TIP3   OH223925   4.942   6.393   0.232  0.4488  0.0210  0.3073
  837TIP3    H123926   4.849   6.414   0.224  0.3874  0.5063  1.9094
  837TIP3    H223927   4.962   6.341   0.154 -0.5034  2.1168 -1.4466
  838TIP3   OH223928   1.474   4.096   4.831 -0.3928  0.1838 -0.4128
  838TIP3    H123929   1.556   4.131   4.867 -0.0613 -0.3635 -0.6324
  838TIP3    H223930   1.497   4.067   4.743 -1.3051  1.9480 -1.2782
  839TIP3   OH223931   6.048   3.403   3.169  0.5057  0.5398  0.3342
  839TIP3    H123932   6.081   3.465   3.234  1.3022  0.2533  0.2176
  839TIP3    H223933   5.953   3.410   3.175  0.5829  1.9866  0.1122
  840TIP3   OH223934   2.372   2.026   0.967 -0.1065  0.0791  0.4668
  840TIP3    H123935   2.306   2.094   0.954  0.5322  0.7033  0.4469
  840TIP3    H223936   2.417   2.019   0.883 -0.3164 -0.5224  0.4043
  841TIP3   OH223937   1.680   0.382   6.294 -0.2410  0.2829  0.4168
  841TIP3    H123938   1.700   0.340   6.210  1.1748 -0.5408  1.1341
  841TIP3    H223939   1.619   0.452   6.272 -1.8123 -1.4261 -0.9833
  842TIP3   OH223940   6.608   6.429   1.932 -0.1601 -0.3373 -0.1941
  842TIP3    H123941   6.555   6.362   1.888  0.1291 -0.6822 -0.0128
  842TIP3    H223942   6.545   6.478   1.985 -0.2978 -0.7483  0.0230
  843TIP3   OH223943   6.513   1.644  13.952 -0.8015 -0.0057 -0.0964
  843TIP3    H123944   6.586   1.612  13.898 -0.8879  1.5761 -1.2046
  843TIP3    H223945   6.539   1.733  13.977 -2.0272  0.3134  0.0995
  844TIP3   OH223946   1.217   4.146   0.950  0.1307  0.0483  0.1626
  844TIP3    H123947   1.264   4.069   0.918  0.9360  0.2323  0.8371
  844TIP3    H223948   1.279   4.218   0.936 -0.9023  0.7124 -1.1620
  845TIP3   OH223949   5.680   3.435  11.569  0.2155 -0.2829  0.2657
  845TIP3    H123950   5.627   3.359  11.590  0.5532 -0.7117 -0.4040
  845TIP3    H223951   5.658   3.456  11.479  0.7360 -0.0976  0.1756
  846TIP3   OH223952   4.030   3.096  14.186 -0.2034 -0.0354  0.6988
  846TIP3    H123953   3.992   3.041  14.117  1.0143 -0.1953  0.1172
  846TIP3    H223954   4.043   3.181  14.144  1.3744 -0.3786  0.4027
  847TIP3   OH223955   3.316   2.700  12.442  0.0242 -0.0958 -0.7580
  847TIP3    H123956   3.284   2.612  12.420 -3.5292 -0.0657  2.9929
  847TIP3    H223957   3.306   2.750  12.362  0.4846 -2.6546 -2.5429
  848TIP3   OH223958   2.215   2.728  16.207  0.4911  0.6452  0.8200
  848TIP3    H123959   2.220   2.819  16.178  0.4404  0.2781 -0.3739
  848TIP3    H223960   2.299   2.712  16.250  0.8653  0.9973  0.2335
  849TIP3   OH223961   6.204   0.620   3.111 -0.1607  0.2337  0.6061
  849TIP3    H123962   6.218   0.710   3.080  0.2867  0.4276  1.3145
  849TIP3    H223963   6.204   0.629   3.207 -3.3485 -0.0586  0.7100
  850TIP3   OH223964   4.317   5.886   3.467  0.2994  0.2667  0.3802
  850TIP3    H123965   4.300   5.943   3.392 -3.3429 -0.9378  0.0999
  850TIP3    H223966   4.301   5.941   3.543 -0.2432  0.4285  0.1565
  851TIP3   OH223967   2.564   1.817  15.513  0.0631 -0.4170  0.4187
  851TIP3    H123968   2.639   1.842  15.567 -1.7059  0.2154  2.7479
  851TIP3    H223969   2.510   1.764  15.571 -1.3030 -0.8738 -1.2012
  852TIP3   OH223970   0.098   4.172  13.478 -0.0567 -0.1923  0.3767
  852TIP3    H123971   0.176   4.140  13.523 -0.2251 -1.0834  0.0528
  852TIP3    H223972   0.089   4.114  13.402 -1.5971 -0.7376  0.9418
  853TIP3   OH223973   5.932   2.020   2.775  0.8230  0.1179  0.0762
  853TIP3    H123974   6.027   2.024   2.779  0.7831  0.5342  0.8279
  853TIP3    H223975   5.912   2.010   2.681  1.5789  0.7757 -0.1687
  854TIP3   OH223976   0.491   5.741   0.713  0.0550 -0.5074 -0.2267
  854TIP3    H123977   0.415   5.786   0.676 -1.3301 -1.0264  1.7745
  854TIP3    H223978   0.460   5.651   0.727  0.4663 -0.3603  2.0310
  855TIP3   OH223979   4.527   4.321   6.575  0.5235 -0.6915 -0.4722
  855TIP3    H123980   4.618   4.332   6.602  0.1447  0.9683  0.2832
  855TIP3    H223981   4.507   4.229   6.593  0.9204 -0.2199  3.2089
  856TIP3   OH223982   4.247   0.826  17.110 -0.2294  0.2787 -0.4092
  856TIP3    H123983   4.314   0.757  17.111 -1.3285 -0.8749  2.0568
  856TIP3    H223984   4.260   0.875  17.191 -2.0011  0.3276 -0.0927
  857TIP3   OH223985   2.241   3.561   5.266 -0.5291  0.1781 -0.2426
  857TIP3    H123986   2.224   3.487   5.324 -0.6154 -0.5940 -1.2329
  857TIP3    H223987   2.162   3.571   5.214 -0.1821  0.3891 -0.7435
  858TIP3   OH223988   2.689   3.224   3.838 -0.2168 -0.2850  0.1477
  858TIP3    H123989   2.674   3.201   3.929 -0.1254  1.3141  0.6030
  858TIP3    H223990   2.699   3.141   3.793 -1.2819 -1.1382  1.4124
  859TIP3   OH223991   6.057   3.867  11.590 -0.1195 -0.3101  0.3670
  859TIP3    H123992   6.042   3.799  11.656  1.1544  1.2847  2.4205
  859TIP3    H223993   6.128   3.832  11.536  0.4348 -0.7021  1.3150
  860TIP3   OH223994   2.891   3.904   6.695 -0.2708  0.4081  0.2663
  860TIP3    H123995   2.966   3.954   6.723  1.3665 -0.6986 -1.8342
  860TIP3    H223996   2.838   3.966   6.644  1.0387  0.4035 -1.1705
  861TIP3   OH223997   5.498   5.782   2.198 -0.2870 -0.2635  0.3065
  861TIP3    H123998   5.558   5.793   2.124 -0.6362 -0.9401 -0.0870
  861TIP3    H223999   5.474   5.690   2.196 -0.2484 -0.3029  1.3118
  862TIP3   OH224000   5.026   3.106  13.789 -0.2768  0.2604  0.4231
  862TIP3    H124001   5.038   3.189  13.744  1.1334 -0.8678 -1.4448
  862TIP3    H224002   4.935   3.107  13.819 -1.2223  1.2338 -2.2000
  863TIP3   OH224003   6.370   3.399  10.749 -0.1165  0.5154  0.1493
  863TIP3    H124004   6.392   3.365  10.662 -0.4823  0.5367  0.0461
  863TIP3    H224005   6.454   3.425  10.787  0.0384  0.5651 -0.2250
  864TIP3   OH224006   0.744   6.608   5.107  0.2977 -0.1416  0.0298
  864TIP3    H124007   0.778   6.650   5.186 -1.2112 -1.1501  1.3038
  864TIP3    H224008   0.693   6.676   5.063  1.1733  0.4362 -0.0967
  865TIP3   OH224009   5.289   1.717  13.460 -0.0492 -0.6322 -0.8363
  865TIP3    H124010   5.266   1.807  13.483  0.9408 -0.5773 -0.0107
  865TIP3    H224011   5.382   1.720  13.437 -0.1577 -1.3350 -1.4265
  866TIP3   OH224012   5.027   1.464  11.855 -0.1641  0.0746  0.0253
  866TIP3    H124013   5.037   1.535  11.918  1.0797 -0.3602  0.3560
  866TIP3    H224014   5.015   1.508  11.771 -1.1419  0.6601  0.4658
  867TIP3   OH224015   1.030   5.312  13.804  0.4280  0.6202  0.2496
  867TIP3    H124016   0.955   5.354  13.761 -1.4833  0.0985  2.8216
  867TIP3    H224017   1.103   5.372  13.789 -0.9558  2.1544 -0.6967
  868TIP3   OH224018   0.256   3.858   3.678 -0.3982  0.3514  0.0560
  868TIP3    H124019   0.278   3.933   3.624  0.3918 -0.5348 -0.8903
  868TIP3    H224020   0.332   3.844   3.734 -0.5307  0.2426  0.2131
  869TIP3   OH224021   2.039   1.546   0.107  0.0565  0.2340  0.3515
  869TIP3    H124022   2.001   1.614   0.163 -1.5790  0.2782 -0.7474
  869TIP3    H224023   1.963   1.495   0.076  0.9680 -0.2224 -1.2357
  870TIP3   OH224024   5.928   4.524  10.849 -0.4117  0.5618 -0.5363
  870TIP3    H124025   5.920   4.454  10.784  1.0901  0.1579 -0.3204
  870TIP3    H224026   5.933   4.479  10.933 -1.9896  1.0673 -0.1238
  871TIP3   OH224027   1.105   2.208   4.538 -0.8202 -0.1407 -0.0234
  871TIP3    H124028   1.189   2.172   4.508  0.2094  0.5680  1.8047
  871TIP3    H224029   1.129   2.288   4.585 -2.3732 -0.6087  1.6956
  872TIP3   OH224030   1.450   5.267   4.696 -0.4012  0.4333  0.4330
  872TIP3    H124031   1.473   5.291   4.606  0.5923 -1.1236  0.2162
  872TIP3    H224032   1.516   5.310   4.750  0.5418 -0.6017  0.1651
  873TIP3   OH224033   0.167   3.735   2.756  0.2906 -1.0392 -0.4248
  873TIP3    H124034   0.215   3.817   2.743 -0.1233 -1.0023 -1.9083
  873TIP3    H224035   0.110   3.753   2.831  0.3903 -0.0612 -0.5637
  874TIP3   OH224036   6.033   4.135   6.517  0.5433  0.0128  0.5247
  874TIP3    H124037   5.949   4.180   6.513  0.9956  0.8658  0.4098
  874TIP3    H224038   6.011   4.042   6.512 -0.2326  0.2445 -2.5294
  875TIP3   OH224039   2.390   4.135  14.498 -0.5254  0.9067  0.2075
  875TIP3    H124040   2.445   4.210  14.519  0.0711  0.3121  0.7926
  875TIP3    H224041   2.451   4.068  14.468 -0.9884  0.4135  0.3539
  876TIP3   OH224042   1.899   4.521  12.179  0.0068  0.6539  0.6466
  876TIP3    H124043   1.951   4.601  12.188  1.2404 -0.0648  0.1521
  876TIP3    H224044   1.953   4.463  12.126 -0.6926 -0.6647  1.3179
  877TIP3   OH224045   4.350   4.741  16.088  0.0363 -0.4109 -0.2847
  877TIP3    H124046   4.353   4.814  16.026  1.9474  0.7873  1.1458
  877TIP3    H224047   4.321   4.780  16.170 -1.6433 -1.8301 -0.1554
  878TIP3   OH224048   2.768   2.176  10.595  0.4437  0.1734  0.3233
  878TIP3    H124049   2.754   2.169  10.501 -0.3607  1.3951  0.3321
  878TIP3    H224050   2.834   2.245  10.605 -0.2652  0.8153  0.6869
  879TIP3   OH224051   0.509   0.061  17.347  0.2671  0.4748  0.0804
  879TIP3    H124052   0.429   0.017  17.376  0.2134  1.2909  1.2286
  879TIP3    H224053   0.490   0.089  17.257 -0.3485 -0.2498 -0.0214
  880TIP3   OH224054   2.169   4.948  17.077 -0.2505 -0.0415 -0.3169
  880TIP3    H124055   2.137   5.010  17.012  0.3440  0.7578  0.1328
  880TIP3    H224056   2.247   4.910  17.037 -1.4165 -1.6236 -1.2065
  881TIP3   OH224057   3.790   4.022   1.289 -0.1125 -0.2318 -0.2848
  881TIP3    H124058   3.746   4.070   1.218 -2.1615 -1.8661 -0.2588
  881TIP3    H224059   3.813   3.938   1.249  0.3433 -0.4937  0.5117
  882TIP3   OH224060   2.460   3.266  16.893 -0.1756 -0.2638  0.1305
  882TIP3    H124061   2.376   3.254  16.938 -1.3994  0.1821 -1.9246
  882TIP3    H224062   2.464   3.359  16.873  0.5421 -0.3864 -0.3383
  883TIP3   OH224063   3.738   0.948   3.947  0.2943  0.2639  0.8842
  883TIP3    H124064   3.723   0.890   4.021 -1.1927 -0.8945 -0.2613
  883TIP3    H224065   3.674   1.018   3.957 -1.2458 -0.9119 -0.2557
  884TIP3   OH224066   3.220   2.767   5.536  0.4753  0.2276 -0.3959
  884TIP3    H124067   3.217   2.812   5.621  0.3869  0.8129 -0.7047
  884TIP3    H224068   3.235   2.676   5.558  2.5639  0.6558  0.1803
  885TIP3   OH224069   2.031   4.766  14.785  0.3158  0.0163  0.4031
  885TIP3    H124070   1.955   4.797  14.735 -0.0868 -0.8403  0.4685
  885TIP3    H224071   2.065   4.693  14.734  0.2272 -0.5205  1.0991
  886TIP3   OH224072   3.121   4.347   6.468  0.0025 -0.1747 -0.3440
  886TIP3    H124073   3.214   4.349   6.486  0.0092  1.2993 -0.4289
  886TIP3    H224074   3.089   4.433   6.494 -1.6640 -1.2197  1.2907
  887TIP3   OH224075   2.314   6.559   4.433  0.0879  0.3966  0.8173
  887TIP3    H124076   2.299   6.614   4.356  1.8800 -1.6551 -1.1497
  887TIP3    H224077   2.372   6.612   4.488  2.0377  0.5179 -1.1694
  888TIP3   OH224078   1.386   4.021   3.640  0.3386 -0.6477 -0.1765
  888TIP3    H124079   1.301   3.994   3.675  1.7318 -0.4703  3.9440
  888TIP3    H224080   1.378   4.115   3.626  0.0801 -0.4359  1.2231
  889TIP3   OH224081   1.150   1.444  11.966  0.2227  0.1543 -0.0950
  889TIP3    H124082   1.202   1.387  11.910 -0.6085 -0.7245 -0.0068
  889TIP3    H224083   1.179   1.424  12.055 -0.2177 -0.3143 -0.0480
  890TIP3   OH224084   0.517   6.410  14.629  0.0918  0.3487  0.6990
  890TIP3    H124085   0.608   6.423  14.654  1.0428 -3.0271 -0.3454
  890TIP3    H224086   0.519   6.407  14.533 -1.5613  2.4043  0.5419
  891TIP3   OH224087   2.064   3.116   2.285  0.4635  0.0902 -0.1495
  891TIP3    H124088   2.072   3.044   2.348  1.4920 -0.5997 -1.0473
  891TIP3    H224089   2.021   3.077   2.209 -0.5871  0.8749  0.0186
  892TIP3   OH224090   5.292   1.347   4.566  0.1303  0.1752  0.7425
  892TIP3    H124091   5.315   1.440   4.561 -0.4028  0.2697 -0.0435
  892TIP3    H224092   5.282   1.330   4.660  2.1016  0.4342  1.0339
  893TIP3   OH224093   2.256   3.024  14.966 -0.1161 -0.0772  0.3505
  893TIP3    H124094   2.325   2.959  14.979  0.0519  0.2659  1.2899
  893TIP3    H224095   2.183   2.993  15.021 -1.6049 -1.6313 -2.2924
  894TIP3   OH224096   5.366   0.500   3.934  0.1561  0.9850 -0.0326
  894TIP3    H124097   5.306   0.492   4.008 -0.0300 -0.2964 -0.2914
  894TIP3    H224098   5.424   0.424   3.941 -1.1984 -0.4153 -2.3164
  895TIP3   OH224099   3.441   1.573  15.615  0.4688 -0.3853  0.3931
  895TIP3    H124100   3.361   1.531  15.646  0.4061 -1.4135 -1.0521
  895TIP3    H224101   3.412   1.654  15.572  0.0846 -1.1218 -0.7923
  896TIP3   OH224102   4.760   4.415   4.392  0.7576  0.3527  0.1618
  896TIP3    H124103   4.840   4.448   4.432  0.7370  0.0873  0.4234
  896TIP3    H224104   4.781   4.326   4.366  0.6512  0.3957 -0.0742
  897TIP3   OH224105   1.757   0.802  17.118 -0.5036 -0.2371  0.2078
  897TIP3    H124106   1.702   0.725  17.101 -0.8750 -0.1222  0.8600
  897TIP3    H224107   1.745   0.820  17.211 -0.5636  0.7298  0.0192
  898TIP3   OH224108   0.531   2.579  11.727  0.1424  0.6149 -0.1389
  898TIP3    H124109   0.488   2.552  11.646  0.5849 -1.3690  0.2114
  898TIP3    H224110   0.461   2.616  11.781 -0.5509  0.1293 -0.6852
  899TIP3   OH224111   3.761   0.954   1.058 -0.0591  1.0407  0.3868
  899TIP3    H124112   3.696   0.885   1.042 -1.0756  2.3187 -1.3655
  899TIP3    H224113   3.757   1.009   0.980  3.5854  0.8858 -0.0664
  900TIP3   OH224114   5.860   0.555   2.189 -0.2509  0.2235  0.1126
  900TIP3    H124115   5.843   0.481   2.247  0.1549  1.2738  1.6456
  900TIP3    H224116   5.890   0.625   2.247 -0.8783  1.6927 -1.2369
  901TIP3   OH224117   2.518   6.173   4.289  0.0890 -0.1087 -0.0489
  901TIP3    H124118   2.581   6.201   4.356  0.2580  2.4936 -1.1562
  901TIP3    H224119   2.432   6.191   4.328  0.1808  1.1305 -0.3772
  902TIP3   OH224120   5.932   2.272   5.034 -0.1733  0.0536 -0.0121
  902TIP3    H124121   6.028   2.272   5.028 -0.0474  0.2281  1.6769
  902TIP3    H224122   5.912   2.207   5.101 -1.1741  0.8289  0.4706
  903TIP3   OH224123   6.418   6.204   0.739  0.1472 -0.2494  0.1364
  903TIP3    H124124   6.442   6.281   0.791 -1.3429 -0.0189  0.5252
  903TIP3    H224125   6.399   6.239   0.652 -3.2316  0.3231  0.9843
  904TIP3   OH224126   0.201   2.360  11.681 -0.1699 -0.0269 -0.4464
  904TIP3    H124127   0.276   2.304  11.660  0.7505  0.9962  0.0330
  904TIP3    H224128   0.226   2.446  11.647 -1.3420  0.2147 -0.7090
  905TIP3   OH224129   2.435   5.854   0.267  0.0900 -0.4116  0.6305
  905TIP3    H124130   2.524   5.853   0.233 -0.2015  0.5529 -0.1777
  905TIP3    H224131   2.411   5.946   0.271 -0.8820 -0.6589  0.8236
  906TIP3   OH224132   5.355   2.368   4.455  0.1487  0.8313 -0.4917
  906TIP3    H124133   5.312   2.331   4.378  0.2326  2.4520 -1.3520
  906TIP3    H224134   5.439   2.402   4.423  1.7126 -1.3246  0.9540
  907TIP3   OH224135   2.265   4.187  14.733 -0.6006  0.5205 -0.0455
  907TIP3    H124136   2.296   4.180  14.643 -0.7320 -0.8137 -0.0087
  907TIP3    H224137   2.338   4.227  14.781 -0.0472  0.0960 -0.5176
  908TIP3   OH224138   0.669   5.027   1.364 -0.5546  0.7139 -0.8340
  908TIP3    H124139   0.746   5.040   1.308 -0.1757 -3.1068 -1.4714
  908TIP3    H224140   0.611   5.100   1.342  1.7356  2.2405 -2.3042
  909TIP3   OH224141   6.035   1.112  12.895 -0.1175 -0.1091  0.5002
  909TIP3    H124142   6.095   1.167  12.945 -1.2139  0.6075  1.0832
  909TIP3    H224143   6.056   1.130  12.803  1.2236 -0.6504  0.6892
  910TIP3   OH224144   6.239   2.545   4.453 -0.4639  0.2681  0.1114
  910TIP3    H124145   6.169   2.482   4.468 -0.3883  0.0786 -0.3233
  910TIP3    H224146   6.245   2.553   4.357  2.4229 -2.3527 -0.0715
  911TIP3   OH224147   5.087   1.819  14.051  0.1216  0.4090  0.1997
  911TIP3    H124148   5.062   1.758  13.982  0.4725  0.5834 -0.0846
  911TIP3    H224149   5.017   1.810  14.117  0.1945 -0.3227  0.1873
  912TIP3   OH224150   6.105   2.010   6.451  0.0086  0.4616  0.1514
  912TIP3    H124151   6.141   1.928   6.418 -0.9505  0.5459 -1.1879
  912TIP3    H224152   6.156   2.078   6.406 -0.8354  0.5792 -0.6536
  913TIP3   OH224153   5.194   2.481   3.300  0.0077 -0.5217 -0.3825
  913TIP3    H124154   5.104   2.488   3.331  0.2879 -2.1800  0.9811
  913TIP3    H224155   5.243   2.544   3.352 -0.2006 -0.3827 -0.3554
  914TIP3   OH224156   2.758   0.086  14.202 -0.8865  0.4577 -0.5329
  914TIP3    H124157   2.715   0.010  14.241  0.2909 -0.7611 -1.5004
  914TIP3    H224158   2.747   0.074  14.108  0.6097  0.6363 -0.7684
  915TIP3   OH224159   4.424   3.693   1.082  0.1282 -0.2460  0.1903
  915TIP3    H124160   4.338   3.729   1.105 -0.3859 -0.9196 -0.6101
  915TIP3    H224161   4.431   3.707   0.987  2.0853  2.2420  0.6015
  916TIP3   OH224162   6.041   0.255   1.285 -0.0107 -0.4794  0.2440
  916TIP3    H124163   5.988   0.325   1.322  0.8373  0.3689 -0.1157
  916TIP3    H224164   6.050   0.278   1.193 -1.0940 -1.9368 -0.2706
  917TIP3   OH224165   3.681   2.651   0.961  0.3559  0.0301  0.5210
  917TIP3    H124166   3.667   2.733   1.008 -1.3018 -0.6125  1.2307
  917TIP3    H224167   3.770   2.623   0.985  0.4706  0.9920  1.2545
  918TIP3   OH224168   1.432   6.677   2.671 -0.7200  0.3161 -0.1448
  918TIP3    H124169   1.376   6.626   2.730  2.2718 -1.2883  1.5835
  918TIP3    H224170   1.394   6.665   2.584 -1.1712 -3.5807  0.4198
  919TIP3   OH224171   0.364   1.785   3.881 -0.4314 -0.0312 -0.0210
  919TIP3    H124172   0.318   1.777   3.964  1.1515  0.0762  0.9063
  919TIP3    H224173   0.375   1.879   3.869 -0.3031 -0.0614 -0.1468
  920TIP3   OH224174   3.685   0.807  12.879  0.2203  0.2433  0.2766
  920TIP3    H124175   3.769   0.810  12.834 -0.4619  0.1664 -1.0384
  920TIP3    H224176   3.707   0.821  12.971  1.4648  2.2781 -0.2760
  921TIP3   OH224177   3.128   4.477   5.922  0.0843 -0.0693 -0.5827
  921TIP3    H124178   3.155   4.568   5.931  0.3527  0.0363 -2.0946
  921TIP3    H224179   3.091   4.453   6.007  2.4050  0.6321  0.6896
  922TIP3   OH224180   5.112   0.038  15.099 -0.4895  0.1526 -0.7887
  922TIP3    H124181   5.196   0.039  15.145 -0.8120 -1.1971 -0.1365
  922TIP3    H224182   5.048   0.068  15.163 -0.9115 -1.5504 -0.3824
  923TIP3   OH224183   2.613   6.667   0.335  0.3021 -0.1679 -0.0453
  923TIP3    H124184   2.568   6.686   0.417  1.1042 -1.9850  0.8665
  923TIP3    H224185   2.678   6.737   0.326 -0.7227  0.8241  0.1207
  924TIP3   OH224186   5.466   0.196   4.969  0.0957 -0.2199  0.6379
  924TIP3    H124187   5.377   0.202   5.004 -0.2835 -0.5597 -0.2440
  924TIP3    H224188   5.454   0.165   4.880  1.0078  1.2014 -0.0027
  925TIP3   OH224189   2.381   5.782   3.824  0.2065 -0.8135  0.0549
  925TIP3    H124190   2.317   5.789   3.753  0.5965 -2.8767 -0.5767
  925TIP3    H224191   2.440   5.712   3.796  0.2238 -1.8876  2.5076
  926TIP3   OH224192   4.929   3.700  14.032 -0.2716 -0.2120 -0.3031
  926TIP3    H124193   5.005   3.746  14.067  0.6034 -2.5787  1.1092
  926TIP3    H224194   4.962   3.653  13.956 -0.4531 -0.7593 -0.0516
  927TIP3   OH224195   6.509   2.520  12.673 -0.0250 -0.0935 -1.1279
  927TIP3    H124196   6.571   2.586  12.641  1.5882 -0.4068  1.0643
  927TIP3    H224197   6.456   2.566  12.737  2.1905 -1.1028  1.6472
  928TIP3   OH224198   3.563   0.243  16.168  0.5579 -0.7522 -0.3476
  928TIP3    H124199   3.568   0.279  16.256  1.1180 -0.6236 -0.4227
  928TIP3    H224200   3.518   0.310  16.116  0.7775 -0.5525 -0.2862
  929TIP3   OH224201   3.334   6.002  15.061 -0.1337  0.1747  0.1937
  929TIP3    H124202   3.347   5.907  15.059  3.2681  0.5304 -1.1833
  929TIP3    H224203   3.377   6.031  15.141  0.4997  0.6947 -0.3199
  930TIP3   OH224204   3.055   5.991   5.591  0.3551 -0.1853  0.8790
  930TIP3    H124205   2.980   6.050   5.598  1.5309  1.4958 -0.2633
  930TIP3    H224206   3.127   6.038   5.631  1.7710  0.0014 -1.7380
  931TIP3   OH224207   0.809   4.477   4.858  0.6650 -0.3094  0.4952
  931TIP3    H124208   0.735   4.528   4.889  1.0553  0.6309 -0.0607
  931TIP3    H224209   0.807   4.397   4.910 -0.1232  0.1568  1.2062
  932TIP3   OH224210   2.003   6.628  16.898 -0.2385  0.3341  0.9552
  932TIP3    H124211   2.046   6.676  16.969 -0.7191  0.8110  0.9314
  932TIP3    H224212   2.014   6.536  16.921  2.0951  0.3540  0.1917
  933TIP3   OH224213   3.466   1.239  11.469 -0.9236  0.5232  0.2821
  933TIP3    H124214   3.555   1.208  11.453 -0.8228  0.5046  0.8475
  933TIP3    H224215   3.410   1.164  11.451 -0.5901 -0.4517  2.8995
  934TIP3   OH224216   3.267   6.576  15.612  0.8117 -0.4646  0.0981
  934TIP3    H124217   3.273   6.573  15.707 -0.1416  1.4118  0.2738
  934TIP3    H224218   3.180   6.612  15.595  1.2426 -0.0803 -1.4710
  935TIP3   OH224219   6.577   3.774   1.705 -0.6808  0.1493 -0.8948
  935TIP3    H124220   6.568   3.813   1.618 -0.7054 -1.2364 -1.5440
  935TIP3    H224221   6.665   3.736   1.706 -1.9345 -3.1370 -1.7995
  936TIP3   OH224222   2.600   2.213  15.674  0.8134  0.0681 -0.4321
  936TIP3    H124223   2.524   2.157  15.656  0.6407  0.2460 -0.2747
  936TIP3    H224224   2.630   2.184  15.761  1.1576 -0.2555 -0.6574
  937TIP3   OH224225   3.856   0.240   5.184  0.2232 -0.0120 -0.0022
  937TIP3    H124226   3.840   0.194   5.266 -3.0251  0.0181 -0.4846
  937TIP3    H224227   3.879   0.171   5.122 -0.3293 -0.4216  0.2464
  938TIP3   OH224228   0.177   4.024   3.860  0.3383 -0.5084  0.7690
  938TIP3    H124229   0.208   3.969   3.788  2.3600 -1.2841  2.1386
  938TIP3    H224230   0.201   4.113   3.835  0.4442 -0.6944  0.2102
  939TIP3   OH224231   0.919   5.773   2.455 -0.7106  0.5622  0.5881
  939TIP3    H124232   0.991   5.756   2.515 -1.1656 -0.3530  0.8901
  939TIP3    H224233   0.890   5.862   2.479 -0.4168  0.4970  1.2302
  940TIP3   OH224234   2.084   3.330  12.976  0.4551 -0.6079 -0.3708
  940TIP3    H124235   2.121   3.419  12.974 -0.1134 -0.3746 -0.9970
  940TIP3    H224236   1.992   3.343  12.999  0.7796 -1.2027  1.4270
  941TIP3   OH224237   5.735   6.073   0.248  0.2074 -0.1104  0.1600
  941TIP3    H124238   5.786   6.042   0.323 -0.4806 -1.0714  0.2527
  941TIP3    H224239   5.666   6.126   0.287 -1.0980 -1.8868  0.3871
  942TIP3   OH224240   3.549   6.582  13.482  0.2957  0.1667 -0.5361
  942TIP3    H124241   3.491   6.602  13.409  2.5659 -1.1172 -2.8516
  942TIP3    H224242   3.497   6.602  13.560 -2.6715  0.4916 -2.4394
  943TIP3   OH224243   6.308   2.185  15.432  0.3133 -0.2023  0.0138
  943TIP3    H124244   6.274   2.147  15.352 -0.5926 -0.7626  0.6460
  943TIP3    H224245   6.356   2.113  15.474  2.9445  0.7220 -1.1609
  944TIP3   OH224246   6.574   5.409   5.910  0.7894  0.1318 -0.3904
  944TIP3    H124247   6.658   5.450   5.889  1.5403 -1.2703 -0.2706
  944TIP3    H224248   6.512   5.482   5.915  1.6203  1.0343 -2.2784
  945TIP3   OH224249   2.218   0.871  15.843 -0.1622  0.2547  0.2612
  945TIP3    H124250   2.149   0.891  15.780 -0.5254 -0.6726  0.3455
  945TIP3    H224251   2.244   0.957  15.877 -2.8381  0.5527  1.8888
  946TIP3   OH224252   1.954   1.121  16.165  0.1632 -0.4746 -0.2230
  946TIP3    H124253   1.916   1.040  16.133  1.1376 -1.8801  1.9734
  946TIP3    H224254   1.922   1.130  16.254 -0.4097  1.9303 -0.5906
  947TIP3   OH224255   2.678   5.802   4.342 -0.2542  0.9910  0.1456
  947TIP3    H124256   2.696   5.723   4.292  0.9983  1.9298 -0.9696
  947TIP3    H224257   2.665   5.772   4.432  0.6076 -0.4446 -0.1819
  948TIP3   OH224258   2.966   0.646   1.571 -0.1684  0.4060  0.2021
  948TIP3    H124259   2.885   0.597   1.585 -0.7354  1.4221  0.5875
  948TIP3    H224260   3.012   0.597   1.503 -1.7135  0.5223 -0.9799
  949TIP3   OH224261   4.369   3.471   6.108  0.2427  0.2156  0.2137
  949TIP3    H124262   4.376   3.397   6.047  0.6841  1.4552 -1.3004
  949TIP3    H224263   4.394   3.547   6.056 -0.3551  1.4687  1.6925
  950TIP3   OH224264   1.914   4.772   1.982  0.2678 -0.6180 -0.4249
  950TIP3    H124265   1.862   4.701   1.944 -0.6028 -0.0294 -0.3575
  950TIP3    H224266   1.906   4.844   1.919  0.1966 -0.1987  0.0576
  951TIP3   OH224267   4.205   1.507  14.980 -0.3855  0.1646  0.0098
  951TIP3    H124268   4.245   1.473  15.060  1.1604 -2.2288 -1.6515
  951TIP3    H224269   4.112   1.512  15.001 -0.0010 -0.0693  2.0521
  952TIP3   OH224270   2.929   6.400  16.458  0.5319 -0.2412 -0.6799
  952TIP3    H124271   2.938   6.309  16.486  0.7748  0.6591  2.6127
  952TIP3    H224272   2.861   6.436  16.515  1.2409  1.9055 -1.0912
  953TIP3   OH224273   2.700   3.493  16.533 -0.1788 -0.1768 -0.3195
  953TIP3    H124274   2.676   3.532  16.617 -1.0839 -1.6961  0.1569
  953TIP3    H224275   2.620   3.449  16.504  0.2401 -0.0231 -1.7947
  954TIP3   OH224276   1.111   3.872   6.714  0.1083 -0.6557 -0.1118
  954TIP3    H124277   1.129   3.921   6.635  0.7048 -2.4346 -1.1351
  954TIP3    H224278   1.016   3.882   6.728 -0.1129 -0.8389 -1.4100
  955TIP3   OH224279   4.735   2.417  13.268  0.4468 -0.3128  0.5026
  955TIP3    H124280   4.702   2.367  13.193  1.3476 -0.1838  0.0051
  955TIP3    H224281   4.803   2.474  13.231  1.9880 -1.3273  1.6392
  956TIP3   OH224282   6.225   4.614   5.030 -0.0431 -0.7110  0.1245
  956TIP3    H124283   6.220   4.696   5.079 -0.9799 -0.9360  0.4234
  956TIP3    H224284   6.318   4.601   5.014  0.0650  0.8391 -0.6587
  957TIP3   OH224285   6.620   1.949   0.788 -0.3604  0.0688  0.0811
  957TIP3    H124286   6.661   1.941   0.874 -0.2502 -0.8842 -0.0487
  957TIP3    H224287   6.603   2.043   0.778  1.9514  0.5385  0.0697
  958TIP3   OH224288   0.606   0.234   2.694 -0.5923 -0.3199 -0.4965
  958TIP3    H124289   0.551   0.298   2.649 -0.1453 -0.3650 -1.1160
  958TIP3    H224290   0.547   0.160   2.713 -1.2802  0.5353  0.8306
  959TIP3   OH224291   2.046   0.773  16.749  0.7359 -0.3717  0.4594
  959TIP3    H124292   2.072   0.835  16.817 -1.4414 -0.7111  1.7032
  959TIP3    H224293   1.993   0.708  16.795  0.2268 -1.3194 -1.3716
  960TIP3   OH224294   2.292   3.014   1.401 -0.4828 -0.3168  0.0701
  960TIP3    H124295   2.384   3.004   1.376  0.0756  1.9334  0.9482
  960TIP3    H224296   2.286   2.973   1.487  0.1679  0.9568  0.7626
  961TIP3   OH224297   4.274   5.518   4.380 -0.3066  0.1526 -0.2466
  961TIP3    H124298   4.192   5.535   4.426 -1.1291 -0.8182 -1.3065
  961TIP3    H224299   4.333   5.485   4.448 -0.7662  0.8913  0.5319
  962TIP3   OH224300   3.322   3.828  14.492  0.3714 -0.5984  0.5608
  962TIP3    H124301   3.252   3.853  14.551  1.9413  1.5774  1.6459
  962TIP3    H224302   3.348   3.910  14.450  1.7359 -1.4778 -0.3870
  963TIP3   OH224303   3.422   2.306   4.211 -0.0960  0.0717 -0.7539
  963TIP3    H124304   3.398   2.393   4.179 -0.9667 -0.0503 -0.4597
  963TIP3    H224305   3.505   2.287   4.168 -0.4246  0.6017 -1.6627
  964TIP3   OH224306   5.730   3.907   5.578  0.4513 -0.1549 -0.1016
  964TIP3    H124307   5.795   3.966   5.540  1.9385 -0.4702  1.8189
  964TIP3    H224308   5.680   3.875   5.503 -0.2577  3.2588 -1.2877
  965TIP3   OH224309   3.728   6.487   4.907 -0.0634  0.0035 -0.1811
  965TIP3    H124310   3.813   6.531   4.910  1.0631 -2.0644  0.2240
  965TIP3    H224311   3.703   6.488   4.815  0.7346  0.0537 -0.4038
  966TIP3   OH224312   6.019   0.787  11.854 -0.3978 -0.2886 -0.0350
  966TIP3    H124313   6.074   0.862  11.877  1.2792 -1.2243 -0.8621
  966TIP3    H224314   6.000   0.745  11.938 -1.2675  0.9513  0.4251
  967TIP3   OH224315   3.657   0.191  10.836  0.1105 -0.0116 -0.0131
  967TIP3    H124316   3.746   0.161  10.819  0.0437 -0.2027 -0.0240
  967TIP3    H224317   3.663   0.287  10.831  0.0341 -0.0570 -1.4671
  968TIP3   OH224318   3.475   1.563   3.982  0.2487  0.1143  0.4280
  968TIP3    H124319   3.411   1.577   4.051 -1.2030 -1.3634 -0.5331
  968TIP3    H224320   3.521   1.483   4.009  1.7062  1.1366  1.0855
  969TIP3   OH224321   6.385   5.181   0.485  0.0309 -0.7803  0.6690
  969TIP3    H124322   6.301   5.178   0.531 -0.4512 -1.5193 -0.2326
  969TIP3    H224323   6.368   5.229   0.404  1.0669  1.2418  1.5757
  970TIP3   OH224324   3.162   3.872   3.844  0.4000 -0.2828  0.0661
  970TIP3    H124325   3.103   3.800   3.868  0.9332 -1.3325 -1.5874
  970TIP3    H224326   3.109   3.928   3.786  0.1836  0.3252  0.8371
  971TIP3   OH224327   3.454   2.085  15.200 -0.1621 -0.1600  0.3493
  971TIP3    H124328   3.428   2.089  15.292 -1.6119  0.9337 -0.0716
  971TIP3    H224329   3.450   1.992  15.178  1.9465 -0.6710  1.8226
  972TIP3   OH224330   4.134   0.118   3.026  0.1753  0.5925 -0.2598
  972TIP3    H124331   4.182   0.077   3.098 -3.1912  0.3729  2.0517
  972TIP3    H224332   4.130   0.050   2.958 -1.4422 -1.4105  1.7034
  973TIP3   OH224333   6.057   4.765  10.980 -0.2643  0.2493  0.1462
  973TIP3    H124334   6.033   4.852  11.010  1.7919  1.3180 -1.0843
  973TIP3    H224335   5.989   4.742  10.916 -1.2054  0.6111  0.9906
  974TIP3   OH224336   2.518   2.843  12.832 -0.2155 -0.3147  0.0058
  974TIP3    H124337   2.551   2.763  12.873 -0.8775 -0.0571  1.0820
  974TIP3    H224338   2.433   2.818  12.796  0.1301 -0.4032 -0.7685
  975TIP3   OH224339   4.737   1.526   0.464  0.3618 -0.4610 -0.4593
  975TIP3    H124340   4.705   1.511   0.375  3.3697 -3.9997 -1.2143
  975TIP3    H224341   4.688   1.463   0.518 -0.6538  0.8890  0.2496
  976TIP3   OH224342   1.570   0.378  12.113 -0.8922 -0.2808  0.3991
  976TIP3    H124343   1.639   0.362  12.049 -2.3607  1.2483 -1.7067
  976TIP3    H224344   1.615   0.378  12.198  1.5091 -0.2051 -0.7924
  977TIP3   OH224345   4.385   1.067  14.152  0.4251  0.0438  0.1540
  977TIP3    H124346   4.464   1.055  14.098  1.1942 -0.0963  1.2717
  977TIP3    H224347   4.346   0.979  14.155 -0.0678  0.2095 -0.7977
  978TIP3   OH224348   0.911   0.865   0.870  0.2580  0.3102 -0.3094
  978TIP3    H124349   0.914   0.861   0.774 -0.0557  2.0153 -0.4255
  978TIP3    H224350   0.924   0.958   0.890  0.0539  0.0131  1.2897
  979TIP3   OH224351   6.224   5.300  11.552 -0.3530  0.3697  0.6144
  979TIP3    H124352   6.137   5.264  11.537  0.3499 -1.0873 -0.2529
  979TIP3    H224353   6.209   5.385  11.592 -2.1444 -0.3341  1.5180
  980TIP3   OH224354   2.032   6.482  14.201 -0.6275 -0.4178  0.0438
  980TIP3    H124355   2.062   6.464  14.290 -0.0158 -1.3750 -0.3374
  980TIP3    H224356   1.947   6.524  14.213  0.5223  1.7559  1.1361
  981TIP3   OH224357   5.139   4.394   5.418 -0.5651  0.3937 -0.2125
  981TIP3    H124358   5.207   4.417   5.482 -0.1850 -0.2782 -0.3670
  981TIP3    H224359   5.075   4.465   5.425 -1.4297 -0.5176  2.1464
  982TIP3   OH224360   3.846   3.244   1.036 -0.3807  0.1831  0.2558
  982TIP3    H124361   3.913   3.178   1.020 -0.5744  0.1477 -0.4131
  982TIP3    H224362   3.895   3.327   1.038 -0.2090  0.0767  0.5875
  983TIP3   OH224363   5.394   6.598  11.133  0.7161  0.5290 -0.5544
  983TIP3    H124364   5.314   6.648  11.125 -0.2233 -1.0236 -1.3019
  983TIP3    H224365   5.425   6.586  11.043  0.4785 -0.8733 -0.4733
  984TIP3   OH224366   0.689   4.170  13.995  0.3341  0.1727 -0.0760
  984TIP3    H124367   0.637   4.098  14.030 -1.5484  2.4119  2.1829
  984TIP3    H224368   0.701   4.150  13.903  1.0547 -3.5994  0.6945
  985TIP3   OH224369   1.075   4.948  13.784 -0.0565 -0.6834  0.0379
  985TIP3    H124370   1.146   4.907  13.835 -1.0373 -1.9711  0.4384
  985TIP3    H224371   0.997   4.936  13.839 -0.3925  1.8512  0.1971
  986TIP3   OH224372   2.348   1.145   0.111 -0.1951  0.7033  0.2154
  986TIP3    H124373   2.309   1.227   0.142  0.5375  0.9687  0.4630
  986TIP3    H224374   2.383   1.166   0.025 -1.2105  0.2751 -0.3143
  987TIP3   OH224375   0.990   1.870   3.080 -0.0736 -0.2875 -0.1271
  987TIP3    H124376   1.010   1.942   3.020  1.8644 -1.3159 -0.8159
  987TIP3    H224377   0.946   1.805   3.025  0.4046 -0.6329 -0.1088
  988TIP3   OH224378   4.633   1.161   4.291  1.0010 -0.0217 -0.1914
  988TIP3    H124379   4.606   1.069   4.292 -2.1022  0.7209 -1.6535
  988TIP3    H224380   4.659   1.177   4.200  2.5476  0.3191  0.2895
  989TIP3   OH224381   3.401   5.245  13.023 -0.1332 -0.2141 -0.2090
  989TIP3    H124382   3.479   5.191  13.035  0.7479  0.8000 -1.2180
  989TIP3    H224383   3.427   5.332  13.054 -0.1872  0.6252 -2.3625
  990TIP3   OH224384   0.845   0.593   5.671 -0.6608 -0.2264  0.0897
  990TIP3    H124385   0.859   0.664   5.734 -1.9196  0.9206 -0.8563
  990TIP3    H224386   0.931   0.577   5.633 -0.4210  1.1564 -0.0186
  991TIP3   OH224387   0.199   5.263   2.221  0.5160  0.3633  0.2847
  991TIP3    H124388   0.147   5.282   2.143 -0.0353 -1.8682  0.0573
  991TIP3    H224389   0.252   5.342   2.235 -1.3773  1.8658 -0.7106
  992TIP3   OH224390   2.206   4.356  11.129 -0.3250 -0.3640  0.5194
  992TIP3    H124391   2.137   4.291  11.144 -1.0507 -0.3236 -2.1398
  992TIP3    H224392   2.160   4.432  11.094  0.9548  0.0027 -0.4208
  993TIP3   OH224393   2.050   3.612   5.694  0.1516  0.3217  0.0349
  993TIP3    H124394   2.026   3.615   5.602  0.1565 -1.1518 -0.0336
  993TIP3    H224395   2.131   3.560   5.696  0.1527  0.3422  0.8688
  994TIP3   OH224396   1.620   3.559  16.745 -0.0467 -0.2297 -0.2868
  994TIP3    H124397   1.695   3.608  16.715 -0.9412  0.6394 -1.1682
  994TIP3    H224398   1.625   3.564  16.841  0.4537  0.6789 -0.3519
  995TIP3   OH224399   3.627   0.433   4.989 -0.4355 -0.3271  0.0452
  995TIP3    H124400   3.604   0.358   5.044  1.6848 -0.4692  0.8360
  995TIP3    H224401   3.578   0.506   5.027 -0.6115 -0.8377  0.8313
  996TIP3   OH224402   1.077   4.331  15.355 -0.4573 -0.0767 -0.0478
  996TIP3    H124403   0.992   4.364  15.323 -1.2490  1.0375  2.8561
  996TIP3    H224404   1.140   4.398  15.328 -1.1208  0.9333  0.8488
  997TIP3   OH224405   1.667   0.058   2.784  0.3892 -0.6685 -0.1242
  997TIP3    H124406   1.600  -0.011   2.787  0.5761 -0.8844 -0.6626
  997TIP3    H224407   1.718   0.045   2.864 -1.0902  0.4297  1.0607
  998TIP3   OH224408   3.557   5.880   0.588 -0.1504 -0.2673  0.3439
  998TIP3    H124409   3.649   5.905   0.590 -0.3998  0.6807  0.3677
  998TIP3    H224410   3.543   5.846   0.499 -0.2714  1.5986 -0.3927
  999TIP3   OH224411   1.355   4.118  13.439 -0.5064 -0.0156 -0.2292
  999TIP3    H124412   1.421   4.171  13.395 -0.0644 -0.3580  0.0157
  999TIP3    H224413   1.289   4.101  13.372 -0.1583  0.0139 -0.5787
 1000TIP3   OH224414   5.714   4.426   2.158  0.0136  0.2486 -0.1656
 1000TIP3    H124415   5.732   4.359   2.225  1.3838 -1.3489 -2.0167
 1000TIP3    H224416   5.641   4.392   2.108  0.2953  0.4592 -0.7257
 1001TIP3   OH224417   4.060   4.615   4.608 -0.5308 -0.3216 -0.1320
 1001TIP3    H124418   4.071   4.710   4.602 -0.9254 -0.2331  0.4505
 1001TIP3    H224419   3.966   4.601   4.595 -0.7316 -0.4839  1.3080
 1002TIP3   OH224420   2.422   2.982   4.546  0.2707  0.0013 -0.4925
 1002TIP3    H124421   2.357   3.050   4.526 -2.6851 -1.7099  2.3105
 1002TIP3    H224422   2.443   2.996   4.638  0.7768 -1.9010 -0.2737
 1003TIP3   OH224423   4.217   1.303  13.515  0.4653  0.0590 -0.3213
 1003TIP3    H124424   4.176   1.224  13.550  2.2086 -0.4647  0.6841
 1003TIP3    H224425   4.200   1.370  13.581  0.6111  0.0263 -0.2505
 1004TIP3   OH224426   0.836   2.568   4.788 -0.3565  0.0286 -0.8647
 1004TIP3    H124427   0.871   2.626   4.721 -0.9440  0.5960 -0.6980
 1004TIP3    H224428   0.863   2.480   4.761  2.8832  0.5320  0.2880
 1005TIP3   OH224429   1.192   0.976   2.069 -0.0122  0.1942  0.6795
 1005TIP3    H124430   1.272   0.924   2.079 -0.4594 -0.7906 -0.4862
 1005TIP3    H224431   1.213   1.061   2.106  1.7161  0.0855  0.0299
 1006TIP3   OH224432   4.863   2.959   2.706 -0.3559 -0.1890 -0.5489
 1006TIP3    H124433   4.891   2.984   2.793 -0.0842 -0.4752 -0.5526
 1006TIP3    H224434   4.923   2.889   2.680  0.8192  1.1806 -1.7356
 1007TIP3   OH224435   6.650   4.611   0.180 -0.4417 -0.0104  0.1371
 1007TIP3    H124436   6.608   4.664   0.111  0.9966 -0.8487 -1.4640
 1007TIP3    H224437   6.624   4.521   0.160 -0.3750 -0.2271  0.9939
 1008TIP3   OH224438   0.167   1.302  11.534 -0.1732  0.2647 -0.3400
 1008TIP3    H124439   0.081   1.262  11.517 -0.2041  0.3069 -0.2825
 1008TIP3    H224440   0.148   1.395  11.546 -0.0519  0.3588 -0.8544
 1009TIP3   OH224441   5.712   0.212  14.326 -0.6356 -0.4430  0.6373
 1009TIP3    H124442   5.686   0.211  14.234  1.6019 -0.0531 -0.0602
 1009TIP3    H224443   5.696   0.122  14.356 -0.6130 -0.7999 -0.3739
 1010TIP3   OH224444   6.015   2.812  11.208 -0.1287  0.2396  0.5339
 1010TIP3    H124445   6.018   2.906  11.228  2.4198  0.7583 -1.6882
 1010TIP3    H224446   5.923   2.794  11.190 -0.6544  2.3574  0.8085
 1011TIP3   OH224447   4.839   4.006  12.478 -0.0959  0.0037  0.0255
 1011TIP3    H124448   4.828   3.938  12.412  0.4741  0.3918 -0.4804
 1011TIP3    H224449   4.755   4.053  12.478 -0.0414  0.1023 -0.5406
 1012TIP3   OH224450   3.462   4.038   5.339 -0.5073 -0.0893  0.1024
 1012TIP3    H124451   3.544   4.070   5.378 -0.6117  1.0549 -0.5626
 1012TIP3    H224452   3.473   4.052   5.245 -1.6617  0.5786  0.0479
 1013TIP3   OH224453   6.187   3.861   3.966 -0.1375  0.4463  0.0260
 1013TIP3    H124454   6.092   3.865   3.971 -0.0870  0.8644  0.7135
 1013TIP3    H224455   6.218   3.913   4.039  0.6103 -1.9678  1.5611
 1014TIP3   OH224456   4.627   0.792   4.196 -0.1200  0.9237 -0.2714
 1014TIP3    H124457   4.720   0.772   4.212  0.0893  2.3263  0.3652
 1014TIP3    H224458   4.620   0.798   4.101  0.5149  1.1137 -0.3120
 1015TIP3   OH224459   0.321   2.856   3.060 -0.0549  0.0576 -0.4757
 1015TIP3    H124460   0.254   2.823   3.121  2.0466 -0.9538  1.4188
 1015TIP3    H224461   0.311   2.801   2.982 -0.2802 -1.2970  0.4674
 1016TIP3   OH224462   2.307   0.881   0.036 -0.2120 -0.0160 -0.5177
 1016TIP3    H124463   2.243   0.853   0.101 -0.9035 -0.0332 -1.1910
 1016TIP3    H224464   2.339   0.965   0.068  0.5155 -0.6805  0.5693
 1017TIP3   OH224465   4.698   4.545   4.169 -0.0158 -0.4210  0.2170
 1017TIP3    H124466   4.788   4.573   4.151  0.1832 -0.2700  1.3856
 1017TIP3    H224467   4.705   4.492   4.248 -0.7727 -1.5955 -0.4608
 1018TIP3   OH224468   3.573   0.057  15.267 -0.1404 -0.1126 -0.0318
 1018TIP3    H124469   3.542  -0.025  15.306  0.4877 -1.2262 -1.7454
 1018TIP3    H224470   3.666   0.060  15.290  0.8242 -1.9319 -3.0484
 1019TIP3   OH224471   6.182   2.141  16.435  0.7398 -1.0307 -0.4304
 1019TIP3    H124472   6.093   2.117  16.411 -0.0890  0.2400  1.2008
 1019TIP3    H224473   6.212   2.068  16.490  0.1152 -0.7360  0.3143
 1020TIP3   OH224474   0.356   3.709  12.000 -0.3234 -0.4952 -0.1615
 1020TIP3    H124475   0.421   3.773  11.974  0.6944 -1.4803 -0.1421
 1020TIP3    H224476   0.407   3.639  12.041 -1.6464  0.1178  2.8053
 1021TIP3   OH224477   0.721   0.161   4.210 -0.3778 -0.4319  0.6685
 1021TIP3    H124478   0.706   0.255   4.218 -1.3683 -0.5943  0.7951
 1021TIP3    H224479   0.671   0.135   4.134  2.0546 -0.4198 -1.0606
 1022TIP3   OH224480   1.733   2.642  16.279  0.0054  0.7350 -0.1541
 1022TIP3    H124481   1.758   2.592  16.357 -0.1935 -0.8704 -1.0751
 1022TIP3    H224482   1.778   2.598  16.207 -2.4185  0.0573 -1.3750
 1023TIP3   OH224483   3.699   2.210   3.031  0.2125 -0.0540 -0.7660
 1023TIP3    H124484   3.682   2.294   3.072  4.0611  1.0750 -1.1235
 1023TIP3    H224485   3.656   2.215   2.946 -1.4038  0.6262  0.0572
 1024TIP3   OH224486   4.630   5.249  13.155  0.0640  0.2575 -0.2351
 1024TIP3    H124487   4.555   5.242  13.097 -0.4830  0.9763  0.3736
 1024TIP3    H224488   4.706   5.231  13.099 -0.5091  0.1019 -0.9724
 1025TIP3   OH224489   2.084   0.399  11.468  0.3313 -0.0043  0.2582
 1025TIP3    H124490   2.135   0.389  11.388  1.6105  0.6417  0.9593
 1025TIP3    H224491   2.005   0.446  11.441  2.1096  2.9449 -0.2059
 1026TIP3   OH224492   1.263   4.868   4.365 -0.0264  0.0585 -0.4568
 1026TIP3    H124493   1.227   4.789   4.405 -0.3426 -0.4513 -1.7119
 1026TIP3    H224494   1.276   4.845   4.273 -2.4315  2.2071 -1.4421
 1027TIP3   OH224495   4.258   4.303  16.352 -0.4266  0.2276 -0.2163
 1027TIP3    H124496   4.196   4.334  16.286 -2.0684 -2.1746  0.0425
 1027TIP3    H224497   4.203   4.258  16.417  1.4516 -0.6105  0.8795
 1028TIP3   OH224498   5.649   3.599  14.290  0.2361  0.5908  0.1093
 1028TIP3    H124499   5.692   3.675  14.330  0.5851  0.9541 -0.9232
 1028TIP3    H224500   5.721   3.548  14.253  0.0446 -0.4744  1.1344
 1029TIP3   OH224501   2.936   5.058   2.048  0.9523 -0.3596 -0.0469
 1029TIP3    H124502   2.948   5.048   2.143 -0.7738  1.9817  0.5098
 1029TIP3    H224503   2.935   4.968   2.015 -0.5388 -1.3796  2.4474
 1030TIP3   OH224504   1.387   5.405  10.831 -0.2881 -0.4381 -0.4681
 1030TIP3    H124505   1.453   5.462  10.790 -1.5155  1.5619  0.1563
 1030TIP3    H224506   1.305   5.452  10.817 -0.7904  0.6319  4.4697
 1031TIP3   OH224507   2.345   2.741  11.235  0.3262  0.0727 -0.0977
 1031TIP3    H124508   2.268   2.684  11.228 -0.0469  0.5341  0.1915
 1031TIP3    H224509   2.414   2.684  11.267 -0.5703  0.2081  2.2622
 1032TIP3   OH224510   4.284   3.772   5.726 -0.5574  0.1296 -0.3171
 1032TIP3    H124511   4.317   3.854   5.764 -0.7922 -0.2235  0.6912
 1032TIP3    H224512   4.239   3.799   5.646 -1.7565  1.1796  0.6563
 1033TIP3   OH224513   5.247   3.978   2.159  0.0545 -0.1551  0.2868
 1033TIP3    H124514   5.160   3.945   2.136 -0.9729  1.6018  1.4264
 1033TIP3    H224515   5.277   4.024   2.080 -0.1932 -0.4631  0.0106
 1034TIP3   OH224516   1.471   0.643   4.189 -0.2716  0.0272 -1.0921
 1034TIP3    H124517   1.385   0.685   4.185 -0.6829 -0.6067  0.3839
 1034TIP3    H224518   1.533   0.715   4.203 -0.7817  0.3309 -0.3200
 1035TIP3   OH224519   6.314   6.327   2.084 -0.4538  0.4617  0.2742
 1035TIP3    H124520   6.233   6.284   2.057  0.2849 -0.7294 -0.1676
 1035TIP3    H224521   6.287   6.414   2.114 -1.7847  0.4030 -0.6550
 1036TIP3   OH224522   2.481   3.007  14.580  0.7934  0.3494 -0.2658
 1036TIP3    H124523   2.491   3.092  14.622  1.4210  0.3647 -0.4336
 1036TIP3    H224524   2.398   3.013  14.532  0.2003  0.4258  0.7335
 1037TIP3   OH224525   0.612   4.755  15.844 -0.2252 -0.5865  0.2760
 1037TIP3    H124526   0.608   4.722  15.934  1.1475 -0.4193  0.4125
 1037TIP3    H224527   0.615   4.677  15.789  1.9921 -0.7361  0.5485
 1038TIP3   OH224528   0.171   6.010  11.333  0.0583 -0.2066  0.0774
 1038TIP3    H124529   0.224   6.022  11.412  1.7502  1.3043 -1.2001
 1038TIP3    H224530   0.086   5.978  11.365  0.0892  1.9845  2.6457
 1039TIP3   OH224531   4.546   1.925   4.981  0.3208 -0.3066 -0.0491
 1039TIP3    H124532   4.536   2.012   5.019 -1.5259 -0.7619  0.6208
 1039TIP3    H224533   4.459   1.903   4.947  0.5473 -2.1822  0.4542
 1040TIP3   OH224534   1.799   2.854   3.394  0.5196  0.0074 -0.4110
 1040TIP3    H124535   1.790   2.826   3.485 -0.2285 -1.7576 -0.9746
 1040TIP3    H224536   1.722   2.817   3.350  1.7925 -0.7543 -2.1186
 1041TIP3   OH224537   6.743   5.593   1.128 -0.2766 -0.2819  0.3717
 1041TIP3    H124538   6.832   5.620   1.149 -0.7875  0.6686  1.3785
 1041TIP3    H224539   6.748   5.562   1.037  1.2138 -0.9526  0.6621
 1042TIP3   OH224540   1.206   4.681   4.608 -0.3721 -0.1885 -0.3028
 1042TIP3    H124541   1.288   4.687   4.657  0.0177 -1.4523 -0.7589
 1042TIP3    H224542   1.138   4.674   4.675 -0.0045 -0.1523  0.0764
 1043TIP3   OH224543   2.425   5.350   0.560  0.6345 -0.1614  0.2189
 1043TIP3    H124544   2.493   5.377   0.623  0.3592  1.2142 -0.0387
 1043TIP3    H224545   2.345   5.392   0.591  0.5236  0.6732 -1.1109
 1044TIP3   OH224546   4.987   4.127  13.806  0.0321 -0.9264  0.6490
 1044TIP3    H124547   4.975   4.122  13.901 -1.4160 -1.0806  0.4709
 1044TIP3    H224548   4.917   4.184  13.776 -0.1732 -1.7392 -0.4583
 1045TIP3   OH224549   5.123   5.221   3.577 -0.1402 -0.2816  0.0585
 1045TIP3    H124550   5.060   5.286   3.546  1.4524  1.3296  0.0337
 1045TIP3    H224551   5.206   5.247   3.538  0.6399 -2.1795  0.3079
 1046TIP3   OH224552   4.585   5.619   4.031 -0.5173 -0.1413  0.1769
 1046TIP3    H124553   4.531   5.608   4.109 -0.8440 -1.5720 -0.2242
 1046TIP3    H224554   4.659   5.560   4.045 -2.2003 -2.9773 -1.9742
 1047TIP3   OH224555   5.790   5.445   4.753 -0.0435  0.3586  0.3932
 1047TIP3    H124556   5.742   5.496   4.819  1.4710  2.8076 -0.2846
 1047TIP3    H224557   5.812   5.508   4.685 -0.4611 -1.8424 -1.9125
 1048TIP3   OH224558   3.221   1.955  14.029 -0.0044 -0.2546  0.3383
 1048TIP3    H124559   3.183   1.875  13.992 -1.0269 -0.7121  2.2393
 1048TIP3    H224560   3.220   2.017  13.956 -1.0716 -1.3648 -0.6541
 1049TIP3   OH224561   2.532   6.294   3.723  0.0080 -0.4777 -0.0240
 1049TIP3    H124562   2.531   6.205   3.758  0.3223 -0.3820  0.2312
 1049TIP3    H224563   2.484   6.346   3.787  1.5415 -0.0879  0.8782
 1050TIP3   OH224564   0.216   4.881  14.512  0.5346  0.9458 -0.3869
 1050TIP3    H124565   0.174   4.926  14.585 -0.2699 -2.1099  1.2065
 1050TIP3    H224566   0.300   4.925  14.501  1.0715  0.9934  3.0136
 1051TIP3   OH224567   5.372   6.686  13.904 -0.3497 -0.1297  0.3909
 1051TIP3    H124568   5.386   6.758  13.843  1.7562 -0.1576  0.7848
 1051TIP3    H224569   5.352   6.611  13.848 -0.9946  0.3987 -0.1034
 1052TIP3   OH224570   5.076   0.294  14.874  0.3841  0.6869  0.3873
 1052TIP3    H124571   5.147   0.314  14.935  0.7006  1.7839 -0.3075
 1052TIP3    H224572   5.047   0.206  14.899  0.0748  1.3364  2.4995
 1053TIP3   OH224573   2.616   6.512  11.856 -0.2903  0.1379 -0.2633
 1053TIP3    H124574   2.684   6.568  11.819 -0.2378  0.0924 -0.2346
 1053TIP3    H224575   2.549   6.507  11.788 -0.1932  0.0533 -0.3503
 1054TIP3   OH224576   0.416   4.037  16.025  0.1403  0.0919 -0.2669
 1054TIP3    H124577   0.353   4.004  15.960  0.1398  0.7956 -0.6335
 1054TIP3    H224578   0.414   3.972  16.095 -0.8298 -0.0184 -0.3762
 1055TIP3   OH224579   2.585   4.449  12.377  0.2158  0.0255 -0.0074
 1055TIP3    H124580   2.677   4.473  12.370 -0.2689  1.4251 -2.1087
 1055TIP3    H224581   2.562   4.414  12.291 -0.6499 -2.6535  1.1911
 1056TIP3   OH224582   4.869   1.856   2.720  0.0491  0.4010  0.2739
 1056TIP3    H124583   4.910   1.878   2.636 -1.0755  0.4124 -0.2975
 1056TIP3    H224584   4.882   1.934   2.774 -2.0209  1.7401 -1.0012
 1057TIP3   OH224585   3.365   4.799   4.315 -0.3943  0.9112 -0.0267
 1057TIP3    H124586   3.315   4.743   4.256  0.1044  2.4841 -2.0621
 1057TIP3    H224587   3.423   4.740   4.361 -2.7241 -0.7200  1.0000
 1058TIP3   OH224588   5.983   0.171  16.668  0.0345 -0.0518  0.2928
 1058TIP3    H124589   6.003   0.107  16.736  2.1247 -0.7586 -0.8848
 1058TIP3    H224590   6.006   0.127  16.586 -2.2933  0.8112 -0.9167
 1059TIP3   OH224591   1.883   4.480   0.480  0.0066 -0.1861 -0.3481
 1059TIP3    H124592   1.878   4.550   0.545  1.3665 -1.2397  0.9880
 1059TIP3    H224593   1.975   4.474   0.458 -0.2662 -0.7253 -1.4221
 1060TIP3   OH224594   4.404   1.188   0.009 -0.4382  0.3032  0.3311
 1060TIP3    H124595   4.459   1.186   0.087 -2.2132 -1.1545  1.6230
 1060TIP3    H224596   4.346   1.262   0.023 -0.8421 -0.0365  0.4730
 1061TIP3   OH224597   2.701   4.674  16.325 -0.0815  0.2511  0.1606
 1061TIP3    H124598   2.758   4.655  16.399  0.4066  0.5782 -0.1214
 1061TIP3    H224599   2.761   4.686  16.251 -0.1902  3.9084  0.4911
 1062TIP3   OH224600   3.600   4.878  16.306  0.4751  0.6464 -0.1211
 1062TIP3    H124601   3.536   4.880  16.236  0.5821 -0.4936 -0.2664
 1062TIP3    H224602   3.680   4.846  16.265  0.8613  1.0813  0.2781
 1063TIP3   OH224603   3.700   4.487  11.104 -0.1428  0.0290  0.0474
 1063TIP3    H124604   3.733   4.547  11.037  1.8543  1.0021  1.7789
 1063TIP3    H224605   3.767   4.418  11.109 -0.4799 -0.2591  0.7517
 1064TIP3   OH224606   1.673   3.276   2.840  0.1975  0.5789  0.5881
 1064TIP3    H124607   1.748   3.301   2.786 -0.5051  0.8013 -0.3090
 1064TIP3    H224608   1.603   3.258   2.777 -0.0003 -1.4415  1.2996
 1065TIP3   OH224609   5.754   4.493   5.619  0.0250  0.6951  0.4817
 1065TIP3    H124610   5.796   4.424   5.670  1.9673  2.3304  1.2550
 1065TIP3    H224611   5.721   4.449   5.541 -0.4332 -1.3783  1.7637
 1066TIP3   OH224612   0.633   1.668   1.017  0.0308  0.6236 -0.1632
 1066TIP3    H124613   0.720   1.635   0.998 -0.1248 -0.2336  0.5756
 1066TIP3    H224614   0.635   1.689   1.110 -0.1363  1.9176 -0.4294
 1067TIP3   OH224615   0.204   1.787  16.763 -0.0996 -0.0137  0.0734
 1067TIP3    H124616   0.240   1.815  16.679 -0.7061 -0.9890 -0.5271
 1067TIP3    H224617   0.158   1.864  16.796 -2.7634 -0.5279 -2.0879
 1068TIP3   OH224618   6.050   4.258   2.594 -0.0893  0.3052 -0.3978
 1068TIP3    H124619   6.078   4.285   2.506  0.0527  1.1751 -0.0887
 1068TIP3    H224620   6.128   4.268   2.648  0.4016 -2.0977 -0.5316
 1069TIP3   OH224621   1.882   2.276   4.391 -0.4393  0.2368  0.0059
 1069TIP3    H124622   1.967   2.290   4.351  1.1623 -3.8719  1.3626
 1069TIP3    H224623   1.900   2.276   4.486 -1.7123 -1.3553  0.3034
 1070TIP3   OH224624   1.079   3.476  12.300  0.1126  0.1385  0.1589
 1070TIP3    H124625   1.085   3.382  12.315  0.6036  0.2930  1.0266
 1070TIP3    H224626   1.169   3.507  12.301 -0.0505  0.6329 -0.0176
 1071TIP3   OH224627   5.387   4.548   0.315 -0.3435 -0.2822 -0.2588
 1071TIP3    H124628   5.415   4.504   0.234  1.3232 -1.1390  0.7142
 1071TIP3    H224629   5.422   4.493   0.385 -1.9041  0.3274  1.0824
 1072TIP3   OH224630   4.742   0.575   0.692  0.3270 -0.3228  0.1719
 1072TIP3    H124631   4.671   0.527   0.649  0.6741  0.1136 -0.9193
 1072TIP3    H224632   4.764   0.645   0.631 -0.8775  1.9286  2.1685
 1073TIP3   OH224633   3.992   3.492  14.487 -0.0851  0.2720 -0.0033
 1073TIP3    H124634   3.989   3.422  14.552 -2.2819 -0.1984 -0.5337
 1073TIP3    H224635   4.032   3.451  14.410  0.4497  0.1852  0.3141
 1074TIP3   OH224636   2.825   2.233   2.387  0.1496  0.2223  0.1943
 1074TIP3    H124637   2.788   2.188   2.463 -0.6733 -0.4932 -0.6053
 1074TIP3    H224638   2.917   2.206   2.386 -0.1151 -0.7140  0.2540
 1075TIP3   OH224639   3.777   2.666   2.318  0.4561 -0.0332  0.1637
 1075TIP3    H124640   3.823   2.703   2.243 -0.0727 -0.4910 -0.3951
 1075TIP3    H224641   3.689   2.702   2.313  0.2549 -0.4989  0.2403
 1076TIP3   OH224642   1.846   0.671   1.486  0.1000 -0.5149  0.1042
 1076TIP3    H124643   1.758   0.704   1.471  0.7747  0.4529 -2.1493
 1076TIP3    H224644   1.856   0.671   1.581 -1.6642  1.1282  0.3525
 1077TIP3   OH224645   5.830   3.202   3.359 -0.0901 -0.6976  0.0377
 1077TIP3    H124646   5.763   3.176   3.296 -1.4410 -0.4847  1.3382
 1077TIP3    H224647   5.790   3.272   3.410  1.9585  1.0597 -0.6080
 1078TIP3   OH224648   4.239   3.462   5.693 -0.0464 -0.1386  0.1567
 1078TIP3    H124649   4.202   3.550   5.708 -1.1310 -0.1339 -2.1406
 1078TIP3    H224650   4.167   3.403   5.716 -0.6817 -0.2258 -1.8435
 1079TIP3   OH224651   0.787   3.674   2.467 -0.3409 -0.1719 -0.0087
 1079TIP3    H124652   0.869   3.685   2.515  1.2779 -0.0265 -2.6132
 1079TIP3    H224653   0.802   3.599   2.410 -1.9547  0.0068 -0.7247
 1080TIP3   OH224654   5.671   3.604   2.148  0.5896  0.3278 -0.2277
 1080TIP3    H124655   5.665   3.548   2.071 -1.1064  1.1800 -0.7720
 1080TIP3    H224656   5.657   3.545   2.223  2.7723 -0.5942 -0.4884
 1081TIP3   OH224657   0.742   3.286  14.376 -0.2580  0.3352 -0.2660
 1081TIP3    H124658   0.701   3.207  14.341  1.3313 -0.4839 -0.3425
 1081TIP3    H224659   0.679   3.318  14.441 -0.9138 -1.0039 -0.2013
 1082TIP3   OH224660   1.742   1.815   3.702  0.3790 -0.0669  0.3091
 1082TIP3    H124661   1.715   1.854   3.619  2.0314 -1.3698 -0.8953
 1082TIP3    H224662   1.806   1.748   3.678  1.5073  0.0551  2.7037
 1083TIP3   OH224663   0.142   4.815  12.170  0.3484 -0.0254 -0.3267
 1083TIP3    H124664   0.108   4.899  12.139 -1.7357 -0.9511 -0.7008
 1083TIP3    H224665   0.176   4.772  12.091 -1.4617 -0.7924 -0.7349
 1084TIP3   OH224666   0.167   4.958   0.045 -0.3255  0.4845 -0.3488
 1084TIP3    H124667   0.222   4.956  -0.034 -0.8228  0.3655 -0.7012
 1084TIP3    H224668   0.170   4.868   0.078 -0.1333  0.5297 -0.2394
 1085TIP3   OH224669   1.105   3.283   4.045 -0.4474 -0.1689  0.5324
 1085TIP3    H124670   1.060   3.231   4.111 -0.4139 -1.7451 -0.6465
 1085TIP3    H224671   1.196   3.284   4.072 -0.1571 -2.1030 -0.2394
 1086TIP3   OH224672   5.280   2.002  12.963 -0.0366 -0.1726 -0.3650
 1086TIP3    H124673   5.293   1.960  12.878 -3.3021 -2.5062  0.0864
 1086TIP3    H224674   5.260   2.093  12.941  0.4603 -0.4138 -2.0064
 1087TIP3   OH224675   2.013   2.312  15.199  0.2856  0.1020 -0.6658
 1087TIP3    H124676   1.976   2.355  15.122 -0.4223 -0.9451 -0.9324
 1087TIP3    H224677   2.077   2.250  15.163 -1.1195 -1.4662 -0.5467
 1088TIP3   OH224678   5.603   2.536  15.984  0.5188 -0.6055 -0.2225
 1088TIP3    H124679   5.582   2.448  16.017  0.4962 -1.9043 -3.3434
 1088TIP3    H224680   5.699   2.541  15.992  0.3117  0.6339  3.1990
 1089TIP3   OH224681   0.403   5.469  10.670 -0.6361 -0.0146  0.1477
 1089TIP3    H124682   0.442   5.422  10.596  1.4405  0.8337  0.6292
 1089TIP3    H224683   0.363   5.401  10.724 -0.2391 -0.8927 -0.6534
 1090TIP3   OH224684   5.503   2.975   1.681  0.0701  0.7583 -0.0217
 1090TIP3    H124685   5.426   3.027   1.661 -1.1957 -1.2647 -0.7177
 1090TIP3    H224686   5.468   2.894   1.719  1.8118 -0.3328 -0.6153
 1091TIP3   OH224687   1.351   1.504   2.173 -0.2389 -0.0718 -0.0959
 1091TIP3    H124688   1.350   1.597   2.194  1.9303 -0.6702  3.4780
 1091TIP3    H224689   1.444   1.484   2.158 -0.4835 -1.8724  0.5800
 1092TIP3   OH224690   6.691   3.926   3.949 -0.4461  0.2256 -0.0803
 1092TIP3    H124691   6.776   3.958   3.922 -0.5473 -0.0489 -0.7517
 1092TIP3    H224692   6.634   3.941   3.873 -0.8417 -0.1599  0.1307
 1093TIP3   OH224693   0.322   6.265   3.826 -0.4093 -0.1411  0.6812
 1093TIP3    H124694   0.268   6.331   3.784  0.7710 -1.0125 -2.4532
 1093TIP3    H224695   0.268   6.186   3.828 -0.2548 -0.2571  0.2465
 1094TIP3   OH224696   5.711   0.262  10.634 -0.2140  0.3086 -0.7188
 1094TIP3    H124697   5.679   0.182  10.677 -2.6533  2.8094  2.6269
 1094TIP3    H224698   5.803   0.244  10.617 -0.2739 -2.7133  1.3032
 1095TIP3   OH224699   6.439   4.929   1.650  0.2731 -0.4280  0.1290
 1095TIP3    H124700   6.505   4.995   1.671 -0.3406  1.3700 -3.0257
 1095TIP3    H224701   6.360   4.960   1.694  0.5080 -0.2903  0.4636
 1096TIP3   OH224702   3.457   6.024   4.211  0.2080 -0.3381  0.6809
 1096TIP3    H124703   3.400   6.061   4.144  0.3239 -1.5110 -0.0967
 1096TIP3    H224704   3.434   5.931   4.213  1.0426 -0.5431  1.4235
 1097TIP3   OH224705   0.439   3.947   3.255  0.0264 -0.4793 -0.5717
 1097TIP3    H124706   0.529   3.916   3.243  0.7059  0.6925  1.2390
 1097TIP3    H224707   0.428   4.015   3.189  1.0931  0.5947  0.3271
 1098TIP3   OH224708   5.213   0.673  15.387  0.0753  0.7246 -0.1934
 1098TIP3    H124709   5.220   0.586  15.425 -1.8277  0.3743 -0.5111
 1098TIP3    H224710   5.293   0.684  15.336 -0.2219 -1.4192 -1.2495
 1099TIP3   OH224711   0.950   6.487  14.077  0.1225  0.2714 -0.7200
 1099TIP3    H124712   0.966   6.524  14.163 -1.1359 -2.2725  0.7145
 1099TIP3    H224713   1.035   6.454  14.049  0.2157 -0.4636  0.3740
 1100TIP3   OH224714   2.809   1.288   0.027 -0.3908 -0.5078  0.0344
 1100TIP3    H124715   2.741   1.228  -0.004 -0.2040 -0.8946  0.3640
 1100TIP3    H224716   2.872   1.231   0.071  1.3508 -0.5035 -2.2381
 1101TIP3   OH224717   1.502   4.144   3.329  0.0135  0.6216 -0.6615
 1101TIP3    H124718   1.446   4.169   3.402 -0.9013 -0.7092 -0.8746
 1101TIP3    H224719   1.566   4.084   3.366 -0.6919 -0.3622 -1.0027
 1102TIP3   OH224720   2.325   5.959   5.041 -0.3123 -0.2352 -0.7496
 1102TIP3    H124721   2.359   5.964   4.952  0.4058  3.2098 -0.4158
 1102TIP3    H224722   2.365   6.034   5.086 -0.5969 -1.9039  2.5144
 1103TIP3   OH224723   5.415   2.237   2.080 -0.3832 -0.2654 -0.7103
 1103TIP3    H124724   5.395   2.214   2.171 -4.2530  0.9775 -1.0704
 1103TIP3    H224725   5.448   2.327   2.084 -2.6107  0.6198 -0.5554
 1104TIP3   OH224726   3.022   0.275  11.484 -0.3099 -0.6015  0.0990
 1104TIP3    H124727   2.937   0.280  11.526  0.7670  0.5745  2.2747
 1104TIP3    H224728   3.077   0.229  11.547  1.5860  1.9789  0.4647
 1105TIP3   OH224729   1.704   3.082   4.556 -0.0461 -0.2381  0.2821
 1105TIP3    H124730   1.653   3.160   4.536  0.7033  0.2153  0.0940
 1105TIP3    H224731   1.795   3.111   4.553  0.2702 -1.2071 -0.2224
 1106TIP3   OH224732   4.585   2.102  11.569 -0.0766 -0.5481  0.1182
 1106TIP3    H124733   4.676   2.100  11.601 -0.1789  0.4743  0.5218
 1106TIP3    H224734   4.586   2.047  11.490  0.3547 -2.5108  1.4202
 1107TIP3   OH224735   1.176   1.342  13.336 -0.5565 -0.1154 -0.4822
 1107TIP3    H124736   1.267   1.372  13.340 -0.1063 -1.3203 -1.0262
 1107TIP3    H224737   1.181   1.249  13.360 -1.7741  0.0143  0.3477
 1108TIP3   OH224738   5.797   2.590  12.987 -0.2905  0.3408 -0.2808
 1108TIP3    H124739   5.701   2.586  12.980 -0.3611  1.3583 -0.0698
 1108TIP3    H224740   5.813   2.647  13.062  0.4807 -2.2909  1.7115
 1109TIP3   OH224741   5.565   4.126   1.373 -0.6386 -0.6396 -0.1040
 1109TIP3    H124742   5.606   4.096   1.291  0.7874  1.4961 -0.2576
 1109TIP3    H224743   5.498   4.188   1.345  2.3044  3.0572  0.2059
 1110TIP3   OH224744   3.840   1.328  10.862 -0.3364 -0.1786 -0.7122
 1110TIP3    H124745   3.773   1.271  10.826  0.2712 -1.7288  0.5411
 1110TIP3    H224746   3.916   1.314  10.805  0.5828 -2.5329  0.9668
 1111TIP3   OH224747   0.185   3.971   1.371 -0.6521  0.0260  0.1964
 1111TIP3    H124748   0.178   4.029   1.448  1.6333  1.9710 -0.9300
 1111TIP3    H224749   0.273   3.934   1.378 -2.5750 -5.1497  1.9053
 1112TIP3   OH224750   6.309   5.735   3.625  0.2520 -0.1349 -0.2770
 1112TIP3    H124751   6.329   5.828   3.640 -0.3119 -0.0540 -0.0142
 1112TIP3    H224752   6.252   5.711   3.698 -0.9339 -0.2578 -1.2310
 1113TIP3   OH224753   3.685   0.901   4.586 -0.0996 -0.0885 -0.7231
 1113TIP3    H124754   3.686   0.994   4.563  0.2752  0.1596  0.2472
 1113TIP3    H224755   3.598   0.871   4.561 -0.5540  0.7442 -0.1967
 1114TIP3   OH224756   5.743   5.998   1.184  0.1288 -0.5773 -0.2280
 1114TIP3    H124757   5.815   5.992   1.247  0.5293 -2.9155 -0.7887
 1114TIP3    H224758   5.768   6.068   1.125  0.5615  0.5164  1.1960
 1115TIP3   OH224759   3.638   2.982  12.365 -1.0147  0.0503  0.3139
 1115TIP3    H124760   3.583   2.976  12.287 -0.7953 -0.7756  0.2188
 1115TIP3    H224761   3.640   3.076  12.386 -0.9737  0.2911 -0.7374
 1116TIP3   OH224762   6.108   2.125  16.745  0.4132 -0.0782 -0.6890
 1116TIP3    H124763   6.182   2.067  16.725 -0.4567 -1.7420  0.5969
 1116TIP3    H224764   6.114   2.138  16.840 -0.3901  0.5432 -0.7189
 1117TIP3   OH224765   4.896   6.362  14.542  0.3983  0.3785  0.1692
 1117TIP3    H124766   4.864   6.272  14.531  1.0376  0.2743 -1.0740
 1117TIP3    H224767   4.981   6.352  14.585  1.2916  0.2222 -1.5458
 1118TIP3   OH224768   1.396   3.806  14.694  0.1318 -0.0324  0.1661
 1118TIP3    H124769   1.395   3.892  14.736  1.1417  0.0652  0.0324
 1118TIP3    H224770   1.454   3.753  14.749  1.2648  0.0268 -0.9325
 1119TIP3   OH224771   0.304   2.623   6.520 -1.1499  0.1072 -0.3455
 1119TIP3    H124772   0.385   2.642   6.567 -1.5744 -0.5097  0.6801
 1119TIP3    H224773   0.244   2.590   6.587 -1.7960 -0.7778 -1.3068
 1120TIP3   OH224774   3.681   6.162   5.439  0.1070 -0.1892 -0.2647
 1120TIP3    H124775   3.608   6.193   5.385  0.9704  1.1935 -0.6969
 1120TIP3    H224776   3.679   6.218   5.516 -0.6003 -1.6055  0.7953
 1121TIP3   OH224777   1.770   1.874   1.222  0.4959 -0.3494 -0.1893
 1121TIP3    H124778   1.858   1.907   1.205  0.3333 -0.7074 -1.9960
 1121TIP3    H224779   1.763   1.795   1.168 -0.9866 -0.2087 -0.2701
 1122TIP3   OH224780   4.983   0.925   2.485 -0.2804  0.4671  0.3345
 1122TIP3    H124781   4.939   0.931   2.570  0.7109  2.0167  0.7726
 1122TIP3    H224782   5.055   0.864   2.499  1.3977  2.5625  1.3657
 1123TIP3   OH224783   1.836   2.440   3.904  0.1986 -0.3236 -0.2272
 1123TIP3    H124784   1.762   2.428   3.964  0.0973 -0.6447 -0.4163
 1123TIP3    H224785   1.852   2.353   3.868  0.8473 -0.3134  0.0208
 1124TIP3   OH224786   5.623   6.479  11.603  0.6416  0.4936  0.7519
 1124TIP3    H124787   5.659   6.566  11.619  1.1193  0.2501  1.0135
 1124TIP3    H224788   5.578   6.487  11.519  0.6766  0.9922  0.7776
 1125TIP3   OH224789   4.889   6.492  17.253  0.7373 -0.0465  0.4095
 1125TIP3    H124790   4.923   6.403  17.266 -0.7461 -0.4124  2.0737
 1125TIP3    H224791   4.942   6.527  17.181  2.6654 -1.5706  1.0020
 1126TIP3   OH224792   0.084   1.985   4.118  0.3036  0.3790  0.2412
 1126TIP3    H124793   0.149   2.019   4.179 -1.8536  0.2874  2.7380
 1126TIP3    H224794   0.064   1.898   4.150  0.5766 -0.5428 -1.8933
 1127TIP3   OH224795   2.014   3.931  12.628 -0.2828 -0.6437 -0.1684
 1127TIP3    H124796   2.015   3.885  12.544 -0.0829  0.9207 -1.0492
 1127TIP3    H224797   2.022   4.023  12.605 -1.6279 -0.0633  1.4936
 1128TIP3   OH224798   4.427   1.071  12.601  0.2304 -0.5516 -0.0309
 1128TIP3    H124799   4.390   1.020  12.529 -0.2527  0.9625 -0.8981
 1128TIP3    H224800   4.352   1.094  12.656  0.4045 -0.5742  0.2208
 1129TIP3   OH224801   4.079   1.558   4.071 -0.0326 -0.4175 -0.2885
 1129TIP3    H124802   4.010   1.609   4.028  0.4525  0.8154  0.3142
 1129TIP3    H224803   4.148   1.622   4.089  0.8383 -1.4163  0.0353
 1130TIP3   OH224804   4.996   5.735  15.032  0.3466  0.1711 -0.0410
 1130TIP3    H124805   4.940   5.691  15.096  0.3974 -0.6436 -0.5408
 1130TIP3    H224806   4.936   5.763  14.962  0.3337  0.7858  0.2121
 1131TIP3   OH224807   6.165   5.694   3.857 -0.2186  0.0959 -0.0026
 1131TIP3    H124808   6.078   5.671   3.889  0.2171 -0.8787  0.5503
 1131TIP3    H224809   6.221   5.688   3.935  0.4360  0.1159 -0.4666
 1132TIP3   OH224810   0.251   1.945  13.997 -0.3247 -0.0644  0.1499
 1132TIP3    H124811   0.338   1.910  13.976  0.3150  0.2808  2.0186
 1132TIP3    H224812   0.192   1.872  13.981  0.3184 -0.3544 -1.0156
 1133TIP3   OH224813   4.023   6.715  16.736 -0.6258  0.2957 -0.7671
 1133TIP3    H124814   3.956   6.656  16.772  3.0551 -2.4314  2.4624
 1133TIP3    H224815   4.030   6.785  16.800  2.5382 -1.9406  1.6275
 1134TIP3   OH224816   1.733   3.160   4.000 -0.2486  0.1691  0.2766
 1134TIP3    H124817   1.728   3.079   4.050 -1.7878  0.6056  0.9035
 1134TIP3    H224818   1.642   3.179   3.976  0.2643  0.8856 -1.2223
 1135TIP3   OH224819   6.586   1.875  15.498  0.6776  0.0628 -0.0360
 1135TIP3    H124820   6.561   1.783  15.488  0.2794  0.3176 -1.5811
 1135TIP3    H224821   6.556   1.898  15.586  0.3120 -1.1339  0.1752
 1136TIP3   OH224822   3.632   5.825   1.361  0.3584  0.7297 -0.1355
 1136TIP3    H124823   3.670   5.819   1.273  1.0488  1.2491  0.1209
 1136TIP3    H224824   3.542   5.855   1.346  0.1401 -0.1691 -0.7226
 1137TIP3   OH224825   2.762   5.988   5.756  0.2617 -0.1387  0.2211
 1137TIP3    H124826   2.808   6.068   5.781  0.7626 -0.7339  1.2519
 1137TIP3    H224827   2.722   5.957   5.837 -1.1410 -0.1827 -0.4508
 1138TIP3   OH224828   2.516   4.098   0.390  0.2939  0.2682 -0.8616
 1138TIP3    H124829   2.423   4.112   0.408  0.2654 -1.2904  0.3833
 1138TIP3    H224830   2.518   4.058   0.303 -0.0856  1.3133 -1.3738
 1139TIP3   OH224831   0.552   2.731  15.052  0.3617 -0.4509 -0.1137
 1139TIP3    H124832   0.561   2.751  14.959 -0.3861  0.5214  0.0146
 1139TIP3    H224833   0.510   2.645  15.054 -0.1622 -0.2089 -0.6739
 1140TIP3   OH224834   5.823   6.362  13.618  0.0429  0.3555 -0.1909
 1140TIP3    H124835   5.774   6.300  13.673 -1.2781  0.9488 -0.6556
 1140TIP3    H224836   5.904   6.377  13.667  0.2768 -1.4846  0.0838
 1141TIP3   OH224837   1.777   6.377  13.446  0.5850  0.1936  0.0020
 1141TIP3    H124838   1.806   6.285  13.450 -1.7560 -0.6002  0.2081
 1141TIP3    H224839   1.693   6.377  13.492 -0.0225  2.2330 -1.0242
 1142TIP3   OH224840   5.851   2.444   2.418 -0.4963 -0.1883 -0.3981
 1142TIP3    H124841   5.820   2.521   2.371  0.3058  0.1489 -0.4009
 1142TIP3    H224842   5.798   2.372   2.384 -0.8210  0.2582 -0.8586
 1143TIP3   OH224843   4.432   5.824   6.685 -0.4590  0.7267  0.6517
 1143TIP3    H124844   4.415   5.785   6.599 -1.4655  0.5478  0.9168
 1143TIP3    H224845   4.521   5.797   6.707 -0.4196  0.2529 -0.0624
 1144TIP3   OH224846   2.001   4.589   5.458 -0.1922  0.2734 -0.3170
 1144TIP3    H124847   2.014   4.505   5.502 -1.3193  0.7981  1.1145
 1144TIP3    H224848   2.089   4.617   5.434  0.2345 -1.1629 -0.5432
 1145TIP3   OH224849   5.575   3.654   4.975 -0.8179 -0.3517  0.0914
 1145TIP3    H124850   5.538   3.592   4.913 -1.0554 -0.1583  0.0365
 1145TIP3    H224851   5.541   3.626   5.060 -0.2455 -0.8010  0.1776
 1146TIP3   OH224852   1.569   2.120   3.262 -0.2483  0.1861 -1.1121
 1146TIP3    H124853   1.654   2.129   3.304 -0.5823 -0.7376 -0.1966
 1146TIP3    H224854   1.540   2.210   3.247  1.0810  0.5183 -1.8928
 1147TIP3   OH224855   0.008   6.480   5.571 -0.0662 -0.0200 -0.7497
 1147TIP3    H124856   0.065   6.551   5.541 -1.4619  1.5407  0.1006
 1147TIP3    H224857  -0.072   6.490   5.521 -1.5899  1.2494  1.7393
 1148TIP3   OH224858   6.603   4.774  16.579  0.6896  0.3243 -0.0455
 1148TIP3    H124859   6.580   4.848  16.522  3.7456  0.5814 -1.1136
 1148TIP3    H224860   6.520   4.728  16.592 -0.5163  1.3312 -3.1934
 1149TIP3   OH224861   0.887   3.025  16.566  0.0841  0.1891  0.1842
 1149TIP3    H124862   0.943   2.996  16.639 -0.3881 -1.6475 -0.1424
 1149TIP3    H224863   0.833   3.094  16.604  0.2785 -0.3026  1.4162
 1150TIP3   OH224864   4.919   1.188  15.996  0.4549  0.2168 -0.2627
 1150TIP3    H124865   5.003   1.147  15.973  0.1387 -0.5477 -0.1097
 1150TIP3    H224866   4.920   1.190  16.092  1.0068  1.7556 -0.2760
 1151TIP3   OH224867   5.309   3.628   1.225 -0.5380 -0.0900 -0.4099
 1151TIP3    H124868   5.300   3.700   1.163 -1.1699  0.0782 -0.1345
 1151TIP3    H224869   5.361   3.562   1.178  2.3968  1.5763  0.2387
 1152TIP3   OH224870   1.994   0.743   2.009 -0.2597 -0.0845 -0.6209
 1152TIP3    H124871   2.054   0.732   2.083 -0.1886  1.5968 -0.3995
 1152TIP3    H224872   1.908   0.722   2.045 -0.2429  0.8369  0.0014
 1153TIP3   OH224873   1.032   4.381  15.920 -0.3117  1.1764 -0.3522
 1153TIP3    H124874   1.085   4.388  16.000  0.2745  0.7726 -0.6995
 1153TIP3    H224875   1.066   4.450  15.863 -0.2288  0.9835 -0.5364
 1154TIP3   OH224876   5.978   0.641  16.945 -0.1223  0.2417  0.2011
 1154TIP3    H124877   6.047   0.707  16.953 -0.1873  0.3885 -0.3614
 1154TIP3    H224878   5.906   0.687  16.901 -1.5442  0.7925  2.8774
 1155TIP3   OH224879   4.583   5.744   4.939 -0.6495  0.4859 -0.3054
 1155TIP3    H124880   4.509   5.737   4.879 -0.3956  0.3539 -0.6007
 1155TIP3    H224881   4.621   5.830   4.920 -0.3877  0.3164 -0.5389
 1156TIP3   OH224882   4.358   4.272   0.284  0.1024 -0.3181 -0.5755
 1156TIP3    H124883   4.442   4.277   0.330  0.4511 -3.6460 -0.6128
 1156TIP3    H224884   4.363   4.342   0.219  2.0803  0.7029  0.5572
 1157TIP3   OH224885   2.205   4.712   3.742  0.4766 -0.4421 -0.1332
 1157TIP3    H124886   2.201   4.629   3.790 -0.9844 -0.1649  0.2575
 1157TIP3    H224887   2.135   4.705   3.677  0.3571  0.4645 -0.1122
 1158TIP3   OH224888   0.756   1.979   5.190 -0.3044 -0.1345  0.4810
 1158TIP3    H124889   0.704   2.001   5.268 -1.4019  1.7662 -0.6832
 1158TIP3    H224890   0.720   1.896   5.160 -2.0998  0.6620  0.2643
 1159TIP3   OH224891   5.603   1.454   2.791  0.0452 -0.2205 -0.5291
 1159TIP3    H124892   5.666   1.430   2.723  1.0387 -1.2214  0.6895
 1159TIP3    H224893   5.637   1.414   2.871 -2.6256 -1.6172  0.0449
 1160TIP3   OH224894   1.106   0.723   5.427  0.1910 -0.3961 -0.3088
 1160TIP3    H124895   1.076   0.632   5.433 -0.0798 -0.3172 -0.4612
 1160TIP3    H224896   1.198   0.716   5.401  0.4018 -0.6463  0.4712
 1161TIP3   OH224897   6.102   5.650  16.310 -0.2674 -0.0921  0.0928
 1161TIP3    H124898   6.038   5.579  16.308 -0.4855  0.0977  0.1215
 1161TIP3    H224899   6.169   5.625  16.247 -0.4185 -0.2523 -0.0061
 1162TIP3   OH224900   2.110   4.847   4.320  0.0204  0.3691 -0.1260
 1162TIP3    H124901   2.174   4.883   4.259 -0.1400 -0.5619 -0.8638
 1162TIP3    H224902   2.037   4.819   4.265 -0.2989 -0.1087  0.5309
 1163TIP3   OH224903   6.047   1.482  17.079  0.1603  0.8472  0.5196
 1163TIP3    H124904   6.054   1.518  16.990  2.2165 -0.4393  0.0815
 1163TIP3    H224905   5.988   1.407  17.070 -0.0534  1.0333  0.3534
 1164TIP3   OH224906   1.650   2.599   1.038  0.2840  0.7193  0.2829
 1164TIP3    H124907   1.697   2.648   0.971  2.4257  0.2742  1.3726
 1164TIP3    H224908   1.667   2.647   1.119  0.0322 -0.2508  0.9269
 1165TIP3   OH224909   0.297   4.184  17.297  0.7419  0.1914  0.7337
 1165TIP3    H124910   0.233   4.166  17.228  1.2304  2.2519 -0.3319
 1165TIP3    H224911   0.298   4.104  17.350 -1.7657 -0.3788  0.0550
 1166TIP3   OH224912   4.034   3.846   2.277 -0.1762  0.2227 -0.2086
 1166TIP3    H124913   3.969   3.792   2.233 -1.3709  2.6082 -1.5553
 1166TIP3    H224914   4.113   3.835   2.224 -0.5377  0.1716 -0.7535
 1167TIP3   OH224915   5.064   5.947  14.347  0.3543 -0.0115  0.0810
 1167TIP3    H124916   5.141   5.906  14.308  1.6638  1.1780  1.3188
 1167TIP3    H224917   5.002   5.875  14.359  0.8750 -0.8375 -1.7729
 1168TIP3   OH224918   1.922   3.023  12.689  0.0437 -0.0326 -0.0137
 1168TIP3    H124919   1.944   3.106  12.647 -2.2974  0.6004 -0.1502
 1168TIP3    H224920   1.875   2.973  12.622  0.9849 -1.3081  0.2192
 1169TIP3   OH224921   4.168   6.196   0.952  0.3735 -0.5450  0.3501
 1169TIP3    H124922   4.082   6.227   0.924 -0.3902 -1.9931  0.9576
 1169TIP3    H224923   4.205   6.270   1.001 -0.5339  0.0814  0.1192
 1170TIP3   OH224924   4.244   6.248  11.304 -0.3944 -0.6340  0.0370
 1170TIP3    H124925   4.175   6.199  11.349  1.1756 -2.9600  0.0709
 1170TIP3    H224926   4.262   6.322  11.361 -2.7418 -0.0217  0.0772
 1171TIP3   OH224927   5.875   1.010  11.556  0.0070 -0.4419  0.1321
 1171TIP3    H124928   5.785   1.040  11.569 -0.2279 -0.6272 -0.9686
 1171TIP3    H224929   5.877   0.978  11.466  1.8758  2.1407 -0.8837
 1172TIP3   OH224930   5.339   4.108  10.927 -0.0609  0.1138  0.1484
 1172TIP3    H124931   5.370   4.176  10.986 -0.9325  0.7086 -0.0626
 1172TIP3    H224932   5.323   4.153  10.844 -0.6634 -0.3370  0.0121
 1173TIP3   OH224933   4.706   3.038   4.686  0.2521 -0.6900 -0.4342
 1173TIP3    H124934   4.704   3.133   4.671  0.9572 -0.8933 -2.0229
 1173TIP3    H224935   4.662   3.002   4.609 -1.5073 -1.6250  0.9180
 1174TIP3   OH224936   2.754   0.193  12.783  0.8086 -0.4301  0.0989
 1174TIP3    H124937   2.665   0.223  12.763  0.8116 -0.4642  0.0357
 1174TIP3    H224938   2.750   0.098  12.774  1.1191 -0.3492 -0.9658
 1175TIP3   OH224939   2.597   4.454  13.554  0.0492  0.1020  0.1417
 1175TIP3    H124940   2.631   4.438  13.465  2.2016 -0.9022  1.0563
 1175TIP3    H224941   2.596   4.549  13.562 -1.7577  0.2760 -1.4814
 1176TIP3   OH224942   1.917   2.560   0.425 -0.1565  0.0045 -0.0724
 1176TIP3    H124943   1.880   2.579   0.339  0.3626 -0.9589 -0.5257
 1176TIP3    H224944   2.009   2.540   0.408 -0.7658 -3.7144  0.1676
 1177TIP3   OH224945   3.850   5.644  14.233 -0.5914 -0.5785  0.2379
 1177TIP3    H124946   3.812   5.704  14.169  0.4051 -1.3292 -1.1009
 1177TIP3    H224947   3.775   5.592  14.263 -1.3079  0.7047  0.7588
 1178TIP3   OH224948   3.606   6.648  12.449  0.1558 -0.9533  0.0442
 1178TIP3    H124949   3.633   6.614  12.364  0.9390 -0.4752  0.0941
 1178TIP3    H224950   3.574   6.736  12.431  0.6353 -0.7273  0.2891
 1179TIP3   OH224951   0.120   4.517  16.268  0.1133  0.5735 -0.5526
 1179TIP3    H124952   0.090   4.451  16.205 -1.2656  0.3151  0.3145
 1179TIP3    H224953   0.180   4.470  16.326 -0.9793 -0.0057  0.1515
 1180TIP3   OH224954   6.513   3.798   0.392 -0.0342 -0.1072  0.2118
 1180TIP3    H124955   6.586   3.797   0.331  0.0674 -0.2831  0.3356
 1180TIP3    H224956   6.491   3.705   0.405 -0.9707 -0.0177 -0.6534
 1181TIP3   OH224957   5.259   5.040  16.098 -0.1486 -0.4916  0.0196
 1181TIP3    H124958   5.294   5.064  16.184 -1.6516  1.0652  0.2428
 1181TIP3    H224959   5.327   4.985  16.059  3.0558  3.0005  0.0532
 1182TIP3   OH224960   1.517   3.273   1.154 -0.0497 -0.2422 -0.2898
 1182TIP3    H124961   1.590   3.321   1.114 -1.0363  1.8158  0.2530
 1182TIP3    H224962   1.460   3.250   1.080 -0.1525  0.4876 -0.4437
 1183TIP3   OH224963   4.797   3.556  14.244 -0.5817  0.2575  0.2334
 1183TIP3    H124964   4.722   3.604  14.279 -0.5772 -0.4325  1.2426
 1183TIP3    H224965   4.813   3.595  14.158 -0.7401  1.8765  0.9022
 1184TIP3   OH224966   0.606   2.805   1.677  0.4041  0.6284 -0.0565
 1184TIP3    H124967   0.656   2.775   1.601  0.2807  3.0493 -1.2125
 1184TIP3    H224968   0.514   2.793   1.651  0.3425 -0.6112  0.6623
 1185TIP3   OH224969   5.627   0.908   5.390  0.5510 -0.6718 -0.3745
 1185TIP3    H124970   5.702   0.959   5.423  0.0255  0.1475 -0.4094
 1185TIP3    H224971   5.622   0.933   5.297 -0.2621 -0.0773 -0.1831
 1186TIP3   OH224972   3.194   0.198   0.242  1.3438 -0.2233  0.3770
 1186TIP3    H124973   3.138   0.185   0.318  2.0432 -1.6653  0.6842
 1186TIP3    H224974   3.283   0.198   0.277  1.8003 -2.6745 -0.5631
 1187TIP3   OH224975   1.905   3.812   2.218  0.3374  0.0279 -0.3147
 1187TIP3    H124976   1.868   3.766   2.143 -1.9526  2.3999 -0.7527
 1187TIP3    H224977   1.920   3.901   2.187  2.3364  0.2909  1.1927
 1188TIP3   OH224978   2.679   5.417   0.389  0.8332 -0.1255  0.2297
 1188TIP3    H124979   2.735   5.359   0.337  1.8296  1.0429 -0.0590
 1188TIP3    H224980   2.702   5.398   0.480  0.0674 -1.2166  0.2130
 1189TIP3   OH224981   4.546   0.744  12.946 -0.1873  0.1733  0.2547
 1189TIP3    H124982   4.563   0.838  12.934 -0.0126  0.0403 -0.6136
 1189TIP3    H224983   4.632   0.706  12.960 -0.2705  0.1492  0.7361
 1190TIP3   OH224984   4.602   6.049   2.911  0.1631 -0.5721  0.1078
 1190TIP3    H124985   4.611   6.089   2.825  0.8733  0.4727  0.6478
 1190TIP3    H224986   4.514   6.010   2.910 -0.3384  0.5407 -0.6351
 1191TIP3   OH224987   1.091   5.969  12.213  0.5561  0.5985 -0.0339
 1191TIP3    H124988   1.065   5.981  12.121 -0.9423  1.3814  0.4634
 1191TIP3    H224989   1.084   5.875  12.228 -1.2219  0.6860 -0.1688
 1192TIP3   OH224990   2.739   4.305   1.109 -0.5645  0.5865 -1.0313
 1192TIP3    H124991   2.699   4.247   1.044 -0.4928 -1.2946  0.5030
 1192TIP3    H224992   2.675   4.311   1.180  0.1019  1.0715 -0.4470
 1193TIP3   OH224993   0.828   0.063  14.418 -0.2402 -0.2998  0.1591
 1193TIP3    H124994   0.854   0.132  14.357  1.2606  0.5434  1.6562
 1193TIP3    H224995   0.798   0.110  14.496  1.1652 -1.2980  1.3591
 1194TIP3   OH224996   4.192   6.727  16.528  0.2695  0.1114 -0.3845
 1194TIP3    H124997   4.116   6.721  16.586  0.2678  1.6794 -0.1874
 1194TIP3    H224998   4.166   6.791  16.462  1.0938 -0.0162 -0.8389
 1195TIP3   OH224999   6.547   1.893  15.782  0.1368 -0.7730 -0.5936
 1195TIP3    H125000   6.520   1.826  15.844  0.6008  0.0158  0.4899
 1195TIP3    H225001   6.478   1.960  15.786  1.4244  0.5525  1.1071
 1196TIP3   OH225002   2.699   3.555  12.833 -0.2692 -0.2811  0.8010
 1196TIP3    H125003   2.789   3.546  12.802 -0.5103 -0.4618  0.1507
 1196TIP3    H225004   2.677   3.647  12.818  0.8230  0.5719  3.7591
 1197TIP3   OH225005   1.154   2.764   4.732  0.2690 -0.3584  0.4345
 1197TIP3    H125006   1.188   2.772   4.821  1.0376 -1.1301  0.2189
 1197TIP3    H225007   1.232   2.758   4.676 -0.2080 -0.6173 -0.2223
 1198TIP3   OH225008   3.142   4.559   0.937  0.0923  0.8448  0.0740
 1198TIP3    H125009   3.115   4.503   1.009  1.1989  1.6026  1.1089
 1198TIP3    H225010   3.216   4.609   0.971  0.4475  1.4504 -1.4851
 1199TIP3   OH225011   1.530   1.007  11.710  0.2598 -0.2397 -0.1572
 1199TIP3    H125012   1.526   0.925  11.662  1.0757 -0.6390  0.4360
 1199TIP3    H225013   1.452   1.055  11.682  0.2931 -0.7947 -1.2576
 1200TIP3   OH225014   5.731   5.658   4.441  0.0113  0.3178  1.0161
 1200TIP3    H125015   5.677   5.736   4.453 -2.1328 -0.7865 -0.7593
 1200TIP3    H225016   5.812   5.678   4.488 -0.4591  3.5702  0.6799
 1201TIP3   OH225017   3.360   6.607   5.928  0.4299  0.3277  0.2613
 1201TIP3    H125018   3.305   6.657   5.867 -0.2088  0.3853  0.8765
 1201TIP3    H225019   3.365   6.661   6.007  0.0231 -0.4049  0.8047
 1202TIP3   OH225020   0.989   0.489  12.887 -0.0424 -0.4006  0.3389
 1202TIP3    H125021   0.995   0.563  12.948 -1.8862 -0.8257  1.1404
 1202TIP3    H225022   0.904   0.500  12.845 -0.3032 -1.9704  0.3848
 1203TIP3   OH225023   6.541   0.085   2.987  0.0666  0.0820 -0.2606
 1203TIP3    H125024   6.536   0.063   2.894  4.9886 -2.5425 -0.2807
 1203TIP3    H225025   6.578   0.173   2.988 -1.4150  0.7325 -0.6934
 1204TIP3   OH225026   6.499   0.438  12.106 -0.4957 -0.5373 -0.1599
 1204TIP3    H125027   6.586   0.475  12.094 -0.7163 -0.1968 -0.7575
 1204TIP3    H225028   6.457   0.446  12.020 -2.1619  1.9934  0.7589
 1205TIP3   OH225029   6.629   1.306  16.148  0.2061 -0.3898 -0.0787
 1205TIP3    H125030   6.684   1.242  16.193 -0.1188  0.3432  1.4072
 1205TIP3    H225031   6.660   1.391  16.179 -0.6821  0.1007 -0.4905
 1206TIP3   OH225032   4.674   0.293   2.956  0.1598 -0.1549 -0.1687
 1206TIP3    H125033   4.741   0.256   3.013  0.0233  0.2796  0.2742
 1206TIP3    H225034   4.663   0.383   2.986 -0.9413 -0.3498  0.0473
 1207TIP3   OH225035   6.674   0.239  11.649  0.2455 -0.1962 -0.3692
 1207TIP3    H125036   6.642   0.296  11.579 -0.4468  1.3523  1.1344
 1207TIP3    H225037   6.728   0.174  11.604  1.4848  1.9167 -2.1820
 1208TIP3   OH225038   4.484   2.851   6.398 -0.5576  0.4171  0.2679
 1208TIP3    H125039   4.407   2.856   6.455  0.2556 -4.1207  2.1490
 1208TIP3    H225040   4.559   2.861   6.457  0.2767 -1.3024 -0.4390
 1209TIP3   OH225041   0.749   5.760  15.033  0.5618 -0.6584 -0.0910
 1209TIP3    H125042   0.693   5.804  15.097 -0.6437  1.3461 -2.3167
 1209TIP3    H225043   0.797   5.695  15.083 -2.1471 -0.9846  2.3802
 1210TIP3   OH225044   1.177   0.066   1.183  0.3142  0.5994 -0.0367
 1210TIP3    H125045   1.176   0.156   1.150  0.8890  0.8772  0.6984
 1210TIP3    H225046   1.137   0.072   1.269  1.4616  0.3545  0.5231
 1211TIP3   OH225047   6.109   2.288   6.087  0.5014 -0.0290  0.0819
 1211TIP3    H125048   6.062   2.207   6.066  0.7867 -0.3625  0.7272
 1211TIP3    H225049   6.195   2.278   6.045  1.2870 -0.9444  1.8134
 1212TIP3   OH225050   1.516   1.422  12.870  0.0946 -0.0844  0.2637
 1212TIP3    H125051   1.544   1.513  12.855 -0.7304 -0.1524 -2.2719
 1212TIP3    H225052   1.537   1.377  12.788  1.1465 -2.4203  1.7224
 1213TIP3   OH225053   6.348   5.147  13.714 -0.3149  0.1729  0.3789
 1213TIP3    H125054   6.313   5.058  13.722  0.2418 -0.0172  0.7800
 1213TIP3    H225055   6.432   5.144  13.760 -0.0981  0.8016  0.0375
 1214TIP3   OH225056   6.331   0.167  12.979  0.1398  0.7395 -0.0204
 1214TIP3    H125057   6.303   0.110  13.052 -0.6520  0.5430 -0.4661
 1214TIP3    H225058   6.406   0.121  12.941 -0.5331 -0.0726 -0.4201
 1215TIP3   OH225059   5.146   6.742  17.212  0.3562 -0.0170 -0.0083
 1215TIP3    H125060   5.218   6.679  17.201 -0.2572 -0.7033 -0.1600
 1215TIP3    H225061   5.189   6.822  17.241  1.1544 -0.5173  0.2379
 1216TIP3   OH225062   3.164   2.245   4.679 -0.5426 -0.1506 -0.1896
 1216TIP3    H125063   3.153   2.339   4.687 -1.7681 -0.3256  0.4253
 1216TIP3    H225064   3.191   2.231   4.588 -0.0488  0.8042 -0.1936
 1217TIP3   OH225065   0.593   1.013   3.026  0.1759 -0.1359  0.1819
 1217TIP3    H125066   0.527   0.975   3.085 -1.7119 -0.3631 -1.9531
 1217TIP3    H225067   0.666   0.952   3.029  0.1849 -0.1214  2.2556
 1218TIP3   OH225068   5.596   0.792   2.913 -0.2968 -0.1010  0.0651
 1218TIP3    H125069   5.531   0.781   2.844  0.1997  1.8889 -0.7899
 1218TIP3    H225070   5.678   0.807   2.866  0.1721  0.6089  1.0875
 1219TIP3   OH225071   2.105   1.917   0.862 -0.1345  0.4278  0.3129
 1219TIP3    H125072   2.107   2.001   0.908 -0.3447  1.1710 -0.9781
 1219TIP3    H225073   2.191   1.911   0.821 -0.4030  0.3944 -0.2480
 1220TIP3   OH225074   4.213   4.724   0.930  0.0174 -0.1318  0.2453
 1220TIP3    H125075   4.243   4.808   0.895  0.3221 -0.1003  0.5719
 1220TIP3    H225076   4.120   4.721   0.911  0.0211  0.2529  0.1743
 1221TIP3   OH225077   0.632   5.627  16.545  0.4985 -0.1026  0.2434
 1221TIP3    H125078   0.688   5.557  16.579 -1.2826 -0.1115  3.5195
 1221TIP3    H225079   0.546   5.587  16.535 -0.0608  1.0883  0.0572
 1222TIP3   OH225080   3.406   5.123  14.970  0.2467 -0.1746 -0.2209
 1222TIP3    H125081   3.462   5.046  14.965  0.4323 -0.0598  0.0410
 1222TIP3    H225082   3.317   5.089  14.964  0.3705 -0.2528 -1.8457
 1223TIP3   OH225083   1.210   1.347  12.914  0.1938  0.5993  0.2875
 1223TIP3    H125084   1.305   1.353  12.921  0.7155 -2.3195 -1.8966
 1223TIP3    H225085   1.189   1.259  12.946 -1.5242  0.5331 -0.8736
 1224TIP3   OH225086   2.073   6.653  17.367  0.2103 -0.8406 -0.0351
 1224TIP3    H125087   2.163   6.619  17.361  0.8410  0.6066  0.7466
 1224TIP3    H225088   2.043   6.625  17.453  0.3727 -0.2601  0.2114
 1225TIP3   OH225089   0.090   0.465  14.899  0.5384 -0.0479 -0.0340
 1225TIP3    H125090   0.020   0.406  14.871 -0.2542  0.6163  0.4925
 1225TIP3    H225091   0.057   0.506  14.979  1.6647  0.0480  0.4062
 1226TIP3   OH225092   3.421   4.507   5.005  0.3352 -0.4732  0.0969
 1226TIP3    H125093   3.485   4.555   5.058  0.2704  0.6215 -0.7839
 1226TIP3    H225094   3.474   4.449   4.951  0.4616 -0.8583  0.6239
 1227TIP3   OH225095   4.676   5.961  16.514 -0.0897  0.3746 -0.0504
 1227TIP3    H125096   4.719   5.876  16.526  1.0646  1.0469  0.7808
 1227TIP3    H225097   4.714   5.995  16.433 -3.3764 -1.4889 -2.6505
 1228TIP3   OH225098   2.416   1.417  16.574 -0.1881 -0.1340 -0.3505
 1228TIP3    H125099   2.406   1.483  16.505 -0.8093  0.2367  0.0839
 1228TIP3    H225100   2.482   1.454  16.633  0.0101 -0.2458 -0.4986
 1229TIP3   OH225101   6.627   0.892  12.310  0.0700  0.3041  0.2658
 1229TIP3    H125102   6.584   0.854  12.233 -0.3466 -2.7500  1.8442
 1229TIP3    H225103   6.717   0.859  12.307  0.1120  0.3275  0.9675
 1230TIP3   OH225104   5.596   4.947  13.607  0.2470 -0.6068 -0.0454
 1230TIP3    H125105   5.541   4.920  13.534  1.4317 -0.6725 -0.9544
 1230TIP3    H225106   5.536   4.954  13.681 -0.9113 -0.9830 -0.9107
 1231TIP3   OH225107   0.981   1.480  15.419  0.2998 -0.7975 -0.2286
 1231TIP3    H125108   1.016   1.390  15.418  0.5611 -0.7436  1.1805
 1231TIP3    H225109   0.886   1.469  15.418  0.3228 -1.1232  0.3589
 1232TIP3   OH225110   1.712   6.531  16.844  0.0746 -0.1031  0.0890
 1232TIP3    H125111   1.754   6.456  16.802 -0.5986  0.3244 -1.4212
 1232TIP3    H225112   1.773   6.603  16.830 -0.8169  0.3891 -1.6054
 1233TIP3   OH225113   4.701   3.877   2.373 -0.0601  0.7044  0.2863
 1233TIP3    H125114   4.662   3.902   2.457  0.8656  0.1234  0.9099
 1233TIP3    H225115   4.688   3.782   2.368 -2.9359  1.0622 -1.7300
 1234TIP3   OH225116   1.299   3.801   2.873 -0.4079  0.0542 -0.1379
 1234TIP3    H125117   1.241   3.772   2.944  0.0805 -0.1233  0.1918
 1234TIP3    H225118   1.366   3.733   2.868 -0.3938  0.1102 -0.7178
 1235TIP3   OH225119   0.373   3.466   2.304  0.0124 -0.0884  0.5648
 1235TIP3    H125120   0.324   3.545   2.328 -0.7317 -0.1585 -0.6261
 1235TIP3    H225121   0.458   3.476   2.348  0.9169  2.6536 -1.5012
 1236TIP3   OH225122   4.829   1.062   0.981  0.2701  0.0916 -0.2662
 1236TIP3    H125123   4.764   0.992   0.981 -0.0806  0.4089  0.1044
 1236TIP3    H225124   4.851   1.075   1.073  1.1987 -0.3113 -0.4181
 1237TIP3   OH225125   5.064   3.875  14.207 -0.0185  0.7999  0.1773
 1237TIP3    H125126   5.023   3.854  14.291  0.4287 -0.7685  0.0361
 1237TIP3    H225127   5.137   3.814  14.200 -0.0273  0.9237 -1.3493
 1238TIP3   OH225128   3.965   0.440   3.971 -0.0751 -0.3369  0.3402
 1238TIP3    H125129   3.917   0.453   3.889  0.3513 -0.6044  0.0422
 1238TIP3    H225130   3.912   0.377   4.019 -1.5017  1.4751  1.2614
 1239TIP3   OH225131   0.283   4.268  14.316  0.1241  0.5953  0.5307
 1239TIP3    H125132   0.345   4.340  14.304  0.0654  0.5412 -0.1350
 1239TIP3    H225133   0.332   4.201  14.362  0.2082  1.0248  1.0793
 1240TIP3   OH225134   5.842   4.531  13.498  0.5523  0.1039  0.4007
 1240TIP3    H125135   5.755   4.515  13.535  0.3594  1.2586  0.4696
 1240TIP3    H225136   5.869   4.614  13.535  2.4871 -1.0906  1.8223
 1241TIP3   OH225137   2.335   4.404  16.044  0.2291  0.4776 -0.2297
 1241TIP3    H125138   2.277   4.470  16.082 -1.5916 -1.2556  0.1733
 1241TIP3    H225139   2.300   4.390  15.956  0.2881 -0.3157 -0.1271
 1242TIP3   OH225140   3.627   4.727  11.310  0.0273 -0.6010 -0.0460
 1242TIP3    H125141   3.681   4.654  11.341 -1.1301 -1.2944  0.4051
 1242TIP3    H225142   3.666   4.750  11.225  0.9129 -1.1933  0.1723
 1243TIP3   OH225143   0.920   5.711  13.878  0.3067 -0.5773  0.4661
 1243TIP3    H125144   0.831   5.727  13.846 -0.5547 -1.3936  2.3496
 1243TIP3    H225145   0.974   5.709  13.798 -1.5001 -1.0405 -0.7997
 1244TIP3   OH225146   1.744   0.166  15.748 -0.3175  0.0286 -0.0840
 1244TIP3    H125147   1.822   0.163  15.805 -0.9174 -0.5880  0.7281
 1244TIP3    H225148   1.670   0.163  15.809 -1.0363  2.5832 -0.7005
 1245TIP3   OH225149   0.265   1.705  14.293 -0.4752 -0.1383 -0.0225
 1245TIP3    H125150   0.335   1.652  14.330  0.2335 -0.5977 -1.8844
 1245TIP3    H225151   0.245   1.664  14.209 -1.2324  1.4462 -0.6724
 1246TIP3   OH225152   5.055   3.140  13.323 -0.8125  0.1939  0.2286
 1246TIP3    H125153   5.107   3.068  13.359 -1.1239 -0.4361 -0.5317
 1246TIP3    H225154   5.118   3.197  13.279 -0.3573  1.2749  2.2078
 1247TIP3   OH225155   1.323   3.515  12.098  0.2593 -0.4002  0.4997
 1247TIP3    H125156   1.361   3.586  12.046 -0.5366 -0.5426 -0.3112
 1247TIP3    H225157   1.388   3.446  12.097  0.7534  0.0580  0.7100
 1248TIP3   OH225158   5.773   2.076  14.967 -0.0887  0.5237 -0.7149
 1248TIP3    H125159   5.682   2.058  14.943  0.2141  0.0719 -1.5622
 1248TIP3    H225160   5.767   2.118  15.053 -1.1297  0.9994 -0.9963
 1249TIP3   OH225161   3.576   3.359  12.510 -0.8264  0.1884  0.0866
 1249TIP3    H125162   3.513   3.291  12.531 -0.6888  0.1989  0.5446
 1249TIP3    H225163   3.546   3.396  12.427 -0.2518 -1.2205 -0.7745
 1250TIP3   OH225164   4.630   0.351   5.600 -0.0279 -0.1838 -0.0479
 1250TIP3    H125165   4.585   0.435   5.591  0.0626 -0.1183  0.1070
 1250TIP3    H225166   4.719   0.368   5.569 -0.4271 -0.6201 -1.5552
 1251TIP3   OH225167   4.442   2.992   3.893  0.0337  0.0161 -0.1432
 1251TIP3    H125168   4.412   3.022   3.979 -1.3378 -0.2975 -0.4971
 1251TIP3    H225169   4.529   2.956   3.910  0.4077  1.2993  0.8425
 1252TIP3   OH225170   0.586   6.240  17.169  0.0043 -0.2372 -0.3688
 1252TIP3    H125171   0.535   6.310  17.129  0.3921 -0.1981 -0.8044
 1252TIP3    H225172   0.579   6.167  17.108  1.7236  0.2587 -1.2347
 1253TIP3   OH225173   1.587   0.651   3.456 -0.3940 -0.0748 -0.5484
 1253TIP3    H125174   1.493   0.655   3.441 -0.3815  0.1155 -0.5801
 1253TIP3    H225175   1.626   0.670   3.371 -0.3071  2.6331 -0.0069
 1254TIP3   OH225176   0.833   1.924  14.475  0.0301  0.4240  0.4326
 1254TIP3    H125177   0.832   2.014  14.507  0.4839  1.0497 -1.2228
 1254TIP3    H225178   0.900   1.923  14.407 -1.8837 -0.4290 -1.5579
 1255TIP3   OH225179   1.789   4.001   3.194 -0.5894 -0.2349 -0.0448
 1255TIP3    H125180   1.727   3.978   3.263 -0.2245 -0.4918  0.2054
 1255TIP3    H225181   1.737   4.003   3.114 -0.5145 -2.9520 -0.2608
 1256TIP3   OH225182   5.964   0.404   5.722  0.2848  0.1665 -0.1238
 1256TIP3    H125183   6.032   0.374   5.781  0.3716  1.0979  0.2751
 1256TIP3    H225184   5.935   0.488   5.759  0.1627  0.6447 -1.2480
 1257TIP3   OH225185   6.476   3.792  13.805  0.4113 -0.2738  0.3608
 1257TIP3    H125186   6.540   3.862  13.796 -0.0933  0.2387  0.7077
 1257TIP3    H225187   6.392   3.837  13.814 -0.0243 -0.9400 -0.2391
 1258TIP3   OH225188   5.930   0.300  14.102  0.1762  0.6891 -0.1316
 1258TIP3    H125189   5.989   0.243  14.053  0.5044  0.9142  0.0008
 1258TIP3    H225190   5.892   0.244  14.170 -0.0703  0.4449 -0.4704
 1259TIP3   OH225191   3.523   1.635  14.985 -0.1896  0.1513 -0.5321
 1259TIP3    H125192   3.431   1.624  15.008  0.5616 -1.7298  2.0426
 1259TIP3    H225193   3.530   1.727  14.961 -2.3307  0.9689  1.5127
 1260TIP3   OH225194   6.323   1.665   2.468  0.0474 -0.3852  0.0498
 1260TIP3    H125195   6.405   1.668   2.517  0.8901 -0.7074 -1.2911
 1260TIP3    H225196   6.350   1.657   2.376 -1.4776 -1.7017 -0.3330
 1261TIP3   OH225197   2.931   3.700  14.982  0.8317  0.7806  0.2285
 1261TIP3    H125198   3.023   3.675  14.990  0.8908  0.0647 -1.8413
 1261TIP3    H225199   2.883   3.617  14.988  0.4839  0.9389 -0.2436
 1262TIP3   OH225200   5.586   5.336   0.636 -0.5827  0.0436 -0.0135
 1262TIP3    H125201   5.620   5.330   0.547  0.8104  2.7111  0.2397
 1262TIP3    H225202   5.648   5.285   0.689  0.3987  1.0335 -0.1851
 1263TIP3   OH225203   1.539   6.316  15.323 -0.2259  0.3445 -0.0077
 1263TIP3    H125204   1.481   6.324  15.247 -0.5063 -0.1098  0.1559
 1263TIP3    H225205   1.483   6.334  15.398 -0.1155  0.0613  0.1410
 1264TIP3   OH225206   3.603   3.422   3.224 -0.0247 -0.3194 -0.0486
 1264TIP3    H125207   3.626   3.511   3.252  0.8978 -0.8227  0.8861
 1264TIP3    H225208   3.530   3.434   3.164 -0.0856  1.0510  0.2569
 1265TIP3   OH225209   4.143   4.138  14.557 -0.4098  0.6810 -0.5115
 1265TIP3    H125210   4.202   4.124  14.631  1.5046  0.7834 -1.9225
 1265TIP3    H225211   4.056   4.145  14.596  0.4898  0.4740  1.6789
 1266TIP3   OH225212   2.796   4.366   3.504  0.1966  0.0838 -0.2712
 1266TIP3    H125213   2.846   4.373   3.422 -1.3002  1.1978 -1.1334
 1266TIP3    H225214   2.738   4.291   3.490  0.9092 -0.5994  0.3455
 1267TIP3   OH225215   4.550   4.286  15.421 -0.4274  0.2494 -0.4745
 1267TIP3    H125216   4.476   4.282  15.359  1.6763  1.3482 -3.2638
 1267TIP3    H225217   4.573   4.195  15.436 -0.3088 -0.0630 -2.2796
 1268TIP3   OH225218   4.778   4.123  12.877  0.0981  0.5160 -0.0805
 1268TIP3    H125219   4.817   4.052  12.827 -0.4730 -0.7341  1.1913
 1268TIP3    H225220   4.697   4.143  12.829 -1.5813 -2.1586  1.3923
 1269TIP3   OH225221   6.276   0.658   4.355 -0.0735 -0.0852  0.6743
 1269TIP3    H125222   6.357   0.691   4.394  0.4370  0.8912 -1.0833
 1269TIP3    H225223   6.254   0.579   4.406  1.6825 -0.0648  1.5157
 1270TIP3   OH225224   0.775   4.297   3.561  0.2802  0.1120 -0.2308
 1270TIP3    H125225   0.863   4.258   3.562  0.7949  1.2425  0.5473
 1270TIP3    H225226   0.721   4.235   3.611  1.1426  0.4773  1.2242
 1271TIP3   OH225227   0.609   1.631  15.224  0.4379  0.0245  0.4775
 1271TIP3    H125228   0.670   1.559  15.206 -1.2646 -1.3247 -0.1692
 1271TIP3    H225229   0.530   1.608  15.175 -0.3676  2.0623  0.7410
 1272TIP3   OH225230   0.602   0.489  17.199  0.1457  0.0719  0.4248
 1272TIP3    H125231   0.570   0.507  17.288  0.0301  1.0297  0.1986
 1272TIP3    H225232   0.595   0.394  17.190 -0.6010  0.0471  1.1479
 1273TIP3   OH225233   2.660   4.136   1.565 -0.6506  0.2403  0.1702
 1273TIP3    H125234   2.687   4.106   1.652 -0.1984  1.3661  0.4305
 1273TIP3    H225235   2.732   4.111   1.507  0.3923  2.0103  0.6299
 1274TIP3   OH225236   1.318   2.133   0.183 -0.1185  0.2925  0.0819
 1274TIP3    H125237   1.377   2.209   0.183  0.9761 -0.4742  1.9800
 1274TIP3    H225238   1.230   2.171   0.178  0.4103  1.6966  0.8340
 1275TIP3   OH225239   0.552   6.598   0.307 -0.3649 -0.0754 -0.7269
 1275TIP3    H125240   0.629   6.646   0.276  0.5456 -0.4305  0.9282
 1275TIP3    H225241   0.586   6.513   0.334 -1.1316  0.1375  1.0186
 1276TIP3   OH225242   3.417   5.323   1.993 -0.0868 -0.6534 -0.2302
 1276TIP3    H125243   3.452   5.341   1.906  0.1869 -0.2099 -0.0306
 1276TIP3    H225244   3.493   5.320   2.051 -0.3863  0.8953  0.3070
 1277TIP3   OH225245   3.459   0.366   5.851  0.5506  0.6706 -0.0246
 1277TIP3    H125246   3.375   0.412   5.842  0.0294 -0.4121 -0.9024
 1277TIP3    H225247   3.521   0.419   5.802  0.1682  0.9660 -0.1960
 1278TIP3   OH225248   0.451   3.362   5.985 -0.5220  0.0969 -0.5875
 1278TIP3    H125249   0.372   3.330   5.941 -0.5500 -0.7834  0.0678
 1278TIP3    H225250   0.425   3.371   6.077 -0.1393  0.7809 -0.5393
 1279TIP3   OH225251   0.308   2.414   6.216 -0.2607  0.5812 -0.1527
 1279TIP3    H125252   0.233   2.358   6.237 -0.8909  2.0970  2.0169
 1279TIP3    H225253   0.270   2.500   6.200  1.0116  1.5194  1.5741
 1280TIP3   OH225254   1.493   3.655   5.581  0.4078 -0.4494 -0.3854
 1280TIP3    H125255   1.447   3.735   5.605 -0.8809 -0.7149 -1.8585
 1280TIP3    H225256   1.521   3.669   5.490  4.6091  0.2878  0.7711
 1281TIP3   OH225257   0.688   3.655   3.517  0.3728 -0.2375  0.1259
 1281TIP3    H125258   0.712   3.702   3.597 -0.5313  0.7699 -0.1597
 1281TIP3    H225259   0.738   3.574   3.520  1.8687  0.6786  0.7280
 1282TIP3   OH225260   0.708   4.297  14.485 -0.4273 -0.4493 -0.3800
 1282TIP3    H125261   0.742   4.370  14.538 -0.4371 -1.4014  0.9775
 1282TIP3    H225262   0.629   4.332  14.444 -1.0455 -0.0225  1.1377
 1283TIP3   OH225263   0.728   1.635  16.090 -0.1321 -0.2774 -0.1674
 1283TIP3    H125264   0.779   1.570  16.139 -0.3365 -0.5209 -0.2748
 1283TIP3    H225265   0.656   1.658  16.148  1.0685  1.4168  0.7330
 1284TIP3   OH225266   5.656   3.950  16.444 -0.4087 -0.0170 -0.3049
 1284TIP3    H125267   5.712   3.997  16.507 -0.7183 -0.4223  0.2803
 1284TIP3    H225268   5.680   3.858  16.455 -1.8448 -0.2991  0.6204
 1285TIP3   OH225269   0.061   3.927  15.501  0.6373 -0.4206 -0.0925
 1285TIP3    H125270   0.023   3.949  15.586 -2.1397 -1.5628 -0.9324
 1285TIP3    H225271   0.052   4.007  15.449 -0.0564 -0.4936 -0.0858
 1286TIP3   OH225272   4.296   2.444  15.183 -0.0940  0.0144 -0.3984
 1286TIP3    H125273   4.262   2.534  15.179  0.8851  0.5352  1.6411
 1286TIP3    H225274   4.249   2.404  15.256  0.6505 -0.6034 -0.2427
 1287TIP3   OH225275   1.560   4.599  17.337  0.3676 -0.7385  0.1335
 1287TIP3    H125276   1.528   4.519  17.379 -0.2605 -0.0519  1.0313
 1287TIP3    H225277   1.645   4.615  17.379  1.1884 -1.6992 -1.0992
 1288TIP3   OH225278   6.735   0.018   5.449 -0.4862 -0.3042 -0.3237
 1288TIP3    H125279   6.688   0.007   5.532 -1.1082  1.8079 -0.3371
 1288TIP3    H225280   6.823  -0.015   5.467 -0.8451 -0.6303  0.9313
 1289TIP3   OH225281   2.977   3.972   3.101  0.2682  0.2063  0.0996
 1289TIP3    H125282   3.050   4.034   3.106  0.5304  0.1599 -2.2790
 1289TIP3    H225283   3.004   3.899   3.158  2.6819 -0.3297 -1.5683
 1290TIP3   OH225284   0.980   4.397   2.199 -0.1712  0.4218  0.4264
 1290TIP3    H125285   1.020   4.434   2.121 -1.6302 -0.6682 -0.8859
 1290TIP3    H225286   0.892   4.435   2.201 -0.1677  0.4108  1.5468
 1291TIP3   OH225287   5.571   2.024  15.306  0.2185  0.0313 -0.1070
 1291TIP3    H125288   5.659   2.035  15.269 -0.5446  0.8680 -1.7515
 1291TIP3    H225289   5.532   2.111  15.301 -0.5256 -0.2086  1.1395
 1292TIP3   OH225290   3.103   4.281  12.381  0.5205 -0.6265 -0.4696
 1292TIP3    H125291   3.153   4.270  12.301  0.7882 -1.9302 -0.1447
 1292TIP3    H225292   3.167   4.268  12.452  0.3491  0.7731 -0.0227
 1293TIP3   OH225293   2.911   4.973   2.985 -0.1519 -0.3058  0.4728
 1293TIP3    H125294   2.964   4.916   3.040  0.9168  0.5250  0.3398
 1293TIP3    H225295   2.934   5.062   3.014 -0.4108  0.1096 -0.5549
 1294TIP3   OH225296   6.112   0.853  13.548  0.1057 -0.1979  0.3457
 1294TIP3    H125297   6.145   0.765  13.528 -0.3715 -0.7761  1.9276
 1294TIP3    H225298   6.183   0.894  13.597 -0.7322 -0.7878  2.1502
 1295TIP3   OH225299   4.727   4.793  14.525  0.4471 -0.7243 -0.3735
 1295TIP3    H125300   4.681   4.826  14.603 -0.1924 -1.4276 -0.4422
 1295TIP3    H225301   4.663   4.799  14.455  1.1033  0.1461 -0.9258
 1296TIP3   OH225302   1.382   1.267   5.319  0.3073 -0.2229 -0.0870
 1296TIP3    H125303   1.476   1.262   5.334 -0.0888 -2.6216  2.3571
 1296TIP3    H225304   1.359   1.180   5.286 -1.0704  0.2897 -0.5136
 1297TIP3   OH225305   5.496   0.958  12.179 -0.1951  0.3321 -0.2433
 1297TIP3    H125306   5.534   0.897  12.242  0.3063 -0.2849 -1.1202
 1297TIP3    H225307   5.408   0.925  12.162 -1.4769  2.1268  2.2855
 1298TIP3   OH225308   2.499   0.963  14.062 -0.1707 -0.1367  0.4255
 1298TIP3    H125309   2.470   0.999  13.978 -0.3148  2.1076  1.3693
 1298TIP3    H225310   2.420   0.962  14.116 -0.0160 -1.2674  0.6645
 1299TIP3   OH225311   6.248   0.536   0.174  0.6528  0.0586  0.0794
 1299TIP3    H125312   6.220   0.625   0.152  0.4554 -0.2703 -1.0941
 1299TIP3    H225313   6.248   0.534   0.269  0.9014  1.3913  0.1315
 1300TIP3   OH225314   3.161   4.891  15.244 -0.1296  0.3551 -0.2539
 1300TIP3    H125315   3.179   4.967  15.189  1.9727 -1.6024 -2.5248
 1300TIP3    H225316   3.120   4.828  15.185  1.5094 -1.5666  0.5454
 1301TIP3   OH225317   6.503   5.472  15.206  0.0969  0.5926  0.1181
 1301TIP3    H125318   6.471   5.383  15.192  0.1307  0.8235 -1.6686
 1301TIP3    H225319   6.564   5.464  15.279 -1.4019 -0.4740  1.3156
 1302TIP3   OH225320   1.449   3.070  12.214 -0.5957 -0.1552 -0.1322
 1302TIP3    H125321   1.515   3.054  12.282  0.0850 -1.0198 -0.9547
 1302TIP3    H225322   1.373   3.104  12.260  0.2234  0.2641  0.9228
 1303TIP3   OH225323   1.065   3.018   4.785 -0.8142  0.2059 -0.4007
 1303TIP3    H125324   1.081   2.924   4.785  0.6224  0.3496 -3.0379
 1303TIP3    H225325   1.125   3.053   4.850 -0.3250 -0.5874 -0.4136
 1304TIP3   OH225326   2.267   0.141  16.008  0.2892  0.2783  0.1012
 1304TIP3    H125327   2.200   0.160  16.073 -0.7229  2.7883 -1.5005
 1304TIP3    H225328   2.285   0.226  15.967 -0.3576 -1.3415 -3.9956
 1305TIP3   OH225329   5.531   4.691  16.519 -0.0193 -0.2824 -0.9653
 1305TIP3    H125330   5.446   4.664  16.554  0.1584 -0.1992 -0.4641
 1305TIP3    H225331   5.529   4.663  16.427 -0.0591 -1.4996 -0.6153
 1306TIP3   OH225332   1.631   3.273   1.503 -0.4767  0.9174 -0.2159
 1306TIP3    H125333   1.659   3.206   1.441 -1.8643  2.1298 -2.2866
 1306TIP3    H225334   1.568   3.230   1.559  0.4913 -0.1065  0.1219
 1307TIP3   OH225335   0.303   4.296   5.395 -0.4561 -0.8173  1.1815
 1307TIP3    H125336   0.210   4.316   5.383 -1.1843 -2.5347  3.4438
 1307TIP3    H225337   0.312   4.276   5.488  2.1160 -1.1387  0.9320
 1308TIP3   OH225338   3.273   0.083   6.099 -0.3219  0.0724  0.2220
 1308TIP3    H125339   3.219   0.157   6.075  0.6149  0.8519  0.4573
 1308TIP3    H225340   3.309   0.106   6.184  0.4429 -0.3837  0.0349
 1309TIP3   OH225341   5.248   6.562   1.409 -0.3619 -0.9868  0.1835
 1309TIP3    H125342   5.154   6.549   1.397 -0.6491  1.2290 -0.4457
 1309TIP3    H225343   5.289   6.498   1.351 -1.5127 -1.1409 -0.4884
 1310TIP3   OH225344   6.661   0.430   3.350 -0.0806 -0.2184 -0.4223
 1310TIP3    H125345   6.752   0.401   3.337  0.2433  0.1071  0.9351
 1310TIP3    H225346   6.640   0.479   3.271  0.8770 -0.4355 -0.8307
 1311TIP3   OH225347   2.463   0.794   5.472  0.3969  0.3881 -0.5816
 1311TIP3    H125348   2.467   0.701   5.452  1.2840  0.5649 -1.2905
 1311TIP3    H225349   2.479   0.799   5.566 -0.4517 -0.2217 -0.3980
 1312TIP3   OH225350   5.871   0.421   5.230  0.1897 -0.1337 -0.3073
 1312TIP3    H125351   5.791   0.371   5.219 -0.7229  1.6622 -2.7888
 1312TIP3    H225352   5.939   0.356   5.247 -1.4632 -1.8360  0.0321
 1313TIP3   OH225353   6.617   2.060  12.746 -0.2592 -0.7700 -0.1341
 1313TIP3    H125354   6.630   1.966  12.732 -0.6331 -1.3891  3.0217
 1313TIP3    H225355   6.535   2.079  12.699  0.2427 -1.8065 -1.4887
 1314TIP3   OH225356   4.074   3.800   3.372  0.0310 -0.2687  0.4018
 1314TIP3    H125357   4.014   3.736   3.335  1.4510 -1.1367 -0.4935
 1314TIP3    H225358   4.156   3.752   3.384  1.2964  1.4663 -0.7848
 1315TIP3   OH225359   0.770   2.540   2.784 -0.5680 -0.3620  0.4352
 1315TIP3    H125360   0.682   2.543   2.821 -1.1205 -0.8585 -0.7722
 1315TIP3    H225361   0.777   2.453   2.745 -0.2292  0.3235 -1.1038
 1316TIP3   OH225362   3.979   5.576  13.107 -0.3329 -0.3736  0.1629
 1316TIP3    H125363   3.912   5.607  13.168 -0.6544  0.5177 -0.6300
 1316TIP3    H225364   4.051   5.638  13.117 -0.0811 -0.6657  0.1791
 1317TIP3   OH225365   0.012   5.048   3.520 -0.1421  0.9125  0.2762
 1317TIP3    H125366   0.100   5.076   3.492  0.0369  0.1949  0.1022
 1317TIP3    H225367  -0.005   5.099   3.599  0.2363  1.4029  0.0530
 1318TIP3   OH225368   5.270   3.678  13.883  0.0110 -0.0806  0.1366
 1318TIP3    H125369   5.260   3.609  13.817  0.4647  0.7278 -0.7984
 1318TIP3    H225370   5.245   3.636  13.965  1.7295 -1.8498 -0.1526
 1319TIP3   OH225371   2.523   4.008   3.825  0.2689 -0.2335  0.1315
 1319TIP3    H125372   2.567   4.086   3.793 -1.2862  0.7427  0.2991
 1319TIP3    H225373   2.571   3.935   3.785 -0.0661  0.8610 -2.4099
 1320TIP3   OH225374   0.632   0.169  16.503  0.0697 -0.1803 -0.3945
 1320TIP3    H125375   0.699   0.198  16.566 -1.4101  1.3856  0.5614
 1320TIP3    H225376   0.653   0.216  16.423  1.2672 -1.2720 -0.7618
 1321TIP3   OH225377   5.527   5.953   6.581 -0.5766  0.3466  0.2122
 1321TIP3    H125378   5.488   5.870   6.555  1.5553 -0.3589 -0.9610
 1321TIP3    H225379   5.457   6.017   6.571 -2.1935 -1.2432  0.9204
 1322TIP3   OH225380   5.361   4.963  17.055  0.5921  0.7040 -0.4583
 1322TIP3    H125381   5.273   4.932  17.036  0.8755 -0.7349  0.4565
 1322TIP3    H225382   5.348   5.052  17.090 -0.3443  1.1154 -1.7611
 1323TIP3   OH225383   3.105   0.281   6.053 -0.2283  0.0622 -0.5895
 1323TIP3    H125384   3.068   0.248   5.971  1.7024  0.2377 -1.5927
 1323TIP3    H225385   3.029   0.304   6.106 -1.5529  0.4798 -2.5494
 1324TIP3   OH225386   4.620   1.048  10.594  1.1054  0.1093 -0.2366
 1324TIP3    H125387   4.659   1.131  10.567  0.8475  0.3977  0.2419
 1324TIP3    H225388   4.556   1.027  10.525 -0.1755  1.2809  0.5336
 1325TIP3   OH225389   4.783   3.524  13.565  0.2564  0.1893 -0.3384
 1325TIP3    H125390   4.817   3.511  13.476 -0.4488 -0.2579 -0.5519
 1325TIP3    H225391   4.728   3.602  13.557  2.0118  1.5499  0.2418
 1326TIP3   OH225392   3.644   0.031   3.627 -0.0366  0.3600  0.4181
 1326TIP3    H125393   3.720   0.084   3.646  0.5385 -0.4967  0.5702
 1326TIP3    H225394   3.650  -0.043   3.688 -0.9095  0.2164  0.3432
 1327TIP3   OH225395   0.990   1.405   1.278 -0.1037 -0.1432 -0.0933
 1327TIP3    H125396   0.975   1.317   1.244 -1.9898  0.7287 -1.7563
 1327TIP3    H225397   0.940   1.409   1.359  1.0469 -0.9603  0.6882
 1328TIP3   OH225398   4.052   1.000  13.914  0.2503  0.0516  0.2270
 1328TIP3    H125399   3.958   0.985  13.901 -0.1483  0.9778  1.7184
 1328TIP3    H225400   4.081   0.925  13.967  0.5379 -0.5980 -0.8118
 1329TIP3   OH225401   0.641   5.377  12.531  0.6800  0.0442  0.0226
 1329TIP3    H125402   0.611   5.432  12.459  0.0878 -1.2455 -0.7699
 1329TIP3    H225403   0.617   5.425  12.610 -1.0798  0.3015 -0.6172
 1330TIP3   OH225404   6.343   3.966   0.152  0.0503  0.3884 -0.2511
 1330TIP3    H125405   6.304   3.984   0.067 -1.3701 -0.5669  0.1719
 1330TIP3    H225406   6.288   3.898   0.190  1.2153  0.1246  1.0473
 1331TIP3   OH225407   0.464   4.212  13.316  0.2994 -1.0253  0.0631
 1331TIP3    H125408   0.397   4.239  13.253  0.4907  0.3911  0.4236
 1331TIP3    H225409   0.414   4.174  13.388 -0.0683 -0.7038 -0.0185
 1332TIP3   OH225410   0.944   1.711   0.498  0.2153 -0.3342 -0.6685
 1332TIP3    H125411   0.987   1.700   0.413 -1.1416 -2.5359 -1.1562
 1332TIP3    H225412   0.906   1.799   0.494  1.2426  0.0796 -1.8238
 1333TIP3   OH225413   6.616   6.721   6.406 -0.1510 -0.1505 -0.3951
 1333TIP3    H125414   6.700   6.688   6.437 -0.6842 -0.9825  0.1910
 1333TIP3    H225415   6.623   6.816   6.413  0.8121 -0.2007 -0.5537
 1334TIP3   OH225416   3.982   4.335   4.764 -0.1711  0.5611 -0.1602
 1334TIP3    H125417   3.938   4.392   4.700  0.2905  2.5289  1.1817
 1334TIP3    H225418   3.957   4.371   4.849  1.8914  0.1020  0.6975
 1335TIP3   OH225419   3.597   4.936  12.067 -0.2999 -0.3772  0.1155
 1335TIP3    H125420   3.601   4.898  12.155 -1.6793 -1.6375 -0.3338
 1335TIP3    H225421   3.525   4.891  12.024 -0.0172  0.6162 -1.4972
 1336TIP3   OH225422   1.121   2.454  16.670  0.0164  0.4461  0.4643
 1336TIP3    H125423   1.027   2.432  16.667  0.4563 -1.6365 -0.3067
 1336TIP3    H225424   1.140   2.463  16.763 -0.4343 -1.9620  0.8630
 1337TIP3   OH225425   0.997   2.283  12.167 -0.9626  0.7817  0.6711
 1337TIP3    H125426   1.035   2.221  12.105 -3.2580 -0.4963  0.4264
 1337TIP3    H225427   1.060   2.355  12.172  0.0066  0.2027 -1.9662
 1338TIP3   OH225428   5.970   2.880  12.873  0.0451  0.2488  0.4862
 1338TIP3    H125429   5.894   2.893  12.930  0.5785  1.1070  1.0188
 1338TIP3    H225430   5.936   2.897  12.785 -0.5288 -0.0098  0.6481
 1339TIP3   OH225431   0.481   6.207  14.085 -0.5466 -0.0152 -0.1100
 1339TIP3    H125432   0.560   6.259  14.105 -1.6620  1.8671 -0.3701
 1339TIP3    H225433   0.409   6.259  14.122 -1.8404 -0.7828 -1.4776
 1340TIP3   OH225434   6.115   0.351  17.331  0.2190  0.3239  0.4857
 1340TIP3    H125435   6.098   0.444  17.319 -1.5876  0.1816  1.5638
 1340TIP3    H225436   6.044   0.308  17.283  0.6790 -0.4917  0.5242
 1341TIP3   OH225437   4.962   0.052   3.460 -0.7477 -0.3980 -0.1716
 1341TIP3    H125438   4.965   0.142   3.429 -0.9958 -0.1016  0.6563
 1341TIP3    H225439   4.872   0.023   3.444 -0.2981 -0.9944 -1.7846
 1342TIP3   OH225440   5.244   2.778  15.183 -0.2321 -0.2543 -0.0086
 1342TIP3    H125441   5.209   2.867  15.190 -0.2218 -0.3023  0.8358
 1342TIP3    H225442   5.267   2.768  15.091 -2.5440 -0.2684 -0.6487
 1343TIP3   OH225443   4.133   3.231   2.697 -0.0645 -0.1390  0.4123
 1343TIP3    H125444   4.159   3.141   2.717 -1.1018 -0.9621 -1.6248
 1343TIP3    H225445   4.039   3.233   2.714  0.0514  0.7749  1.0331
 1344TIP3   OH225446   1.192   2.435   4.664 -0.0361 -0.3062 -0.2865
 1344TIP3    H125447   1.188   2.520   4.620  0.8089  0.1803  0.5438
 1344TIP3    H225448   1.177   2.455   4.756 -3.1142 -1.4615 -0.4101
 1345TIP3   OH225449   1.468   2.553  15.779  0.1026 -0.1196  0.0101
 1345TIP3    H125450   1.419   2.635  15.787 -2.2886 -1.3460 -0.7975
 1345TIP3    H225451   1.471   2.518  15.868 -3.0142 -1.2761 -0.2211
 1346TIP3   OH225452   2.909   0.931  15.842 -0.4080  0.1970 -0.7641
 1346TIP3    H125453   2.980   0.878  15.804 -2.2817 -1.1893 -2.5384
 1346TIP3    H225454   2.849   0.866  15.879 -1.9251  1.1854 -1.4504
 1347TIP3   OH225455   1.729   1.220   5.629 -0.0470 -0.2965  0.2122
 1347TIP3    H125456   1.651   1.249   5.676  1.4735  1.1602  2.0527
 1347TIP3    H225457   1.770   1.157   5.688  0.0970 -1.1919 -0.8163
 1348TIP3   OH225458   2.126   0.989  16.920  0.1506 -0.3353  0.1502
 1348TIP3    H125459   2.164   0.962  17.003  1.2162 -0.4466 -0.3567
 1348TIP3    H225460   2.047   1.037  16.944 -0.2483 -1.4605  1.1674
 1349TIP3   OH225461   1.566   2.735  12.409 -0.0737 -0.2927 -0.2357
 1349TIP3    H125462   1.491   2.742  12.468  0.1162 -1.1281  0.1173
 1349TIP3    H225463   1.612   2.656  12.437  0.1424 -0.5846 -1.3708
 1350TIP3   OH225464   4.391   4.192   5.444 -0.1187 -0.0709  0.3730
 1350TIP3    H125465   4.445   4.170   5.520  0.1039  1.5069  0.6881
 1350TIP3    H225466   4.451   4.185   5.370  0.3566  0.9764  0.6444
 1351TIP3   OH225467   2.184   2.703   5.569 -0.3102  0.4409 -0.2628
 1351TIP3    H125468   2.091   2.706   5.549 -0.7631 -0.3458  1.5089
 1351TIP3    H225469   2.220   2.640   5.506 -1.1357  0.1047 -0.4091
 1352TIP3   OH225470   5.613   4.115  13.259 -0.6716 -0.3248  0.0666
 1352TIP3    H125471   5.625   4.039  13.202  0.1878 -0.0008 -0.1978
 1352TIP3    H225472   5.655   4.187  13.212  0.4243 -0.1320  1.2987
 1353TIP3   OH225473   4.924   0.412   3.669 -0.1955  1.4223  0.2781
 1353TIP3    H125474   4.996   0.457   3.712  1.8322 -0.8455 -0.5147
 1353TIP3    H225475   4.848   0.429   3.726  1.5330  1.7108  2.6629
 1354TIP3   OH225476   2.660   5.929   2.715  0.5520 -0.6711 -0.1724
 1354TIP3    H125477   2.733   5.890   2.764 -0.4528 -0.8838  1.2046
 1354TIP3    H225478   2.587   5.927   2.776 -0.3235  0.5942 -1.1418
 1355TIP3   OH225479   0.453   0.477  16.821  0.3510  0.3988 -0.0617
 1355TIP3    H125480   0.366   0.511  16.841  0.5808  1.2243 -0.4206
 1355TIP3    H225481   0.494   0.546  16.769  1.4211  0.2477  0.5602
 1356TIP3   OH225482   3.321   0.287  16.599  0.1093 -0.7908  0.4128
 1356TIP3    H125483   3.248   0.232  16.572 -0.8009  1.1316 -1.3352
 1356TIP3    H225484   3.291   0.328  16.680 -0.2056 -1.0159  0.4096
 1357TIP3   OH225485   3.196   4.862   0.763 -0.0478 -0.1328  0.2730
 1357TIP3    H125486   3.263   4.805   0.726 -0.0728 -0.4638  0.7247
 1357TIP3    H225487   3.216   4.949   0.727  1.4376  0.0472  1.4092
 1358TIP3   OH225488   3.708   1.490  16.480  0.3071 -0.4048  0.3985
 1358TIP3    H125489   3.677   1.581  16.483 -1.0996 -0.7688 -1.0356
 1358TIP3    H225490   3.650   1.444  16.540  0.6675 -0.4317  0.7203
 1359TIP3   OH225491   6.676   2.666  12.510 -0.1457 -0.3285  0.0212
 1359TIP3    H125492   6.739   2.594  12.508  1.6170  1.1639 -1.8132
 1359TIP3    H225493   6.607   2.639  12.449 -0.9813 -1.6001  1.4271
 1360TIP3   OH225494   2.388   4.602   4.307  0.3425  0.2913 -0.4039
 1360TIP3    H125495   2.357   4.584   4.396  0.4068 -0.4767 -0.5254
 1360TIP3    H225496   2.460   4.664   4.319 -1.7311  2.8391 -0.1757
 1361TIP3   OH225497   3.847   2.721  12.082 -0.1623 -0.2403  0.0116
 1361TIP3    H125498   3.825   2.814  12.073  0.5183 -0.2187 -1.8124
 1361TIP3    H225499   3.854   2.689  11.992  1.8941 -1.5117  0.5634
 1362TIP3   OH225500   5.727   2.558  16.346  0.0960 -0.0159  0.4963
 1362TIP3    H125501   5.784   2.605  16.285  2.4557 -0.6402  2.0898
 1362TIP3    H225502   5.763   2.578  16.433 -1.5053 -1.2900  1.5140
 1363TIP3   OH225503   3.760   3.018   1.437  0.0735 -0.0268 -0.0358
 1363TIP3    H125504   3.775   3.110   1.415 -1.0963 -0.1439 -1.5344
 1363TIP3    H225505   3.738   2.977   1.354 -2.3641 -1.0242  0.9882
 1364TIP3   OH225506   6.748   3.976   0.633  0.1628 -0.2149 -0.4239
 1364TIP3    H125507   6.677   4.038   0.615  1.9326  2.1259  0.1128
 1364TIP3    H225508   6.722   3.931   0.713 -1.1629 -0.1285 -0.7918
 1365TIP3   OH225509   2.659   4.405  14.269  0.0652  0.0631  0.0593
 1365TIP3    H125510   2.578   4.394  14.318 -0.7816  0.2093 -1.2770
 1365TIP3    H225511   2.728   4.384  14.332 -1.0003 -0.0800  1.2064
 1366TIP3   OH225512   1.435   5.815   5.856  0.2288 -0.0068  0.0074
 1366TIP3    H125513   1.345   5.839   5.877  0.7640  0.9962  1.3088
 1366TIP3    H225514   1.428   5.736   5.803 -1.4462  0.6011 -0.7356
 1367TIP3   OH225515   1.330   5.590  13.109 -0.0713 -0.4474 -0.0621
 1367TIP3    H125516   1.378   5.641  13.175 -0.4811 -1.8007  1.3489
 1367TIP3    H225517   1.240   5.620  13.116 -0.1646 -0.7777  0.2073
 1368TIP3   OH225518   5.923   1.809   2.177  0.1561  0.6375 -0.5657
 1368TIP3    H125519   5.831   1.810   2.149 -0.4142  1.8361  1.1334
 1368TIP3    H225520   5.935   1.894   2.219  1.8801  0.2538 -0.2299
 1369TIP3   OH225521   5.564   5.275  12.411  0.0267  0.2894  0.2036
 1369TIP3    H125522   5.522   5.347  12.457 -0.2386 -0.4874  1.2199
 1369TIP3    H225523   5.512   5.264  12.331 -0.1659  0.9561  0.2357
 1370TIP3   OH225524   3.929   1.614  11.865 -0.5318  0.2486  0.5301
 1370TIP3    H125525   3.897   1.601  11.776 -0.2701 -0.1352  0.4887
 1370TIP3    H225526   4.024   1.611  11.857 -0.5109 -0.6738  0.9415
 1371TIP3   OH225527   1.356   2.536  13.225  0.3527  0.1404  0.2057
 1371TIP3    H125528   1.328   2.589  13.151  2.6182  0.6135 -0.3981
 1371TIP3    H225529   1.414   2.469  13.187 -0.1431 -0.9720  1.3075
 1372TIP3   OH225530   1.657   6.112   2.490  0.3101 -0.5588  0.3465
 1372TIP3    H125531   1.577   6.061   2.474  0.3159 -0.4826  0.0719
 1372TIP3    H225532   1.725   6.046   2.502  0.2877 -0.6205  0.1481
 1373TIP3   OH225533   5.322   3.909   4.355 -0.8124 -0.8874  0.0283
 1373TIP3    H125534   5.346   3.919   4.447 -2.9715  0.2121  0.5369
 1373TIP3    H225535   5.230   3.881   4.357 -1.2162  0.1349 -1.8032
 1374TIP3   OH225536   5.444   0.259  11.638  0.1495 -0.6748 -0.4960
 1374TIP3    H125537   5.470   0.222  11.722 -1.8308 -1.6954 -0.2733
 1374TIP3    H225538   5.365   0.309  11.657 -1.2552 -2.1934 -1.9339
 1375TIP3   OH225539   0.254   2.639   0.930 -1.1606  0.0985 -0.5011
 1375TIP3    H125540   0.280   2.547   0.934 -2.0184 -0.2919 -2.7282
 1375TIP3    H225541   0.290   2.677   1.010  0.3879 -1.8592 -0.1878
 1376TIP3   OH225542   2.456   5.953  12.910  0.0260  0.1322  0.3389
 1376TIP3    H125543   2.519   6.021  12.933 -1.2478  1.1441  0.9810
 1376TIP3    H225544   2.370   5.995  12.920 -0.8283 -1.7238  1.3762
 1377TIP3   OH225545   2.030   2.366   0.766  0.2627 -0.1928 -0.0008
 1377TIP3    H125546   2.077   2.416   0.699 -2.1938 -1.0754 -2.6060
 1377TIP3    H225547   1.948   2.414   0.777 -1.2011 -2.3305 -0.9111
 1378TIP3   OH225548   6.629   0.239   6.399 -0.4333 -0.0250 -0.4912
 1378TIP3    H125549   6.559   0.228   6.335  0.1702  0.2300 -1.2247
 1378TIP3    H225550   6.595   0.304   6.461 -1.4910 -1.1634  0.1602
 1379TIP3   OH225551   6.751   2.417  13.697 -0.0223 -0.1145  0.3379
 1379TIP3    H125552   6.807   2.438  13.623  1.2933 -1.0111  1.0493
 1379TIP3    H225553   6.728   2.502  13.735  0.6125  0.2753 -0.1365
 1380TIP3   OH225554   4.280   4.227  11.751  0.2315 -0.4919 -0.0661
 1380TIP3    H125555   4.373   4.213  11.733  0.4753 -0.0904  0.8479
 1380TIP3    H225556   4.236   4.156  11.705  0.7485  0.8718 -2.8744
 1381TIP3   OH225557   4.621   1.458  15.600  0.6317  0.4541  0.5582
 1381TIP3    H125558   4.679   1.530  15.624 -1.0029  2.4395 -1.0618
 1381TIP3    H225559   4.667   1.413  15.529  0.1941  2.1720 -0.8988
 1382TIP3   OH225560   0.235   4.580   4.264  0.9508 -0.4002 -0.0401
 1382TIP3    H125561   0.163   4.605   4.322 -0.0032  0.1990 -1.4268
 1382TIP3    H225562   0.295   4.530   4.320 -0.5402 -0.9302  1.1616
 1383TIP3   OH225563   1.649   1.116   0.940  0.3444  0.0251  0.3626
 1383TIP3    H125564   1.677   1.128   1.031  0.4981  1.1177  0.1881
 1383TIP3    H225565   1.582   1.183   0.927  0.7787  0.3035 -0.5097
 1384TIP3   OH225566   1.465   4.769   0.193  0.2728  0.3322  0.3079
 1384TIP3    H125567   1.441   4.677   0.205 -0.6939  0.5878  0.4137
 1384TIP3    H225568   1.536   4.767   0.129  1.2298 -0.5916  1.3592
 1385TIP3   OH225569   6.544   2.884  16.720 -0.2645  0.2525 -0.1556
 1385TIP3    H125570   6.554   2.980  16.720 -1.3722  0.3853 -0.9566
 1385TIP3    H225571   6.592   2.855  16.798 -1.9306  1.6715  1.4852
 1386TIP3   OH225572   5.213   0.762  12.138 -0.2832 -0.9728  0.0827
 1386TIP3    H125573   5.240   0.671  12.140  0.1719 -0.8308  1.1683
 1386TIP3    H225574   5.206   0.787  12.230 -0.9781 -0.0757 -0.1914
 1387TIP3   OH225575   6.745   5.359  14.082 -0.8986 -0.0932 -0.1038
 1387TIP3    H125576   6.649   5.359  14.080 -0.8896 -0.3492 -0.9507
 1387TIP3    H225577   6.771   5.367  13.990 -0.1091 -1.3238 -0.0060
 1388TIP3   OH225578   0.023   2.750  14.400  0.1725  0.3577 -0.7502
 1388TIP3    H125579  -0.025   2.820  14.442  0.8062 -0.3244  1.2381
 1388TIP3    H225580   0.082   2.794  14.338  0.0412  1.5168 -0.0651
 1389TIP3   OH225581   1.589   6.545  15.953  0.4908  0.2816 -0.3134
 1389TIP3    H125582   1.641   6.502  15.885  0.4364 -0.1340 -0.0913
 1389TIP3    H225583   1.648   6.553  16.027  0.7961  1.4386 -0.6560
 1390TIP3   OH225584   1.362   0.813   0.543 -0.2628  0.6649  0.0123
 1390TIP3    H125585   1.313   0.734   0.520 -2.6357  2.0576 -0.1279
 1390TIP3    H225586   1.426   0.823   0.473 -2.6086  0.9768 -2.2401
 1391TIP3   OH225587   2.752   2.033   6.642 -0.0671  0.4389 -0.5300
 1391TIP3    H125588   2.823   1.972   6.620 -0.7005 -0.2803 -0.6309
 1391TIP3    H225589   2.685   1.978   6.682  0.0840  1.3683  1.0629
 1392TIP3   OH225590   0.424   6.420   3.531  0.0023  0.4914  0.1031
 1392TIP3    H125591   0.481   6.459   3.466  0.1612 -1.3645 -0.9339
 1392TIP3    H225592   0.467   6.339   3.557 -1.1720  0.0552  0.8166
 1393TIP3   OH225593   2.069   2.211  14.440  0.0275  0.0950 -0.3368
 1393TIP3    H125594   2.113   2.286  14.400 -0.0745 -0.4975 -1.6199
 1393TIP3    H225595   1.982   2.212  14.401 -0.9277  0.8592  1.6637
 1394TIP3   OH225596   5.727   1.290  12.763 -0.5301  0.1258 -0.3805
 1394TIP3    H125597   5.632   1.297  12.768 -0.6704  0.9617 -2.8025
 1394TIP3    H225598   5.756   1.379  12.741  0.8273 -0.1159  0.3255
 1395TIP3   OH225599   0.934   1.752   5.557  0.9855 -0.3766 -0.1893
 1395TIP3    H125600   0.982   1.832   5.534 -1.0835  0.8061 -0.6666
 1395TIP3    H225601   0.863   1.748   5.493  0.4666 -2.0817  0.4562
 1396TIP3   OH225602   3.520   4.962  15.549 -0.0926  0.1546  0.2338
 1396TIP3    H125603   3.571   4.903  15.605 -0.0308 -0.5926 -0.5945
 1396TIP3    H225604   3.461   4.905  15.501 -0.5239  0.8457 -0.0737
 1397TIP3   OH225605   3.109   2.466  17.307  0.4760 -0.1165  0.6423
 1397TIP3    H125606   3.122   2.520  17.229  1.1048  0.5535  1.1997
 1397TIP3    H225607   3.022   2.430  17.297  0.6529 -0.2498 -0.5048
 1398TIP3   OH225608   5.472   6.656   1.820  0.2757 -0.0692 -0.6865
 1398TIP3    H125609   5.416   6.669   1.743  0.1626 -1.1095 -0.7902
 1398TIP3    H225610   5.412   6.645   1.893  0.3786  2.0628 -0.2041
 1399TIP3   OH225611   2.355   5.458  15.972 -0.7410  0.1341 -0.0955
 1399TIP3    H125612   2.302   5.502  16.039 -2.1587 -2.9437  0.9940
 1399TIP3    H225613   2.391   5.381  16.017 -0.0431 -0.9408 -2.3514
 1400TIP3   OH225614   3.083   4.115  11.509  1.2219 -0.1386  0.7382
 1400TIP3    H125615   3.179   4.106  11.508  1.0601 -2.4515  0.1068
 1400TIP3    H225616   3.053   4.058  11.439 -0.6664  0.3189  1.1189
 1401TIP3   OH225617   2.735   3.315   2.336  0.0678  0.1076 -0.4068
 1401TIP3    H125618   2.762   3.386   2.277  0.0633 -2.2868 -3.5541
 1401TIP3    H225619   2.769   3.341   2.422  1.3325  3.1614 -1.6797
 1402TIP3   OH225620   4.336   0.208   4.556 -0.3069 -0.6379  0.2868
 1402TIP3    H125621   4.363   0.260   4.480  0.1214 -0.7680  0.3496
 1402TIP3    H225622   4.342   0.117   4.526  0.8161 -0.7372  0.7800
 1403TIP3   OH225623   1.426   6.344  15.596 -0.0190  0.1977  0.3859
 1403TIP3    H125624   1.358   6.399  15.635 -1.9120 -1.0966 -0.9222
 1403TIP3    H225625   1.401   6.255  15.618 -0.2630 -0.4865 -2.2707
 1404TIP3   OH225626   0.036   4.641  13.383  0.0348 -0.8197 -0.5309
 1404TIP3    H125627   0.055   4.597  13.300 -0.5091 -0.8482 -0.6422
 1404TIP3    H225628  -0.059   4.655  13.382 -0.1729 -1.9385  0.6320
 1405TIP3   OH225629   2.512   5.104   4.454 -0.4037  0.4785 -0.4427
 1405TIP3    H125630   2.579   5.040   4.431 -0.7900 -0.1493  0.1319
 1405TIP3    H225631   2.558   5.187   4.458 -0.1293  0.4711 -2.4581
 1406TIP3   OH225632   1.425   4.418   2.856 -0.1039  0.1921  0.5537
 1406TIP3    H125633   1.474   4.464   2.924 -1.6735  0.0256  1.8506
 1406TIP3    H225634   1.486   4.351   2.824  0.5617  0.0472  2.0485
 1407TIP3   OH225635   1.734   0.857  16.088 -0.3882  0.0756 -0.2221
 1407TIP3    H125636   1.688   0.828  16.166  0.4533 -2.8842 -0.7192
 1407TIP3    H225637   1.680   0.825  16.015 -0.0491  0.9141 -0.8643
 1408TIP3   OH225638   5.581   4.137   3.790 -0.3152 -0.1418  0.5238
 1408TIP3    H125639   5.527   4.110   3.864  0.5470 -1.4125  0.7177
 1408TIP3    H225640   5.661   4.171   3.829 -0.3280  0.2718  0.1998
 1409TIP3   OH225641   0.636   5.248   3.331 -0.8285 -0.3737 -0.0751
 1409TIP3    H125642   0.586   5.184   3.382 -2.9252  0.0251 -1.4674
 1409TIP3    H225643   0.569   5.305   3.292  0.9308  2.8994  1.2980
 1410TIP3   OH225644   1.104   0.533   3.768  0.0367  0.6720  0.0979
 1410TIP3    H125645   1.152   0.451   3.760  0.1604  0.8093 -0.6755
 1410TIP3    H225646   1.120   0.579   3.685 -2.2401  0.2558 -0.6436
 1411TIP3   OH225647   1.021   2.059   1.017  0.3037 -0.2418  0.0090
 1411TIP3    H125648   1.060   1.971   1.014  1.3815  0.0869  2.2103
 1411TIP3    H225649   1.094   2.118   0.999 -0.5415  0.2443 -2.0679
 1412TIP3   OH225650   4.735   1.109   4.547  0.0852  0.2119  0.5409
 1412TIP3    H125651   4.679   1.083   4.620  0.3347  1.7397  1.3309
 1412TIP3    H225652   4.674   1.131   4.476 -0.1255 -2.4682 -0.2044
 1413TIP3   OH225653   1.982   0.800  13.345  0.1372  0.0298  0.2233
 1413TIP3    H125654   1.965   0.826  13.435  0.2869  0.0612  0.2422
 1413TIP3    H225655   2.075   0.819  13.331 -0.6517  3.7459 -1.1806
 1414TIP3   OH225656   5.090   4.053  16.076 -0.6053  0.0916 -0.1333
 1414TIP3    H125657   5.101   4.080  15.985 -0.7115  1.5898  0.2672
 1414TIP3    H225658   5.155   3.983  16.089  1.0225  1.4189 -0.7450
 1415TIP3   OH225659   1.815   5.590   2.825 -0.0735  0.3301  0.1720
 1415TIP3    H125660   1.738   5.566   2.773  0.7869 -1.0779 -0.5326
 1415TIP3    H225661   1.826   5.516   2.885  0.8615  0.3981  0.0909
 1416TIP3   OH225662   2.727   6.415  14.678  0.0332 -0.8324  0.5254
 1416TIP3    H125663   2.779   6.380  14.606  0.2905  0.3537  0.1174
 1416TIP3    H225664   2.792   6.442  14.743  0.0614  1.5151 -0.3685
 1417TIP3   OH225665   2.962   2.622   1.827  0.0666 -0.3339  0.2343
 1417TIP3    H125666   2.955   2.527   1.830 -0.4196 -0.2845  0.8633
 1417TIP3    H225667   2.990   2.642   1.737  0.5614 -1.0873  0.2169
 1418TIP3   OH225668   4.892   6.671   1.632 -0.4616 -0.1562  0.9591
 1418TIP3    H125669   4.842   6.637   1.707 -1.2540 -0.1793  0.4369
 1418TIP3    H225670   4.828   6.675   1.561  1.4158 -5.6662 -1.5440
 1419TIP3   OH225671   6.442   4.075  17.263 -0.0722 -0.7729 -0.4995
 1419TIP3    H125672   6.494   4.092  17.184  1.1546 -2.2172 -0.0657
 1419TIP3    H225673   6.496   4.110  17.334  0.5777 -2.6814  0.0011
 1420TIP3   OH225674   2.120   6.586  13.796  0.1725  0.2028 -0.3368
 1420TIP3    H125675   2.129   6.681  13.792  0.7166  0.1814  0.1788
 1420TIP3    H225676   2.199   6.556  13.841  0.0010 -0.4940 -0.4781
 1421TIP3   OH225677   1.525   4.016   0.489  0.0233 -0.0071 -0.5865
 1421TIP3    H125678   1.486   4.011   0.402  0.8988 -0.8522 -0.9462
 1421TIP3    H225679   1.452   4.036   0.547 -0.3951  1.8385 -1.6445
 1422TIP3   OH225680   1.439   3.563   4.217  0.3101  0.6617  0.4636
 1422TIP3    H125681   1.393   3.562   4.301  2.8646 -1.7728  2.0162
 1422TIP3    H225682   1.450   3.656   4.196 -1.2744  1.3115  2.2634
 1423TIP3   OH225683   4.589   6.171  15.308 -0.7033  0.2599  0.2345
 1423TIP3    H125684   4.641   6.093  15.325 -0.2812  0.2018 -1.1766
 1423TIP3    H225685   4.651   6.243  15.312 -0.9252  0.4299  0.6550
 1424TIP3   OH225686   2.115   1.365  16.994 -0.0752 -0.4799  0.7291
 1424TIP3    H125687   2.072   1.335  17.074  0.1746 -1.7445  0.4134
 1424TIP3    H225688   2.209   1.358  17.014 -0.0028 -1.4738  0.1075
 1425TIP3   OH225689   5.902   0.758   3.846 -0.5641  0.2176 -0.3402
 1425TIP3    H125690   5.841   0.720   3.783 -0.8565 -0.8997  0.5938
 1425TIP3    H225691   5.862   0.842   3.870 -1.9260 -0.6288  0.4798
 1426TIP3   OH225692   0.417   3.147  15.162  0.0620  0.7402 -0.3531
 1426TIP3    H125693   0.481   3.127  15.230  0.8545 -2.9304 -1.9050
 1426TIP3    H225694   0.333   3.119  15.199  0.5139 -1.4103 -0.7818
 1427TIP3   OH225695   4.333   5.623  14.878 -0.3830  0.6423  0.5698
 1427TIP3    H125696   4.244   5.590  14.869 -1.0081  2.2898  0.3039
 1427TIP3    H225697   4.332   5.671  14.961 -0.2511  2.0359 -0.1927
 1428TIP3   OH225698   5.712   0.790   1.928 -0.4342  0.3130 -0.5044
 1428TIP3    H125699   5.707   0.694   1.929  2.5811  0.0804  0.1936
 1428TIP3    H225700   5.747   0.812   2.014 -0.0346  1.9634 -1.0649
 1429TIP3   OH225701   3.088   4.402   3.380  0.1502  0.2588  0.0130
 1429TIP3    H125702   3.039   4.333   3.336  2.8688 -1.3241 -0.8168
 1429TIP3    H225703   3.063   4.483   3.335 -0.5799 -0.6887 -1.3325
 1430TIP3   OH225704   1.698   2.696  15.069 -0.2382 -0.1212 -0.0629
 1430TIP3    H125705   1.620   2.752  15.076  0.7160  1.4385 -1.3177
 1430TIP3    H225706   1.720   2.675  15.160 -0.5731  1.6704  0.4658
 1431TIP3   OH225707   2.700   0.835  12.608  0.2623  0.1962 -0.0190
 1431TIP3    H125708   2.682   0.841  12.514 -0.3930  2.9262  0.2073
 1431TIP3    H225709   2.795   0.843  12.615  0.2728  0.4139 -0.4023
 1432TIP3   OH225710   1.349   5.213   4.020  0.0841 -0.1239  0.0463
 1432TIP3    H125711   1.378   5.195   4.110 -0.7520 -0.5650  0.2344
 1432TIP3    H225712   1.270   5.266   4.031  1.1418  1.6563 -0.4682
 1433TIP3   OH225713   1.725   4.950   3.786  0.2709  0.9871 -0.4880
 1433TIP3    H125714   1.820   4.947   3.779  0.7293  2.0800  3.1127
 1433TIP3    H225715   1.700   5.030   3.738  1.4324  1.7680  0.1592
 1434TIP3   OH225716   5.190   5.613  15.214  0.3089  0.3007 -0.0730
 1434TIP3    H125717   5.144   5.657  15.143 -0.6461  1.6230  1.3072
 1434TIP3    H225718   5.282   5.633  15.199  0.3405 -0.8667 -1.8470
 1435TIP3   OH225719   6.000   2.288  17.252 -0.1800  0.2712  0.0591
 1435TIP3    H125720   6.038   2.338  17.324 -0.8319 -0.4952  0.9522
 1435TIP3    H225721   5.993   2.199  17.286 -1.4991  0.1145 -0.5637
 1436TIP3   OH225722   0.686   4.693   1.019  0.2219  0.4963 -0.7072
 1436TIP3    H125723   0.686   4.717   1.112  0.2947 -0.0422 -0.5635
 1436TIP3    H225724   0.685   4.597   1.019 -0.4784  0.4953 -1.2664
 1437TIP3   OH225725   6.273   5.794  14.751  0.5114  0.0790  0.1499
 1437TIP3    H125726   6.194   5.814  14.801  0.1704 -0.6756 -0.0658
 1437TIP3    H225727   6.261   5.703  14.723  0.6985  0.4674 -1.2829
 1438TIP3   OH225728   2.886   6.615  15.369  0.3747 -0.3353 -0.1845
 1438TIP3    H125729   2.907   6.625  15.276 -0.3963  1.6984 -0.2071
 1438TIP3    H225730   2.837   6.695  15.390  0.7496 -0.6391  2.0270
 1439TIP3   OH225731   1.423   2.133  15.585 -0.3220 -0.0213 -0.5688
 1439TIP3    H125732   1.346   2.087  15.553 -0.1500  1.3760 -3.3590
 1439TIP3    H225733   1.399   2.226  15.578  1.6612  0.4486 -1.8113
 1440TIP3   OH225734   6.450   3.881   5.214  0.0783 -0.1644 -0.0880
 1440TIP3    H125735   6.510   3.929   5.272 -0.4754  0.3073  0.1044
 1440TIP3    H225736   6.424   3.804   5.266  0.7971 -0.5733 -0.3146
 1441TIP3   OH225737   0.215   5.396   5.118  0.6510  0.4093  0.0872
 1441TIP3    H125738   0.186   5.332   5.053  4.8227  0.4216 -2.0822
 1441TIP3    H225739   0.184   5.481   5.084 -2.1745  0.0355  1.3655
 1442TIP3   OH225740   6.396   1.815   2.203  0.4662 -0.3459  0.1137
 1442TIP3    H125741   6.481   1.850   2.179  0.0705  1.4466  1.1005
 1442TIP3    H225742   6.391   1.730   2.159  3.1017 -0.9177  0.7478
 1443TIP3   OH225743   4.717   5.840  12.428 -0.5702 -0.2442  0.0541
 1443TIP3    H125744   4.667   5.920  12.412  0.1820 -0.0387 -1.5117
 1443TIP3    H225745   4.656   5.770  12.406 -0.2351  0.0041 -1.8738
 1444TIP3   OH225746   3.956   6.083  16.179 -0.1330  0.3401 -0.1885
 1444TIP3    H125747   3.995   5.996  16.176 -1.1541 -0.1212 -0.5162
 1444TIP3    H225748   3.872   6.073  16.133  0.2901  1.7822 -1.3502
 1445TIP3   OH225749   3.102   5.790   1.351  0.0091  0.1719  0.4102
 1445TIP3    H125750   3.015   5.755   1.366 -0.0029  0.8038  1.9776
 1445TIP3    H225751   3.132   5.748   1.270 -2.3907  1.1770 -1.0998
 1446TIP3   OH225752   4.298   0.795   4.086 -0.2666 -0.2449 -0.2519
 1446TIP3    H125753   4.293   0.811   4.180  0.7641  2.5944 -0.5770
 1446TIP3    H225754   4.392   0.790   4.067 -0.4602 -2.6555 -0.9506
 1447TIP3   OH225755   4.137   6.214   3.051  0.0219  0.5308 -0.1628
 1447TIP3    H125756   4.072   6.179   2.990  1.8327  0.4850 -2.1845
 1447TIP3    H225757   4.108   6.183   3.137 -0.2760 -3.2508 -1.4202
 1448TIP3   OH225758   0.316   1.353  10.921  0.6501  0.2075  0.1386
 1448TIP3    H125759   0.253   1.421  10.896 -1.8270 -1.2569  1.9802
 1448TIP3    H225760   0.389   1.402  10.960 -0.7441  1.8710  0.7911
 1449TIP3   OH225761   4.220   0.668  15.580  0.6892  0.6329 -0.1416
 1449TIP3    H125762   4.278   0.636  15.512  0.8329  0.6855 -0.0448
 1449TIP3    H225763   4.169   0.737  15.538  0.3023  0.2050 -0.3816
 1450TIP3   OH225764   0.897   6.302   2.826  0.4120 -0.0914 -0.1435
 1450TIP3    H125765   0.974   6.296   2.883 -0.1581 -0.8146  0.5795
 1450TIP3    H225766   0.823   6.302   2.887 -0.2134 -0.9092 -0.8904
 1451TIP3   OH225767   5.195   5.594  14.377 -0.2762  0.1223 -0.1541
 1451TIP3    H125768   5.248   5.519  14.351 -0.5685 -0.2924  0.4365
 1451TIP3    H225769   5.174   5.578  14.469  0.7813  1.5750  0.3929
 1452TIP3   OH225770   2.781   2.804  15.098  0.2336  0.8488 -0.0416
 1452TIP3    H125771   2.865   2.795  15.052 -0.1843 -0.6506 -0.5740
 1452TIP3    H225772   2.755   2.895  15.083  0.5414  0.6511 -2.0425
 1453TIP3   OH225773   1.877   5.361   3.602  0.3133  0.2677 -0.0364
 1453TIP3    H125774   1.838   5.332   3.684 -0.2105 -0.2979 -0.4736
 1453TIP3    H225775   1.815   5.334   3.535 -0.0125  2.0788 -0.5105
 1454TIP3   OH225776   5.091   6.568   0.466  0.0237  0.0056 -0.1649
 1454TIP3    H125777   5.113   6.654   0.503  0.2166 -0.0112 -0.2387
 1454TIP3    H225778   5.054   6.587   0.380  3.2969 -0.1167 -1.7592
 1455TIP3   OH225779   1.577   2.410   3.581  0.0226 -0.3879 -0.4740
 1455TIP3    H125780   1.530   2.370   3.508  1.0784 -0.0316 -1.3663
 1455TIP3    H225781   1.552   2.502   3.579 -0.6818 -0.5487  0.2200
 1456TIP3   OH225782   5.950   6.447   2.287 -0.1035  0.4980  0.2312
 1456TIP3    H125783   5.968   6.360   2.251  3.9862  1.0068  0.5255
 1456TIP3    H225784   5.923   6.430   2.377 -1.1544 -0.4875 -0.2410
 1457TIP3   OH225785   2.387   1.337  17.288 -0.1310 -0.4296 -0.5573
 1457TIP3    H125786   2.396   1.362  17.196  4.2346  1.0395  0.0285
 1457TIP3    H225787   2.324   1.399  17.324 -0.3354  0.3127 -2.1175
 1458TIP3   OH225788   6.201   3.789  14.721 -0.2470  0.1861  0.2478
 1458TIP3    H125789   6.204   3.695  14.735  0.0446  0.2379  0.5524
 1458TIP3    H225790   6.230   3.827  14.804 -0.1403  0.5379  0.0530
 1459TIP3   OH225791   0.159   1.172  10.668  0.3986 -0.2343 -0.5646
 1459TIP3    H125792   0.214   1.236  10.622 -2.5285  1.4877 -1.9554
 1459TIP3    H225793   0.207   1.090  10.660  2.6576  1.0684 -1.8177
 1460TIP3   OH225794   3.929   6.555   1.373 -0.6727  0.0486 -0.5755
 1460TIP3    H125795   3.940   6.630   1.431  0.6688 -0.5759  0.0210
 1460TIP3    H225796   3.980   6.577   1.295  1.1489 -0.8683  0.2696
 1461TIP3   OH225797   0.569   0.664  16.110  0.2463  0.1742  0.5137
 1461TIP3    H125798   0.613   0.591  16.066  1.2708  0.6733  0.6831
 1461TIP3    H225799   0.486   0.627  16.140  0.4260 -0.7157 -0.0589
 1462TIP3   OH225800   2.398   5.223   1.089 -0.7378 -0.4978  0.4429
 1462TIP3    H125801   2.399   5.215   0.993 -1.5773 -0.9408  0.4583
 1462TIP3    H225802   2.419   5.136   1.121 -1.0323 -0.4901  0.6606
 1463TIP3   OH225803   1.516   3.692   2.109 -0.2914 -0.0760 -0.0820
 1463TIP3    H125804   1.578   3.682   2.181  0.3148 -1.0168 -0.7167
 1463TIP3    H225805   1.485   3.782   2.117  0.6013  0.1819  0.6930
 1464TIP3   OH225806   6.174   0.201  13.835  0.6660 -0.2226  0.3209
 1464TIP3    H125807   6.084   0.223  13.813  1.0996 -0.4948 -2.0219
 1464TIP3    H225808   6.178   0.105  13.829  1.5746 -0.0962 -1.8719
 1465TIP3   OH225809   4.400   4.710  11.397 -0.4931  0.0366 -0.1557
 1465TIP3    H125810   4.488   4.712  11.435 -1.4092  2.5524  2.2389
 1465TIP3    H225811   4.407   4.762  11.317  0.5953 -1.7019 -1.2495
 1466TIP3   OH225812   4.958   2.969   0.162 -0.1151 -0.4193  0.3647
 1466TIP3    H125813   4.910   2.888   0.143  0.7423 -0.5514 -1.4634
 1466TIP3    H225814   5.050   2.941   0.166  0.2517  0.5296 -0.8797
 1467TIP3   OH225815   4.533   0.084   5.680  0.4922 -0.3474 -0.2974
 1467TIP3    H125816   4.599   0.042   5.625  0.6164 -0.0881 -0.3478
 1467TIP3    H225817   4.558   0.176   5.682  1.4535 -0.6037  1.5531
 1468TIP3   OH225818   4.404   1.523  16.217 -0.3603 -0.2757 -0.3526
 1468TIP3    H125819   4.412   1.449  16.156  0.2228  0.1363 -0.7827
 1468TIP3    H225820   4.309   1.536  16.226 -0.4875 -1.3428  0.0637
 1469TIP3   OH225821   6.698   5.016  15.745  0.3650 -0.0331 -0.2072
 1469TIP3    H125822   6.757   5.091  15.750 -0.0746  0.2341  2.3957
 1469TIP3    H225823   6.737   4.951  15.803 -0.6063 -0.8360 -0.4272
 1470TIP3   OH225824   4.301   5.826   5.739  0.0520 -0.0083  0.1756
 1470TIP3    H125825   4.230   5.881   5.774 -0.8890 -1.0209 -0.0819
 1470TIP3    H225826   4.369   5.829   5.806 -1.7375 -1.9876  2.2573
 1471TIP3   OH225827   5.452   0.521  14.363  0.1532 -0.3138 -0.1902
 1471TIP3    H125828   5.516   0.538  14.432 -0.4289 -0.2713  0.3481
 1471TIP3    H225829   5.404   0.443  14.392 -1.7936  1.1355  0.7423
 1472TIP3   OH225830   3.067   3.624   2.369  0.3083 -0.0348 -0.2235
 1472TIP3    H125831   3.143   3.616   2.426  1.0221 -0.5503 -1.2090
 1472TIP3    H225832   3.013   3.691   2.410  1.4982  0.6509  0.2762
 1473TIP3   OH225833   3.256   6.374   3.339 -0.4600 -0.3145 -0.1445
 1473TIP3    H125834   3.272   6.452   3.392 -0.6451  0.5542 -1.3127
 1473TIP3    H225835   3.308   6.388   3.260  1.3483 -2.4782  0.5730
 1474TIP3   OH225836   3.552   5.019   1.342 -0.2401 -0.4932  0.8121
 1474TIP3    H125837   3.539   4.987   1.431 -0.7252 -1.3893  0.4400
 1474TIP3    H225838   3.515   5.107   1.342  2.2219  0.6475  2.1889
 1475TIP3   OH225839   0.951   0.824   4.289 -0.4136 -0.0102 -0.5960
 1475TIP3    H125840   0.903   0.901   4.318 -0.3886  0.0561 -0.7312
 1475TIP3    H225841   0.917   0.753   4.343  1.0149  0.4527  0.9802
 1476TIP3   OH225842   6.460   6.592  14.380 -0.0182  0.4935  0.0706
 1476TIP3    H125843   6.463   6.686  14.395  1.6282  0.7135 -1.3096
 1476TIP3    H225844   6.434   6.555  14.464  1.3278  2.0508  1.2312
 1477TIP3   OH225845   0.151   5.811   5.706 -0.1122 -0.5376  0.3316
 1477TIP3    H125846   0.111   5.881   5.758  1.9452  0.9586  0.0124
 1477TIP3    H225847   0.112   5.730   5.741 -2.8007  0.7159  0.5040
 1478TIP3   OH225848   3.599   0.585   1.452 -0.1991 -0.3396 -0.4837
 1478TIP3    H125849   3.602   0.491   1.436  0.4342 -0.6892  1.5145
 1478TIP3    H225850   3.557   0.594   1.538  1.3347  1.0878  0.1640
 1479TIP3   OH225851   4.085   1.308  13.875  0.2845  0.0515 -0.5423
 1479TIP3    H125852   4.032   1.333  13.951  0.4688 -1.3971  0.0982
 1479TIP3    H225853   4.094   1.213  13.883  1.3535  0.0390 -1.7038
 1480TIP3   OH225854   3.057   0.191   5.112 -0.1814 -0.2045  0.1191
 1480TIP3    H125855   3.093   0.126   5.052  0.1545 -0.5543  0.6890
 1480TIP3    H225856   3.121   0.262   5.111 -0.5289  0.1115 -0.4729
 1481TIP3   OH225857   4.992   1.406   4.139 -0.3418 -1.2218 -0.0370
 1481TIP3    H125858   4.997   1.353   4.218 -1.7994 -0.9400  0.2705
 1481TIP3    H225859   4.913   1.459   4.151  2.0860  2.6075  0.6549
 1482TIP3   OH225860   1.817   1.098   3.959  0.0078  0.4627 -0.7527
 1482TIP3    H125861   1.839   1.017   3.913  0.6007  0.6690 -0.8382
 1482TIP3    H225862   1.893   1.116   4.014  0.1335  1.2827 -1.1841
 1483TIP3   OH225863   3.866   5.545   4.297  0.4853  0.5159  0.4117
 1483TIP3    H125864   3.888   5.626   4.343  0.0519 -0.0423  1.6465
 1483TIP3    H225865   3.920   5.547   4.218  0.5046  1.9821  0.4318
 1484TIP3   OH225866   4.174   1.084   1.213 -0.9924 -0.6573  0.5391
 1484TIP3    H125867   4.133   1.001   1.238 -4.0465  1.4447  3.4006
 1484TIP3    H225868   4.192   1.128   1.297 -1.0545  2.2429 -0.8572
 1485TIP3   OH225869   5.455   5.147   1.370 -0.2607  0.0999 -0.3954
 1485TIP3    H125870   5.389   5.206   1.333  0.8889  0.9346 -1.2410
 1485TIP3    H225871   5.521   5.140   1.301  0.5326 -0.7056  0.4158
 1486TIP3   OH225872   3.947   0.578  11.763  0.1485 -0.0043 -0.1361
 1486TIP3    H125873   3.878   0.526  11.722 -0.0612 -0.6734  1.0243
 1486TIP3    H225874   3.942   0.663  11.719 -0.8609 -0.3076 -0.6402
 1487TIP3   OH225875   1.615   1.993   4.604 -0.2653  0.0916 -0.7061
 1487TIP3    H125876   1.704   1.960   4.610  0.0017  1.0437  1.5771
 1487TIP3    H225877   1.576   1.945   4.531  2.3267  0.2300 -2.3047
 1488TIP3   OH225878   0.260   2.228   5.919  0.4194 -0.1194  0.2996
 1488TIP3    H125879   0.337   2.276   5.948 -0.1932  0.6292  0.7534
 1488TIP3    H225880   0.186   2.283   5.948 -0.3179 -1.5841  1.2991
 1489TIP3   OH225881   4.181   3.235  15.096  0.1757  0.6158 -0.7256
 1489TIP3    H125882   4.186   3.140  15.103  3.0312  0.7241  0.2882
 1489TIP3    H225883   4.176   3.252  15.002  5.4298 -0.6344 -1.5512
 1490TIP3   OH225884   5.107   4.247   1.587 -0.0365 -0.1671 -0.1341
 1490TIP3    H125885   5.097   4.189   1.662  1.5592  1.2216  1.2415
 1490TIP3    H225886   5.173   4.204   1.532  0.9539  0.1738  0.7518
 1491TIP3   OH225887   1.162   4.301   2.803  0.5830  0.7433  0.8160
 1491TIP3    H125888   1.236   4.356   2.830  0.0613  1.2602  1.2205
 1491TIP3    H225889   1.144   4.247   2.879 -0.5452  1.8240  1.3519
 1492TIP3   OH225890   4.428   1.797   5.477 -0.0362  0.0689  0.1557
 1492TIP3    H125891   4.422   1.786   5.571  1.8856 -1.2735  0.1598
 1492TIP3    H225892   4.482   1.875   5.465  0.0928 -0.0214  0.1557
 1493TIP3   OH225893   0.673   5.111   1.986 -0.0195  0.3675 -0.3160
 1493TIP3    H125894   0.614   5.151   1.922 -0.2143  2.0911  0.8892
 1493TIP3    H225895   0.647   5.149   2.070  0.9314 -1.0380  0.6461
 1494TIP3   OH225896   4.138   1.827  14.155  0.0965  0.9242  0.3473
 1494TIP3    H125897   4.054   1.789  14.181 -0.6341  0.5396 -2.2789
 1494TIP3    H225898   4.119   1.921  14.145  0.0830  0.9071  0.2040
 1495TIP3   OH225899   2.825   2.090   1.409 -0.1397 -0.0799  0.1074
 1495TIP3    H125900   2.741   2.069   1.367 -0.0673  0.2520 -0.2119
 1495TIP3    H225901   2.806   2.092   1.502 -0.1660 -1.4843  0.1567
 1496TIP3   OH225902   4.194   4.426   0.616  0.0081  0.1290 -0.3510
 1496TIP3    H125903   4.208   4.472   0.699 -1.8137  0.4542 -0.1741
 1496TIP3    H225904   4.263   4.459   0.559  1.6236 -0.5049  1.1733
 1497TIP3   OH225905   0.442   6.705  11.520 -0.0749  0.4595 -0.5887
 1497TIP3    H125906   0.422   6.612  11.519 -1.6136  0.7701 -1.7582
 1497TIP3    H225907   0.485   6.721  11.436  1.5718  0.5614  0.2292
 1498TIP3   OH225908   4.846   0.953  16.420  0.2711  0.0145 -0.5182
 1498TIP3    H125909   4.857   0.865  16.385  0.0326 -0.4735  0.5854
 1498TIP3    H225910   4.824   0.939  16.512  1.3909  1.2677 -0.0425
 1499TIP3   OH225911   6.232   3.455  13.473 -0.0159  0.2678  0.4273
 1499TIP3    H125912   6.229   3.514  13.549 -2.7387  0.0403  0.5861
 1499TIP3    H225913   6.302   3.393  13.494 -0.4626  0.4050  2.6296
 1500TIP3   OH225914   0.315   1.518  12.247 -0.2189  0.2574  0.3211
 1500TIP3    H125915   0.241   1.458  12.246 -0.4831  0.5782  0.3887
 1500TIP3    H225916   0.391   1.463  12.231 -0.2416 -0.3887  2.2626
 1501TIP3   OH225917   4.826   3.304  11.615  0.0767 -0.3526  0.2126
 1501TIP3    H125918   4.801   3.279  11.526 -1.2559 -0.7786  0.6697
 1501TIP3    H225919   4.768   3.252  11.671 -1.6057  2.4030  1.2626
 1502TIP3   OH225920   1.189   6.462  15.672 -0.0831  0.0142 -0.0713
 1502TIP3    H125921   1.128   6.434  15.604  0.4285 -2.1103  0.2772
 1502TIP3    H225922   1.150   6.431  15.754 -0.7455  2.6271  0.7047
 1503TIP3   OH225923   2.838   0.725   2.338  0.6298 -0.1900 -0.0177
 1503TIP3    H125924   2.776   0.652   2.342  1.1503 -0.6567 -0.4400
 1503TIP3    H225925   2.856   0.737   2.245  0.0377  0.9253 -0.0095
 1504TIP3   OH225926   1.624   1.125  14.654 -0.3252  0.6426  0.8625
 1504TIP3    H125927   1.629   1.219  14.638 -0.2536  0.5418  0.2497
 1504TIP3    H225928   1.530   1.108  14.665 -0.4999  0.5639 -0.5447
 1505TIP3   OH225929   5.085   6.379   2.766 -0.3045 -0.1286  0.1120
 1505TIP3    H125930   5.133   6.330   2.699  0.9697  1.7077 -0.3852
 1505TIP3    H225931   5.051   6.456   2.720  0.7695  1.2925  1.5554
 1506TIP3   OH225932   4.941   5.001   5.624 -0.0156  0.6049  0.5205
 1506TIP3    H125933   4.877   5.022   5.557 -0.2856  1.1767  0.9460
 1506TIP3    H225934   5.012   5.064   5.611 -0.4096  1.2120  1.2284
 1507TIP3   OH225935   4.277   2.696  15.449 -0.0814 -0.2943 -0.4312
 1507TIP3    H125936   4.354   2.740  15.483 -1.5268  2.3997 -0.3859
 1507TIP3    H225937   4.254   2.632  15.517  1.5386 -0.4962 -0.0375
 1508TIP3   OH225938   2.077   0.479  12.363 -0.6677  0.3002 -0.0334
 1508TIP3    H125939   2.139   0.438  12.302  0.2483  1.8141 -0.1691
 1508TIP3    H225940   2.065   0.413  12.432  0.4400 -0.3652 -0.4398
 1509TIP3   OH225941   4.210   0.023  12.264 -0.1640  0.8639 -0.0878
 1509TIP3    H125942   4.154   0.040  12.340  1.1451  0.8793  0.9209
 1509TIP3    H225943   4.220   0.108  12.221 -1.3608  0.7516 -0.6284
 1510TIP3   OH225944   5.438   3.714  15.775 -0.6929 -0.0145  0.2944
 1510TIP3    H125945   5.416   3.646  15.838 -0.9182  0.2420  0.4968
 1510TIP3    H225946   5.426   3.796  15.823 -1.0002  0.1886 -0.1185
 1511TIP3   OH225947   0.670   4.669   1.607  0.3121 -0.3258 -0.2592
 1511TIP3    H125948   0.623   4.585   1.604  0.8995 -0.6419 -0.8001
 1511TIP3    H225949   0.702   4.675   1.697  0.7698 -0.9708 -0.3732
 1512TIP3   OH225950   1.588   3.658   1.847  0.2276  0.1822  0.0857
 1512TIP3    H125951   1.549   3.713   1.780  0.6681 -0.8279 -1.0332
 1512TIP3    H225952   1.532   3.670   1.924 -1.8340 -0.6426 -1.2254
 1513TIP3   OH225953   0.951   6.549  11.205 -0.2324  0.1063 -0.7544
 1513TIP3    H125954   0.967   6.540  11.299  0.8720  1.1638 -0.8321
 1513TIP3    H225955   0.857   6.565  11.199 -0.1327  1.2786  0.2852
 1514TIP3   OH225956   3.536   5.151   0.695  0.4274  0.4838 -0.0578
 1514TIP3    H125957   3.620   5.114   0.666 -0.2783 -0.1374 -1.3913
 1514TIP3    H225958   3.499   5.190   0.616 -1.1710 -0.4819  0.1833
 1515TIP3   OH225959   3.935   3.147  15.273 -0.0058  0.3651 -0.6074
 1515TIP3    H125960   3.954   3.189  15.190 -3.0924  0.5979 -1.2937
 1515TIP3    H225961   3.878   3.209  15.319  1.0962 -0.0469  1.4418
 1516TIP3   OH225962   0.887   2.038   6.562 -0.0313  0.4608  0.0728
 1516TIP3    H125963   0.799   2.069   6.582 -0.9431 -3.0750  2.3314
 1516TIP3    H225964   0.886   2.024   6.467 -1.0515  2.6081 -0.2927
 1517TIP3   OH225965   3.779   5.186  16.655  0.0386  0.0919  0.3238
 1517TIP3    H125966   3.760   5.269  16.612 -2.4170 -1.7469 -2.6107
 1517TIP3    H225967   3.704   5.171  16.712  0.0432 -0.4540  0.1914
 1518TIP3   OH225968   3.174   1.961  14.466 -0.0314  0.0440  0.4511
 1518TIP3    H125969   3.217   1.884  14.503  0.4371  0.0870  0.0023
 1518TIP3    H225970   3.230   2.034  14.491 -1.8797  0.6519  3.2795
 1519TIP3   OH225971   0.308   1.089  11.749  0.4740 -0.6681 -0.2362
 1519TIP3    H125972   0.245   1.020  11.730 -0.9450  0.1878  1.0579
 1519TIP3    H225973   0.387   1.064  11.701 -1.3727 -0.8446 -3.4946
 1520TIP3   OH225974   3.211   3.585  12.660 -0.2807 -0.3151 -0.1007
 1520TIP3    H125975   3.191   3.664  12.710 -0.3515  0.7615 -1.7720
 1520TIP3    H225976   3.292   3.552  12.700 -0.1955  0.6471  0.5701
 1521TIP3   OH225977   1.940   3.917   1.033 -0.0092 -0.2065  0.7124
 1521TIP3    H125978   1.864   3.921   1.091 -0.8057 -0.7062 -0.2595
 1521TIP3    H225979   1.913   3.967   0.956  0.4277 -0.8614  0.1290
 1522TIP3   OH225980   1.777   0.443   2.624 -0.4939  0.6579  0.3921
 1522TIP3    H125981   1.788   0.451   2.719  0.0051  0.8790  0.3158
 1522TIP3    H225982   1.760   0.533   2.595  3.0199  1.2878 -0.1926
 1523TIP3   OH225983   4.779   5.494  15.606  0.3358  0.1665 -0.0035
 1523TIP3    H125984   4.811   5.404  15.602  2.5175  0.8259  1.3102
 1523TIP3    H225985   4.853   5.547  15.578 -0.6235  1.6259  0.1462
 1524TIP3   OH225986   5.030   0.818  11.952  0.1037 -0.0156 -0.3081
 1524TIP3    H125987   5.107   0.789  12.001 -1.4824 -0.4875  2.0707
 1524TIP3    H225988   4.958   0.813  12.015 -2.2595 -1.3131 -2.8885
 1525TIP3   OH225989   6.199   3.172   5.850  0.2686  0.0879  0.1546
 1525TIP3    H125990   6.217   3.219   5.932 -1.1938  0.2953  0.3760
 1525TIP3    H225991   6.254   3.094   5.854  0.9124  0.5637  0.8939
 1526TIP3   OH225992   6.477   5.169  14.050 -0.1241  0.0655  0.4983
 1526TIP3    H125993   6.421   5.095  14.072  1.0751 -1.2100 -0.5991
 1526TIP3    H225994   6.542   5.134  13.989 -0.6514  2.4222 -1.6036
 1527TIP3   OH225995   1.330   1.607  14.455  0.3237 -0.5499 -0.5184
 1527TIP3    H125996   1.400   1.579  14.396 -0.0364 -0.0640 -1.1979
 1527TIP3    H225997   1.374   1.665  14.518  0.7280 -1.1442 -0.2415
 1528TIP3   OH225998   3.529   0.451  12.099  0.3959  0.2742 -0.0415
 1528TIP3    H125999   3.609   0.501  12.116 -0.9254  1.9484  1.7600
 1528TIP3    H226000   3.515   0.402  12.180  0.5675 -1.4898 -1.0442
 1529TIP3   OH226001   5.545   6.209   0.435  0.7018  0.1103  0.4290
 1529TIP3    H126002   5.569   6.193   0.526  0.8115  1.0592  0.5766
 1529TIP3    H226003   5.510   6.299   0.435  2.6066  0.8986 -0.8166
 1530TIP3   OH226004   1.410   1.214   3.124 -0.2849 -0.2647  0.6305
 1530TIP3    H126005   1.377   1.176   3.043  0.3733 -0.0136  0.2426
 1530TIP3    H226006   1.387   1.149   3.191 -1.3556 -0.1991  0.3494
 1531TIP3   OH226007   3.778   5.964   3.584  0.1484  0.1619  0.1864
 1531TIP3    H126008   3.799   5.876   3.614 -2.6842 -0.2422  1.2730
 1531TIP3    H226009   3.757   5.953   3.491  0.5041 -0.1869  0.1480
 1532TIP3   OH226010   1.051   1.007   3.258 -0.7968  0.2812  0.0411
 1532TIP3    H126011   1.009   0.953   3.325 -2.9590  1.8390  0.0475
 1532TIP3    H226012   1.135   1.031   3.297 -1.3165 -0.1437  1.5190
 1533TIP3   OH226013   6.148   0.330  15.935 -0.2281  0.5055 -0.0574
 1533TIP3    H126014   6.225   0.304  15.886  0.1760  0.2974  0.6732
 1533TIP3    H226015   6.075   0.286  15.891  0.2542 -0.5409  0.1738
 1534TIP3   OH226016   6.713   1.974   2.174  0.9362 -0.6154  1.1452
 1534TIP3    H126017   6.679   2.042   2.231 -1.6979  0.3547 -1.3595
 1534TIP3    H226018   6.759   2.021   2.104  1.1774 -1.5452  0.6511
 1535TIP3   OH226019   0.480   2.508  12.596  0.2625 -0.4787  0.2341
 1535TIP3    H126020   0.559   2.493  12.647 -0.1277  1.4602  1.5201
 1535TIP3    H226021   0.445   2.591  12.630 -2.2618 -1.2189 -0.3467
 1536TIP3   OH226022   0.737   1.776  13.664  0.3535 -0.7236  0.6070
 1536TIP3    H126023   0.734   1.681  13.673  0.7405 -0.8431 -0.4541
 1536TIP3    H226024   0.661   1.798  13.609  0.5737 -0.4743  0.4003
 1537TIP3   OH226025   1.483   4.397  12.350  0.3962 -1.0248 -0.1126
 1537TIP3    H126026   1.395   4.365  12.330  0.1902 -0.0674 -0.7526
 1537TIP3    H226027   1.541   4.330  12.315 -0.0666 -1.9206  0.7632
 1538TIP3   OH226028   6.108   0.920  14.279  0.1804 -0.4375  0.6487
 1538TIP3    H126029   6.068   0.878  14.356 -1.6046 -0.1166 -0.0403
 1538TIP3    H226030   6.163   0.990  14.315  2.3195 -2.5633  1.7614
 1539TIP3   OH226031   3.956   2.226   3.094 -0.7720 -0.4634 -0.1536
 1539TIP3    H126032   3.869   2.207   3.060 -1.2768 -0.1510  0.9006
 1539TIP3    H226033   3.940   2.258   3.183  0.4911 -1.4028  0.4412
 1540TIP3   OH226034   0.300   1.868   4.435 -0.5327  0.0247 -0.4004
 1540TIP3    H126035   0.315   1.785   4.481  1.0722  0.8454  0.6430
 1540TIP3    H226036   0.379   1.881   4.383  0.9233  2.5204  2.1199
 1541TIP3   OH226037   5.976   6.463  11.477  0.5377 -0.1640 -0.6870
 1541TIP3    H126038   6.048   6.522  11.459  0.8305  0.0752  1.0975
 1541TIP3    H226039   5.899   6.507  11.440  1.2375 -0.3650 -2.4838
 1542TIP3   OH226040   1.172   3.247  12.698 -0.6687 -0.0140 -0.3361
 1542TIP3    H126041   1.248   3.249  12.757 -1.2526  0.1108  0.4189
 1542TIP3    H226042   1.162   3.338  12.670 -1.4798  0.2664  0.7976
 1543TIP3   OH226043   3.249   0.358   0.015 -0.1212 -0.1525  0.3716
 1543TIP3    H126044   3.230   0.310   0.095 -0.8943 -0.9417 -0.2696
 1543TIP3    H226045   3.328   0.318  -0.020 -1.5763 -2.0441 -0.9486
 1544TIP3   OH226046   1.021   0.327  13.419 -0.2475 -0.4006 -0.6968
 1544TIP3    H126047   0.996   0.348  13.329 -0.9002 -0.4302 -0.5301
 1544TIP3    H226048   0.993   0.236  13.431 -1.6830  0.1166  0.0511
 1545TIP3   OH226049   6.403   6.507  15.295 -0.0575  0.8984  0.2802
 1545TIP3    H126050   6.344   6.582  15.297 -0.8647  0.3009 -0.3352
 1545TIP3    H226051   6.395   6.471  15.206  0.5893  0.3022  0.4465
 1546TIP3   OH226052   2.382   2.187  14.309 -0.5239  0.2164 -0.1894
 1546TIP3    H126053   2.440   2.259  14.335 -1.7222  0.6184  1.5015
 1546TIP3    H226054   2.329   2.223  14.238 -1.0385  0.9980  0.5703
 1547TIP3   OH226055   0.950   5.605  11.325  0.4715 -0.0700 -0.0035
 1547TIP3    H126056   1.028   5.660  11.331  0.0997  0.4128  0.5046
 1547TIP3    H226057   0.878   5.667  11.317  0.0732 -0.4939  0.2420
 1548TIP3   OH226058   0.785   4.664  15.150 -0.4804 -0.1736  0.2286
 1548TIP3    H126059   0.808   4.656  15.243  0.4879 -0.3710 -0.0150
 1548TIP3    H226060   0.840   4.735  15.118 -2.4952  1.5427  0.3089
 1549TIP3   OH226061   5.927   3.186   4.750 -0.5231  0.1845  0.6540
 1549TIP3    H126062   5.914   3.226   4.664  2.6074  1.7211  0.7701
 1549TIP3    H226063   5.954   3.096   4.730  1.6404  0.9397 -0.1562
 1550TIP3   OH226064   3.329   5.745   1.608  0.2121  0.0314 -0.4418
 1550TIP3    H126065   3.385   5.802   1.554  0.5375 -0.0223 -0.1646
 1550TIP3    H226066   3.322   5.791   1.692  0.5151 -0.3572 -0.1991
 1551TIP3   OH226067   2.101   2.879   6.649  0.1785  0.0098  0.2074
 1551TIP3    H126068   2.190   2.868   6.616 -0.3347  1.8529 -2.0534
 1551TIP3    H226069   2.106   2.958   6.703 -0.0607  0.0998  0.0994
 1552TIP3   OH226070   2.524   4.327  12.156 -0.2065  0.0108 -0.0912
 1552TIP3    H126071   2.466   4.383  12.104 -1.9122 -0.1969  1.5158
 1552TIP3    H226072   2.531   4.246  12.105  0.5998  0.8684 -1.4135
 1553TIP3   OH226073   5.522   1.575   6.402 -0.3656 -0.2716  0.5930
 1553TIP3    H126074   5.613   1.601   6.387 -0.3558 -0.7771 -0.2667
 1553TIP3    H226075   5.471   1.645   6.360 -0.3512 -0.6930 -0.1507
 1554TIP3   OH226076   2.485   2.594  14.456 -0.0007  0.2835  0.4006
 1554TIP3    H126077   2.563   2.567  14.408 -0.7322 -1.6370  0.2171
 1554TIP3    H226078   2.448   2.665  14.403  0.3392 -0.3779 -0.7581
 1555TIP3   OH226079   1.475   0.247  17.353  0.3192  0.4407  0.3977
 1555TIP3    H126080   1.397   0.260  17.300  0.2409 -0.5517  0.2380
 1555TIP3    H226081   1.472   0.316  17.419 -0.5684  0.5600  0.2401
 1556TIP3   OH226082   4.401   6.562  13.248  0.7648  0.0622 -0.8376
 1556TIP3    H126083   4.443   6.647  13.242 -0.9806  1.0690  0.4730
 1556TIP3    H226084   4.430   6.527  13.333  0.4219 -0.0555 -0.7697
 1557TIP3   OH226085   2.911   4.316  11.618  0.6357  0.0687  0.1904
 1557TIP3    H126086   2.944   4.254  11.552  0.4396  0.4742 -0.2977
 1557TIP3    H226087   2.876   4.389  11.566 -0.9477 -0.3089  0.6726
 1558TIP3   OH226088   2.111   3.049  15.677 -0.2096  0.4629  0.2279
 1558TIP3    H126089   2.070   2.980  15.625 -0.2265 -0.5819  1.5773
 1558TIP3    H226090   2.091   3.026  15.768 -0.4689  2.4137  0.7193
 1559TIP3   OH226091   5.029   0.095  16.933  0.3096 -0.1606  0.0036
 1559TIP3    H126092   4.975   0.125  17.007 -0.8763 -0.3573 -0.7670
 1559TIP3    H226093   5.111   0.144  16.943 -0.5074  1.1962  0.4229
 1560TIP3   OH226094   5.667   3.470  13.364 -0.6622 -0.7003  0.0144
 1560TIP3    H126095   5.655   3.467  13.458 -1.9974 -0.9389 -0.1438
 1560TIP3    H226096   5.761   3.453  13.351 -0.0083  1.5669  1.3825
 1561TIP3   OH226097   2.433   3.148   5.506 -0.0408 -0.2143  0.1704
 1561TIP3    H126098   2.410   3.057   5.527  0.6380 -0.6848 -0.9903
 1561TIP3    H226099   2.464   3.185   5.589 -1.8678 -0.5282  1.0350
 1562TIP3   OH226100   3.180   1.500   3.058  0.0532 -0.0113  0.4820
 1562TIP3    H126101   3.118   1.431   3.082 -1.5008  1.1964  0.1571
 1562TIP3    H226102   3.163   1.515   2.965  0.1704  0.9944  0.6166
 1563TIP3   OH226103   0.918   5.671   1.277  0.1024  0.2802 -0.5233
 1563TIP3    H126104   0.899   5.731   1.205  1.5093 -0.1546 -1.2997
 1563TIP3    H226105   0.888   5.586   1.245  0.4596  0.1382 -0.4877
 1564TIP3   OH226106   2.483   0.089  16.278 -0.1020 -0.4978  0.1018
 1564TIP3    H126107   2.500   0.144  16.201 -1.1508 -1.4505 -0.8408
 1564TIP3    H226108   2.563   0.038  16.288  0.6180  0.6643  0.5751
 1565TIP3   OH226109   4.288   1.987   1.184  0.1753  0.3253 -0.3931
 1565TIP3    H126110   4.336   1.936   1.119  0.6454  2.8135 -2.1436
 1565TIP3    H226111   4.202   2.002   1.144 -1.7722 -2.8863  2.1070
 1566TIP3   OH226112   4.464   5.360  15.821  0.1247 -0.0707 -0.0588
 1566TIP3    H126113   4.406   5.390  15.891 -0.3988  2.2999 -1.3782
 1566TIP3    H226114   4.409   5.307  15.764 -0.1378  0.1528 -0.0170
 1567TIP3   OH226115   5.520   1.972   0.641 -0.1149 -0.7649 -0.7919
 1567TIP3    H126116   5.480   2.050   0.678 -0.0045 -0.4708 -1.2784
 1567TIP3    H226117   5.478   1.962   0.555  0.0342 -1.1046 -0.8276
 1568TIP3   OH226118   0.252   1.098   0.977 -0.0859 -0.4878  0.0988
 1568TIP3    H126119   0.249   1.171   1.038  2.8881  0.2381 -0.4648
 1568TIP3    H226120   0.206   1.131   0.899 -0.5171  0.0377  0.5676
 1569TIP3   OH226121   0.640   4.085  12.181 -0.2243 -0.4159  0.2182
 1569TIP3    H126122   0.629   4.142  12.105 -0.5849 -0.9710 -0.1547
 1569TIP3    H226123   0.724   4.042  12.167 -0.2685 -0.4818  0.1534
 1570TIP3   OH226124   1.189   5.214   5.823 -0.5746 -0.6044  0.3452
 1570TIP3    H126125   1.202   5.164   5.742  1.5763 -2.3050  1.6265
 1570TIP3    H226126   1.270   5.201   5.872 -1.7395  0.5315  2.7106
 1571TIP3   OH226127   3.600   1.734   2.234 -0.1813 -0.2088 -0.6006
 1571TIP3    H126128   3.629   1.710   2.322 -1.0320 -2.4206 -0.8581
 1571TIP3    H226129   3.649   1.676   2.176 -0.0026  0.8737 -1.5535
 1572TIP3   OH226130   1.230   0.133   2.218 -0.4656  0.0709 -0.1855
 1572TIP3    H126131   1.140   0.107   2.241 -0.5128 -0.0142 -0.4683
 1572TIP3    H226132   1.225   0.156   2.126  0.0485 -1.0582 -0.5128
 1573TIP3   OH226133   5.685   1.249  10.878 -0.6361 -0.3109 -0.0655
 1573TIP3    H126134   5.608   1.306  10.886 -1.0116 -0.8253  0.0802
 1573TIP3    H226135   5.661   1.170  10.927 -0.3034 -0.7780 -0.6495
 1574TIP3   OH226136   6.511   3.009   6.933  0.0308  0.2724 -0.7949
 1574TIP3    H126137   6.576   2.955   6.978 -0.4520 -0.7186 -1.2299
 1574TIP3    H226138   6.556   3.090   6.913 -0.0637  1.3308  2.5771
 1575TIP3   OH226139   5.665   0.755   4.744 -0.4295  0.1212 -0.0934
 1575TIP3    H126140   5.704   0.794   4.665 -0.6220 -0.6822 -0.5982
 1575TIP3    H226141   5.680   0.820   4.813  1.7622 -0.1308 -0.2765
 1576TIP3   OH226142   5.424   2.822   3.895 -1.0122 -0.5750  0.0437
 1576TIP3    H126143   5.406   2.910   3.862 -0.8536 -0.1200  1.1371
 1576TIP3    H226144   5.436   2.769   3.816  0.6685  0.7349 -0.6583
 1577TIP3   OH226145   6.218   1.322  12.990  0.2061  0.0642  0.2931
 1577TIP3    H126146   6.302   1.277  12.981 -0.0283 -0.1068 -1.5277
 1577TIP3    H226147   6.215   1.350  13.081  2.3172  0.2341  0.3648
 1578TIP3   OH226148   1.484   6.705  16.737  0.0058 -0.4527 -0.1223
 1578TIP3    H126149   1.523   6.629  16.781  0.7414  1.4922  2.8714
 1578TIP3    H226150   1.545   6.727  16.667  0.5375 -1.7243 -0.0857
 1579TIP3   OH226151   3.134   6.465  12.658  0.0248  0.1212 -0.3230
 1579TIP3    H126152   3.189   6.392  12.627 -1.6193 -1.5046  0.4157
 1579TIP3    H226153   3.121   6.519  12.580  2.4761  0.4897 -0.5630
 1580TIP3   OH226154   6.166   2.028   0.304  0.6213  0.1555  0.3378
 1580TIP3    H126155   6.161   2.053   0.397  0.6265 -1.1024  0.6982
 1580TIP3    H226156   6.146   2.108   0.257  1.2934  0.9842  1.4152
 1581TIP3   OH226157   5.416   6.278  15.948 -0.0966  0.4364 -0.0255
 1581TIP3    H126158   5.343   6.326  15.909 -0.1969 -1.3735 -2.3040
 1581TIP3    H226159   5.375   6.219  16.011 -0.3186  0.9660  0.3378
 1582TIP3   OH226160   4.448   4.445  14.446  0.2002  0.2021 -0.0872
 1582TIP3    H126161   4.442   4.492  14.362 -1.0498  2.2817  1.0864
 1582TIP3    H226162   4.386   4.373  14.437 -3.4862  3.0589  0.5555
 1583TIP3   OH226163   0.162   1.440  14.451  0.1069  0.3673  0.0529
 1583TIP3    H126164   0.094   1.458  14.386 -1.2493 -0.6969  1.1072
 1583TIP3    H226165   0.188   1.527  14.482  0.8688  0.9056 -1.9443
 1584TIP3   OH226166   3.281   3.311  13.693 -0.2266  0.1310 -0.0631
 1584TIP3    H126167   3.351   3.248  13.709 -1.6474 -1.5200 -0.0925
 1584TIP3    H226168   3.207   3.258  13.663 -2.4663  1.4040  2.8115
 1585TIP3   OH226169   1.376   1.430  16.077  0.1727  0.1110  0.2720
 1585TIP3    H126170   1.403   1.412  15.987  0.0817  0.2069  0.2253
 1585TIP3    H226171   1.386   1.346  16.122 -0.5080 -0.1318 -0.0116
 1586TIP3   OH226172   3.861   6.206  14.769 -0.6718 -0.2956  0.4216
 1586TIP3    H126173   3.806   6.270  14.722  1.5234  1.7331  0.4280
 1586TIP3    H226174   3.937   6.194  14.712  1.0816  0.6570  2.4376
 1587TIP3   OH226175   0.880   3.141   3.438  0.3454 -0.5980 -0.0784
 1587TIP3    H126176   0.949   3.091   3.394  0.5946 -1.1253  0.8691
 1587TIP3    H226177   0.801   3.089   3.425 -0.5824  1.3790 -3.6242
 1588TIP3   OH226178   1.767   6.523  11.905  0.3129  0.2233 -0.1074
 1588TIP3    H126179   1.820   6.600  11.885 -1.7585  1.5889 -0.6875
 1588TIP3    H226180   1.697   6.556  11.962 -0.2940 -1.3646  0.1216
 1589TIP3   OH226181   0.354   5.524  15.956 -0.0920 -0.2201 -0.1029
 1589TIP3    H126182   0.333   5.610  15.918 -0.2710 -0.2082  0.0199
 1589TIP3    H226183   0.396   5.545  16.040  1.1197 -0.2315 -0.6869
 1590TIP3   OH226184   5.792   1.005   0.449 -0.3681  0.3122  0.0696
 1590TIP3    H126185   5.717   1.029   0.394 -0.2373  2.0798  0.6116
 1590TIP3    H226186   5.759   1.014   0.539  0.0197 -0.5582  0.3074
 1591TIP3   OH226187   1.147   5.124  16.312  0.0103  0.3157  0.0283
 1591TIP3    H126188   1.144   5.072  16.232  0.6744  1.9902 -1.1464
 1591TIP3    H226189   1.068   5.179  16.309  0.9020  1.6367 -0.4259
 1592TIP3   OH226190   5.790   3.537  16.190  0.4783 -0.2426 -0.1639
 1592TIP3    H126191   5.786   3.533  16.285  0.9093  1.3569 -0.0497
 1592TIP3    H226192   5.698   3.546  16.162  0.5018  2.4463  0.3392
 1593TIP3   OH226193   5.438   4.238  12.952 -0.7759  0.1641  0.7631
 1593TIP3    H126194   5.397   4.324  12.956  0.9792  1.0277  0.7428
 1593TIP3    H226195   5.420   4.207  12.863  0.6105  1.5725 -0.0430
 1594TIP3   OH226196   5.886   4.330   0.211  0.3892 -0.5737  0.3767
 1594TIP3    H126197   5.903   4.411   0.261 -0.2252 -0.4786  0.4439
 1594TIP3    H226198   5.864   4.265   0.278  1.7667 -1.0537  0.3988
 1595TIP3   OH226199   1.948   5.507   1.840 -0.1709 -0.5497  0.1455
 1595TIP3    H126200   2.035   5.545   1.832  0.1925 -1.3890 -0.0405
 1595TIP3    H226201   1.953   5.451   1.917 -0.7601 -0.0604  0.5451
 1596TIP3   OH226202   2.070   6.279   0.410 -0.3938  0.4689 -0.7709
 1596TIP3    H126203   2.080   6.195   0.454 -1.3923 -0.0606 -1.5085
 1596TIP3    H226204   1.978   6.301   0.420 -0.7933  0.0698 -2.9734
 1597TIP3   OH226205   0.707   1.029   4.492 -0.2846  0.2024  0.0305
 1597TIP3    H126206   0.660   1.072   4.421 -1.4988 -0.5359  0.3595
 1597TIP3    H226207   0.659   0.947   4.507  0.2729  0.0791  1.3235
 1598TIP3   OH226208   5.302   3.155   1.571 -0.2489 -0.0023  0.3615
 1598TIP3    H126209   5.287   3.241   1.531  0.5262 -0.8969 -1.9766
 1598TIP3    H226210   5.296   3.172   1.665 -1.7717  2.2871 -0.0554
 1599TIP3   OH226211   0.909   1.939   2.452  0.3222 -0.3242  0.1985
 1599TIP3    H126212   0.856   1.948   2.531  0.8817 -0.8354  0.6425
 1599TIP3    H226213   0.904   1.846   2.430  2.3498 -0.6996  1.1956
 1600TIP3   OH226214   4.588   5.978  14.166 -0.0097  0.5935  0.1338
 1600TIP3    H126215   4.679   5.995  14.142  0.1788 -1.2944 -0.6546
 1600TIP3    H226216   4.542   6.059  14.143  1.1701  0.9412 -1.1442
 1601TIP3   OH226217   4.130   6.540   5.285 -0.2393 -0.1100  0.5317
 1601TIP3    H126218   4.152   6.479   5.356  1.1913  1.2743  1.3249
 1601TIP3    H226219   4.042   6.513   5.257  0.0556 -2.0694  1.3296
 1602TIP3   OH226220   3.998   3.331   5.775 -0.0953 -0.3191  0.4186
 1602TIP3    H126221   4.019   3.259   5.835  0.3808 -0.7458 -0.2462
 1602TIP3    H226222   3.954   3.289   5.701  1.1781 -0.0978 -0.4980
 1603TIP3   OH226223   4.810   1.867   3.376 -0.2610  0.3106 -0.8323
 1603TIP3    H126224   4.885   1.925   3.364  1.5834 -1.7850 -0.0848
 1603TIP3    H226225   4.833   1.813   3.451 -1.5375 -1.8747 -1.9146
 1604TIP3   OH226226   6.076   2.505   2.278 -0.2009  0.3432 -0.3813
 1604TIP3    H126227   6.150   2.449   2.254  0.5381  0.9446  0.4570
 1604TIP3    H226228   6.022   2.451   2.334  0.1223  0.2224 -0.1853
 1605TIP3   OH226229   1.198   6.206   2.854  0.1185  0.0640 -0.6035
 1605TIP3    H126230   1.280   6.226   2.809  0.0084 -1.7914 -1.7357
 1605TIP3    H226231   1.172   6.120   2.819  0.1089 -1.6391  3.1348
 1606TIP3   OH226232   3.143   5.997  17.403 -0.3181 -0.1935  0.6631
 1606TIP3    H126233   3.076   5.937  17.371 -0.2600 -0.1374  0.4391
 1606TIP3    H226234   3.137   6.073  17.345 -1.6548  0.8328  2.0533
 1607TIP3   OH226235   1.391   0.221  15.745  0.2835  0.1307 -0.7834
 1607TIP3    H126236   1.443   0.214  15.665 -0.0039 -1.5073 -0.8454
 1607TIP3    H226237   1.452   0.199  15.815  0.1939  0.2479 -0.6682
 1608TIP3   OH226238   2.890   1.988  16.911  0.2312  0.0226 -0.0222
 1608TIP3    H126239   2.935   2.067  16.941 -1.1046  0.8559 -0.1211
 1608TIP3    H226240   2.908   1.984  16.817 -0.4094  0.7191 -0.1856
 1609TIP3   OH226241   3.308   2.931   3.515  0.5773  0.4130 -0.0933
 1609TIP3    H126242   3.222   2.967   3.496 -0.6190 -2.1948  0.0006
 1609TIP3    H226243   3.291   2.842   3.545  3.3635 -0.5482 -1.0648
 1610TIP3   OH226244   2.927   2.164   5.926  0.5545 -0.0562  0.4667
 1610TIP3    H126245   2.842   2.192   5.957  0.1012 -0.9987  0.1051
 1610TIP3    H226246   2.987   2.184   5.998  0.1291  1.0874  0.5206
 1611TIP3   OH226247   0.779   4.245  13.232 -0.1676 -0.0735  0.0882
 1611TIP3    H126248   0.727   4.197  13.168 -0.5060 -0.2892  0.5198
 1611TIP3    H226249   0.814   4.320  13.183 -0.4109 -0.2427 -0.3494
 1612TIP3   OH226250   0.588   3.087   5.278 -0.5085 -0.3069 -0.1181
 1612TIP3    H126251   0.607   3.089   5.372 -1.3032 -0.6399  0.0651
 1612TIP3    H226252   0.586   2.994   5.256 -0.8621 -0.2530 -0.3370
 1613TIP3   OH226253   6.307   6.016  14.578  0.6318 -0.2349 -0.3079
 1613TIP3    H126254   6.249   5.973  14.514  1.7378  0.6540 -1.9734
 1613TIP3    H226255   6.305   5.958  14.654  0.9493 -2.5110 -1.9183
 1614TIP3   OH226256   4.219   1.288  14.212  0.1946 -0.1193 -0.7549
 1614TIP3    H126257   4.189   1.207  14.170 -0.1018  0.2861 -1.3439
 1614TIP3    H226258   4.306   1.303  14.174  0.3581 -0.2886 -0.4561
 1615TIP3   OH226259   0.970   2.245   3.562 -0.2813  0.2528  0.0638
 1615TIP3    H126260   0.891   2.191   3.567  0.8682 -1.5053  0.3383
 1615TIP3    H226261   1.000   2.251   3.652  2.5270 -3.4092 -0.3774
 1616TIP3   OH226262   3.382   0.500  13.739 -0.5432  0.3260  0.9778
 1616TIP3    H126263   3.471   0.470  13.759  0.2682  0.7828 -1.6539
 1616TIP3    H226264   3.326   0.426  13.764  0.9040 -1.2921 -0.3497
 1617TIP3   OH226265   0.975   6.218   1.968  0.0376  0.3272 -0.1012
 1617TIP3    H126266   1.021   6.299   1.993 -0.3114  0.6085 -0.3461
 1617TIP3    H226267   0.980   6.218   1.872  2.3635 -1.3154 -0.0664
 1618TIP3   OH226268   1.732   4.863   1.379  0.0592 -0.3300 -0.2910
 1618TIP3    H126269   1.785   4.783   1.387 -0.1000 -0.2566  3.1627
 1618TIP3    H226270   1.650   4.842   1.424 -1.9117  0.4234 -3.2535
 1619TIP3   OH226271   5.379   6.377  15.393 -0.3951  0.7429 -0.0227
 1619TIP3    H126272   5.284   6.370  15.384 -0.1707 -2.0354 -1.4021
 1619TIP3    H226273   5.399   6.323  15.470  0.1034  0.8642 -0.0646
 1620TIP3   OH226274   2.273   6.622  14.853 -0.1006  0.8014  0.2253
 1620TIP3    H126275   2.359   6.584  14.835 -0.8850 -1.3001  0.7190
 1620TIP3    H226276   2.278   6.649  14.945  0.3415  1.6886 -0.0364
 1621TIP3   OH226277   2.948   3.183  12.035  0.2068 -0.2390 -0.2837
 1621TIP3    H126278   2.906   3.226  11.960 -0.5334  0.6862  0.6145
 1621TIP3    H226279   3.016   3.129  11.997  0.4029  0.8506 -1.5719
 1622TIP3   OH226280   4.273   0.896  13.453 -0.2881 -0.2769 -0.2744
 1622TIP3    H126281   4.235   0.909  13.366 -0.7818  0.4321  0.0375
 1622TIP3    H226282   4.197   0.894  13.512  0.1136  0.5475  0.2862
 1623TIP3   OH226283   0.184   5.309  14.635  0.4496  0.2601 -0.0803
 1623TIP3    H126284   0.227   5.299  14.550 -0.0447 -0.4721 -0.2526
 1623TIP3    H226285   0.131   5.388  14.626  0.4240  0.2042 -0.4512
 1624TIP3   OH226286   0.331   6.131   2.885  0.2753  0.1057 -0.5486
 1624TIP3    H126287   0.256   6.134   2.944  0.9645  1.0394  0.3235
 1624TIP3    H226288   0.306   6.070   2.816 -1.8566  1.4166 -1.0405
 1625TIP3   OH226289   5.590   0.682  12.779 -0.0120 -0.3183  0.0412
 1625TIP3    H126290   5.552   0.596  12.761  0.4318 -0.3470 -0.8089
 1625TIP3    H226291   5.670   0.663  12.827 -0.0343 -0.3708  0.0581
 1626TIP3   OH226292   3.292   1.455  11.450  0.7584  0.3256 -0.0574
 1626TIP3    H126293   3.359   1.387  11.450  0.8479  0.4140 -0.6583
 1626TIP3    H226294   3.251   1.448  11.537  0.9830 -0.2730  0.0041
 1627TIP3   OH226295   1.175   1.988   5.139  0.4982 -0.3460  0.3529
 1627TIP3    H126296   1.172   2.054   5.070  1.8700 -0.5113  0.1014
 1627TIP3    H226297   1.101   2.009   5.196  0.1326  0.5981 -0.4410
 1628TIP3   OH226298   2.845   3.884   4.731 -0.5131 -0.1597 -0.4018
 1628TIP3    H126299   2.897   3.912   4.806 -3.6517  1.0189  1.5187
 1628TIP3    H226300   2.766   3.846   4.769 -0.8109 -2.6807 -3.1367
 1629TIP3   OH226301   6.596   3.287   4.080  0.0571  0.0410 -0.4701
 1629TIP3    H126302   6.557   3.315   3.997  0.6002  0.3075 -0.6405
 1629TIP3    H226303   6.532   3.311   4.147 -0.3643 -0.1347 -0.8036
 1630TIP3   OH226304   0.119   6.408  16.563 -0.3587  0.4865  0.0019
 1630TIP3    H126305   0.187   6.417  16.496  1.0139 -1.6610  0.9892
 1630TIP3    H226306   0.041   6.381  16.515  0.6858 -1.3413 -0.7920
 1631TIP3   OH226307   4.463   1.995  14.958  0.6582  0.2693 -0.3031
 1631TIP3    H126308   4.509   1.988  14.875  2.3382  0.4821  0.5779
 1631TIP3    H226309   4.380   2.037  14.936  2.0759  2.6219 -1.5610
 1632TIP3   OH226310   2.625   0.208   6.048  0.3791 -0.5044  0.3658
 1632TIP3    H126311   2.694   0.147   6.071 -0.3517 -2.0816 -1.3165
 1632TIP3    H226312   2.666   0.269   5.986  0.3118 -1.4063 -0.5917
 1633TIP3   OH226313   0.076   4.112   5.373 -0.0982  0.3190  0.3206
 1633TIP3    H126314   0.020   4.106   5.450  0.5217 -0.7665  0.7159
 1633TIP3    H226315   0.154   4.062   5.397 -0.1761 -0.5947 -1.2622
 1634TIP3   OH226316   5.777   1.094   2.724 -0.2357 -0.4121  0.5685
 1634TIP3    H126317   5.849   1.084   2.661 -0.1939 -0.2703  0.5934
 1634TIP3    H226318   5.811   1.057   2.805 -0.1633 -0.2790  0.5996
 1635TIP3   OH226319   3.806   3.458  14.918  0.2961  0.0134  0.1299
 1635TIP3    H126320   3.829   3.402  14.992 -0.3737  0.6203  0.8012
 1635TIP3    H226321   3.861   3.535  14.929 -1.9016  1.4736  1.7401
 1636TIP3   OH226322   1.473   3.895  11.286  0.2531  0.1631  0.1953
 1636TIP3    H126323   1.529   3.877  11.211 -0.6506  2.7285 -1.2080
 1636TIP3    H226324   1.530   3.939  11.349  0.5592 -0.2008  0.1729
 1637TIP3   OH226325   1.493   6.348   4.109  0.2622  0.3653  0.3634
 1637TIP3    H126326   1.544   6.298   4.174  0.5844 -0.3380 -0.4183
 1637TIP3    H226327   1.414   6.296   4.096 -0.3106  1.0604  0.9873
 1638TIP3   OH226328   5.465   1.640   5.577 -0.0736  0.1484  0.3187
 1638TIP3    H126329   5.444   1.693   5.654 -0.4866 -1.5365  1.4436
 1638TIP3    H226330   5.426   1.554   5.597  1.4674 -0.8849 -0.9271
 1639TIP3   OH226331   4.568   0.059   6.640  0.0725 -0.0369 -0.7986
 1639TIP3    H126332   4.625   0.085   6.713 -0.2718  0.6689 -0.7712
 1639TIP3    H226333   4.510  -0.007   6.677  1.6887 -1.7800 -1.1484
 1640TIP3   OH226334   3.580   3.378   3.613 -0.2907  0.6355 -0.2612
 1640TIP3    H126335   3.612   3.295   3.649  1.4529  0.1565 -2.6588
 1640TIP3    H226336   3.544   3.424   3.688  1.3302 -1.0780  1.6946
 1641TIP3   OH226337   5.835   2.467   3.935  0.1653 -0.3964  0.3445
 1641TIP3    H126338   5.909   2.527   3.926 -1.6939  2.4490  2.3437
 1641TIP3    H226339   5.766   2.505   3.880 -0.5851 -1.6586  0.3582
 1642TIP3   OH226340   3.072   5.184   5.496  0.5293  0.6660  0.4163
 1642TIP3    H126341   3.138   5.188   5.565  1.8977 -0.5783 -0.7560
 1642TIP3    H226342   3.063   5.091   5.477  1.5507  1.0253 -2.2837
 1643TIP3   OH226343   2.448   6.349  12.530 -0.5572  0.1668 -0.2315
 1643TIP3    H126344   2.430   6.428  12.480  0.4767  0.9136  0.5318
 1643TIP3    H226345   2.492   6.290  12.469 -0.5835  0.5093 -0.5774
 1644TIP3   OH226346   3.436   5.805  13.233  0.0211 -0.1821  1.0298
 1644TIP3    H126347   3.404   5.762  13.154  3.0918  0.1869 -0.5376
 1644TIP3    H226348   3.407   5.896  13.224 -1.1980 -0.5218  1.2960
 1645TIP3   OH226349   2.481   0.838   3.704  0.2491  0.2150  0.2889
 1645TIP3    H126350   2.505   0.780   3.632 -0.0781  0.1982  0.1943
 1645TIP3    H226351   2.564   0.880   3.729  1.1304 -2.4326  2.3041
 1646TIP3   OH226352   4.631   0.585   2.303  0.0128 -0.1646 -0.3968
 1646TIP3    H126353   4.604   0.657   2.359  1.3356  0.4599 -0.5311
 1646TIP3    H226354   4.704   0.543   2.350 -1.2903 -2.0187  0.1198
 1647TIP3   OH226355   0.932   0.009  15.419 -0.4028 -0.0327  0.1970
 1647TIP3    H126356   0.993  -0.043  15.367  0.2142  0.6928  0.1824
 1647TIP3    H226357   0.846  -0.026  15.396 -0.0367 -0.6851 -0.2164
 1648TIP3   OH226358   0.481   6.315  13.506 -0.2294  0.1720  0.0927
 1648TIP3    H126359   0.397   6.359  13.490  0.2792  0.8346 -0.8210
 1648TIP3    H226360   0.458   6.242  13.564 -1.3632  0.6096  0.2395
 1649TIP3   OH226361   1.116   4.603  17.021 -0.7181  0.4936  0.2604
 1649TIP3    H126362   1.128   4.509  17.038 -0.3620  0.2791 -1.0281
 1649TIP3    H226363   1.205   4.634  17.001 -0.8473  1.1049  0.6049
 1650TIP3   OH226364   1.197   3.130  14.081  0.1376  0.0661  0.3832
 1650TIP3    H126365   1.116   3.163  14.043  1.4033  0.9871 -1.6802
 1650TIP3    H226366   1.253   3.110  14.006  1.3537 -1.8575  1.7030
 1651TIP3   OH226367   3.335   0.279  17.113 -0.3096  0.2461 -0.3904
 1651TIP3    H126368   3.268   0.212  17.116 -0.1338  0.0045 -1.4784
 1651TIP3    H226369   3.393   0.258  17.186 -0.6562 -0.3487 -0.2778
 1652TIP3   OH226370   4.890   3.854   1.301  0.2459 -0.2348 -0.5986
 1652TIP3    H126371   4.876   3.936   1.253  1.1025 -0.1458 -0.7138
 1652TIP3    H226372   4.904   3.789   1.233  2.6008  0.0980 -0.5081
 1653TIP3   OH226373   2.031   2.889   5.064  0.6616  0.4231 -0.3912
 1653TIP3    H126374   2.023   2.914   4.972 -1.9274 -1.1178 -0.6807
 1653TIP3    H226375   2.076   2.805   5.062 -1.1292 -0.5915 -0.5073
 1654TIP3   OH226376   5.929   4.488  16.163  0.0654  0.1505  0.1765
 1654TIP3    H126377   5.901   4.402  16.197 -3.1497  0.4185 -1.3914
 1654TIP3    H226378   5.953   4.471  16.072 -1.2310  0.9511 -0.3447
 1655TIP3   OH226379   0.558   0.196  15.879  0.0831 -0.0735  0.0698
 1655TIP3    H126380   0.581   0.203  15.786  0.6030 -3.1340 -0.1401
 1655TIP3    H226381   0.464   0.181  15.879  0.1274 -0.3573  0.0096
 1656TIP3   OH226382   1.112   0.992  11.564  0.4762  0.4937  0.0051
 1656TIP3    H126383   1.104   1.086  11.581 -2.0655  0.0904  1.6806
 1656TIP3    H226384   1.101   0.983  11.470 -0.1601  1.8258 -0.0715
 1657TIP3   OH226385   2.341   5.471  15.292  0.1681  0.3844 -0.2010
 1657TIP3    H126386   2.248   5.450  15.294 -0.2599  1.3766 -3.4587
 1657TIP3    H226387   2.385   5.387  15.278 -0.6248  0.2494 -2.2893
 1658TIP3   OH226388   6.193   6.236  11.480 -0.1583  0.0345  0.2099
 1658TIP3    H126389   6.124   6.300  11.464 -1.7355 -1.5939  0.1950
 1658TIP3    H226390   6.181   6.169  11.412  1.1837 -0.5127  0.4608
 1659TIP3   OH226391   1.227   3.273   2.958  0.3389 -0.1373  0.2607
 1659TIP3    H126392   1.267   3.321   2.885  0.1159 -1.2555 -0.6152
 1659TIP3    H226393   1.256   3.183   2.946 -3.4354 -1.3346 -1.2483
 1660TIP3   OH226394   5.248   5.351  15.191 -0.1396  0.1012 -0.6951
 1660TIP3    H126395   5.164   5.310  15.212 -0.5889  1.2854 -0.0825
 1660TIP3    H226396   5.226   5.443  15.178  1.0306  0.3714 -0.8156
 1661TIP3   OH226397   3.748   1.856  11.449  0.0389 -0.6300  0.0016
 1661TIP3    H126398   3.687   1.885  11.382  0.7176 -0.4776 -0.5536
 1661TIP3    H226399   3.729   1.911  11.525  0.1478  0.0790 -0.4817
 1662TIP3   OH226400   5.097   3.198  16.207 -0.1005  0.2095 -0.7208
 1662TIP3    H126401   5.005   3.191  16.183 -0.1298 -2.2630 -0.1823
 1662TIP3    H226402   5.097   3.202  16.303  0.3420 -1.1770 -0.6306
 1663TIP3   OH226403   6.665   6.342   2.969 -0.3872  0.4922  0.2360
 1663TIP3    H126404   6.665   6.263   3.022 -1.7459 -0.5996 -1.2955
 1663TIP3    H226405   6.665   6.311   2.878 -0.6867  2.2471 -0.4209
 1664TIP3   OH226406   2.654   3.205  14.330 -0.6771  0.3257 -0.0344
 1664TIP3    H126407   2.663   3.287  14.377 -1.0294  0.6840 -0.5809
 1664TIP3    H226408   2.743   3.183  14.302 -0.6972  0.9782 -0.6386
 1665TIP3   OH226409   1.946   1.895  16.144 -0.2476 -0.6939  0.2502
 1665TIP3    H126410   1.857   1.920  16.120 -0.1438  0.3769  0.8984
 1665TIP3    H226411   1.944   1.799  16.149 -1.1324 -0.7296 -0.5795
 1666TIP3   OH226412   4.222   0.440  12.227 -0.1800 -0.0860 -0.1012
 1666TIP3    H126413   4.162   0.376  12.188 -1.1359 -0.1310  1.3434
 1666TIP3    H226414   4.220   0.514  12.167  1.3312 -1.5327 -2.0684
 1667TIP3   OH226415   1.549   2.826   0.363  0.4996 -0.1664  0.1276
 1667TIP3    H126416   1.485   2.834   0.434 -0.1930  0.3265 -0.5414
 1667TIP3    H226417   1.552   2.732   0.344  0.8115 -0.3208  0.9091
 1668TIP3   OH226418   2.594   5.961   4.126  0.1935  0.6085 -0.0170
 1668TIP3    H126419   2.564   6.045   4.159 -0.6473 -0.5092  2.2763
 1668TIP3    H226420   2.661   5.933   4.188  1.2724  0.0691 -1.3761
 1669TIP3   OH226421   5.406   3.926  10.629 -0.3887 -0.8543  0.1082
 1669TIP3    H126422   5.474   3.935  10.695 -0.3667 -0.5237  0.0419
 1669TIP3    H226423   5.360   4.010  10.630  0.6799 -0.1802 -1.4723
 1670TIP3   OH226424   4.447   6.737  12.569  0.0200 -0.0814  0.2170
 1670TIP3    H126425   4.364   6.689  12.576  0.4053 -0.9415 -0.7344
 1670TIP3    H226426   4.506   6.691  12.629 -0.4945  1.3166  1.8819
 1671TIP3   OH226427   1.428   4.304  12.719 -0.4959 -0.6117 -0.0053
 1671TIP3    H126428   1.482   4.329  12.793 -0.5768 -1.6586  0.4182
 1671TIP3    H226429   1.462   4.355  12.646  1.0410 -1.2086  0.2606
 1672TIP3   OH226430   4.140   5.615  12.205  0.1322 -0.2109  0.3179
 1672TIP3    H126431   4.161   5.524  12.185  1.0742  0.0122  0.2596
 1672TIP3    H226432   4.165   5.626  12.297  1.6706  0.4490 -0.1545
 1673TIP3   OH226433   2.727   4.885   0.402  0.4495 -0.4240 -0.0808
 1673TIP3    H126434   2.769   4.933   0.473  0.6435 -1.2741  0.4000
 1673TIP3    H226435   2.693   4.805   0.444 -1.6701  0.2258 -0.4431
 1674TIP3   OH226436   3.667   3.674   4.141  0.2350 -0.0641  0.2882
 1674TIP3    H126437   3.679   3.758   4.096 -0.4343  0.2004  0.6018
 1674TIP3    H226438   3.572   3.664   4.147  0.3189 -0.1152  1.6233
 1675TIP3   OH226439   5.755   4.002  17.233 -0.6491  0.5916 -0.3459
 1675TIP3    H126440   5.775   3.911  17.257 -0.7921  0.6525  0.0048
 1675TIP3    H226441   5.838   4.036  17.198 -0.9232 -0.0602 -1.6961
 1676TIP3   OH226442   6.566   4.770   5.162 -0.5096  0.6045  0.0606
 1676TIP3    H126443   6.592   4.859   5.185 -0.6784  0.3860  1.1293
 1676TIP3    H226444   6.605   4.715   5.230 -0.9324 -0.0775 -0.2358
 1677TIP3   OH226445   4.781   2.432  12.766 -0.4776 -0.5760 -0.1635
 1677TIP3    H126446   4.783   2.390  12.680 -2.2528 -2.2238  0.5395
 1677TIP3    H226447   4.871   2.424  12.798 -0.0792 -1.0284 -1.3501
 1678TIP3   OH226448   2.641   0.278   0.999 -0.1832 -1.0489  0.3999
 1678TIP3    H126449   2.726   0.299   0.961  0.2248 -0.4009  1.6255
 1678TIP3    H226450   2.598   0.223   0.933 -0.1099  1.1938 -1.6377
 1679TIP3   OH226451   2.670   3.814  12.818  0.7561 -0.6228  0.2369
 1679TIP3    H126452   2.697   3.895  12.775  0.9804 -0.5300  0.5487
 1679TIP3    H226453   2.692   3.828  12.910  1.0546 -1.1506  0.2478
 1680TIP3   OH226454   2.327   3.377   3.025  0.2776  0.7586  0.2350
 1680TIP3    H126455   2.287   3.309   3.079 -1.7653  1.0298 -0.8393
 1680TIP3    H226456   2.342   3.450   3.085  1.2527 -0.1344  1.1168
 1681TIP3   OH226457   2.073   0.133   0.293 -0.1856 -0.0722 -0.2036
 1681TIP3    H126458   2.088   0.141   0.198 -0.0866 -0.2975 -0.2078
 1681TIP3    H226459   2.112   0.048   0.316 -1.5856 -0.7555 -0.2407
 1682TIP3   OH226460   3.592   2.654  16.936 -0.6267  0.1770 -0.3246
 1682TIP3    H126461   3.649   2.718  16.893  0.6973 -0.1176  0.9039
 1682TIP3    H226462   3.503   2.683  16.915 -0.0444  1.3366 -1.3258
 1683TIP3   OH226463   1.945   0.809  15.179  0.4357  0.0751  0.3216
 1683TIP3    H126464   1.934   0.805  15.084 -0.8571 -0.5215  0.4734
 1683TIP3    H226465   1.862   0.843  15.212  1.4608  1.9621  1.1539
 1684TIP3   OH226466   6.706   0.116  10.856 -0.6169  0.6991 -0.7298
 1684TIP3    H126467   6.612   0.097  10.847 -0.2009 -0.8930 -2.0799
 1684TIP3    H226468   6.749   0.032  10.841  1.0293  1.2943  0.4132
 1685TIP3   OH226469   5.055   6.345  11.405  0.1048  0.3008  0.3924
 1685TIP3    H126470   5.009   6.285  11.463  1.1026 -1.6637 -0.7534
 1685TIP3    H226471   5.147   6.320  11.412  0.4542  1.1499 -0.7490
 1686TIP3   OH226472   4.819   0.684   1.521 -0.0207  0.0785 -0.1883
 1686TIP3    H126473   4.910   0.712   1.531 -0.2082  0.3932  0.6731
 1686TIP3    H226474   4.806   0.680   1.426  0.6290  0.9006 -0.3263
 1687TIP3   OH226475   5.399   5.210  16.773  0.2249  0.3551  0.3413
 1687TIP3    H126476   5.318   5.161  16.762  1.2890 -1.2261 -0.9621
 1687TIP3    H226477   5.407   5.261  16.692 -0.4672  2.1623  1.3460
 1688TIP3   OH226478   5.284   5.727   4.892 -0.3920 -0.0629 -0.3306
 1688TIP3    H126479   5.336   5.717   4.812  0.2960  0.7459  0.0101
 1688TIP3    H226480   5.225   5.800   4.873  0.0399  0.3837  0.0358
 1689TIP3   OH226481   5.554   0.423  12.691  0.4280 -0.3863 -0.2432
 1689TIP3    H126482   5.464   0.411  12.721  1.1455 -0.9868  1.8776
 1689TIP3    H226483   5.553   0.400  12.599 -1.4120 -1.2704 -0.0323
 1690TIP3   OH226484   1.970   5.533  14.600  0.0678  0.0135  0.4983
 1690TIP3    H126485   1.955   5.615  14.646  1.0318 -0.7885  2.3569
 1690TIP3    H226486   1.888   5.516  14.555 -0.3798  1.6413  0.6277
 1691TIP3   OH226487   6.225   0.364  12.816  0.2086  0.2918 -0.2167
 1691TIP3    H126488   6.238   0.310  12.893  2.2255  0.3734 -0.4642
 1691TIP3    H226489   6.175   0.439  12.848  0.4053 -0.0204  0.8542
 1692TIP3   OH226490   4.990   5.341   0.941  0.1496  0.4423 -0.3538
 1692TIP3    H126491   5.028   5.279   0.879 -1.6561 -0.6503 -0.4606
 1692TIP3    H226492   4.965   5.416   0.888  0.2415  0.2704 -0.6459
 1693TIP3   OH226493   0.816   2.513   5.445  0.2196  0.5309 -0.1285
 1693TIP3    H126494   0.777   2.581   5.389  0.6461 -0.9570 -2.3839
 1693TIP3    H226495   0.902   2.496   5.405 -0.0585 -1.6170  0.0796
 1694TIP3   OH226496   1.284   5.140   5.222 -0.1723  0.1747  0.0262
 1694TIP3    H126497   1.217   5.204   5.201 -1.6846  0.3355  4.4283
 1694TIP3    H226498   1.354   5.191   5.263 -0.4054 -0.6557  1.5303
 1695TIP3   OH226499   2.624   5.478   2.547 -0.3328  0.3602  0.5932
 1695TIP3    H126500   2.647   5.547   2.485  0.3180 -1.4087 -1.2547
 1695TIP3    H226501   2.549   5.434   2.507 -0.7297 -0.0223  1.7251
 1696TIP3   OH226502   5.283   6.002   4.494 -0.6041  0.4056  0.0854
 1696TIP3    H126503   5.307   5.999   4.401  0.0131 -2.4726  0.2419
 1696TIP3    H226504   5.261   6.094   4.510 -0.4999  1.0427 -2.8267
 1697TIP3   OH226505   6.216   6.185  15.818 -0.0587 -0.5120 -0.4076
 1697TIP3    H126506   6.204   6.173  15.912  1.5121  0.4669 -0.0478
 1697TIP3    H226507   6.186   6.274  15.801  1.7318  0.1163 -0.4062
 1698TIP3   OH226508   5.021   2.177  15.372 -0.2219  0.5760 -0.6811
 1698TIP3    H126509   5.016   2.082  15.362 -0.8522  0.1753  2.3719
 1698TIP3    H226510   5.114   2.194  15.386 -0.3606  0.0293  1.1572
 1699TIP3   OH226511   6.020   5.655   0.129 -0.2804  0.1126 -0.2684
 1699TIP3    H126512   5.990   5.573   0.170  1.9662  0.2001  1.7540
 1699TIP3    H226513   5.940   5.708   0.121 -1.2320 -0.8870  1.7799
 1700TIP3   OH226514   4.693   5.854  17.366 -0.5957 -0.3282  0.3968
 1700TIP3    H126515   4.673   5.948  17.366  0.4711 -0.0286 -1.9075
 1700TIP3    H226516   4.787   5.850  17.381 -0.3696 -0.9136 -1.1041
 1701TIP3   OH226517   5.091   5.506   1.451 -0.3254 -0.1198 -0.0909
 1701TIP3    H126518   5.122   5.428   1.404 -0.5824 -0.0905 -0.3110
 1701TIP3    H226519   5.068   5.567   1.381 -3.5322 -1.1043 -0.0652
 1702TIP3   OH226520   2.322   1.376  15.083  0.2613 -0.0323 -0.2397
 1702TIP3    H126521   2.387   1.337  15.140  0.3796  1.0889  0.4084
 1702TIP3    H226522   2.243   1.384  15.137 -0.5715 -1.6854 -1.1052
 1703TIP3   OH226523   4.612   0.443  11.035  0.4071 -0.1835 -0.0878
 1703TIP3    H126524   4.591   0.387  10.960 -1.2640  0.8808 -0.4760
 1703TIP3    H226525   4.690   0.404  11.073  0.5108 -1.5425 -1.5825
 1704TIP3   OH226526   6.183   1.156  15.420 -0.3014  0.4450  0.6482
 1704TIP3    H126527   6.243   1.128  15.350 -1.2215 -1.2280  0.4713
 1704TIP3    H226528   6.178   1.081  15.479 -1.7040  0.7895  1.0055
 1705TIP3   OH226529   5.634   3.854  15.629 -0.2593 -0.5213  0.5254
 1705TIP3    H126530   5.677   3.919  15.683  1.0710 -2.0902  1.4698
 1705TIP3    H226531   5.563   3.820  15.683 -1.4785  0.6692 -0.2762
 1706TIP3   OH226532   6.485   1.119  12.368  0.3258  0.2877  0.4705
 1706TIP3    H126533   6.446   1.135  12.283 -0.2093 -1.4961  0.3406
 1706TIP3    H226534   6.531   1.036  12.359  1.3709  0.7060  1.5650
 1707TIP3   OH226535   1.771   0.601   0.760 -0.1278 -0.1618 -0.2501
 1707TIP3    H126536   1.770   0.696   0.769 -2.1284 -0.1082 -0.6017
 1707TIP3    H226537   1.737   0.585   0.672  1.4370 -1.1982 -0.7099
 1708TIP3   OH226538   5.739   2.457  13.934 -0.1075  0.3181 -0.1842
 1708TIP3    H126539   5.799   2.455  14.008  0.5547 -1.8499 -0.6968
 1708TIP3    H226540   5.662   2.503  13.966  0.4871  0.1379  1.5913
 1709TIP3   OH226541   1.055   3.004  15.385 -0.1223 -0.3072  0.1004
 1709TIP3    H126542   1.052   2.914  15.354  0.5505  0.0482 -1.0626
 1709TIP3    H226543   1.091   3.054  15.311 -0.5667  0.9280  0.6837
 1710TIP3   OH226544   1.620   5.938   4.475 -0.0182 -0.6778  0.4439
 1710TIP3    H126545   1.609   6.032   4.461 -1.8307 -1.0622 -1.1868
 1710TIP3    H226546   1.660   5.906   4.394  0.9162 -1.2933  1.1184
 1711TIP3   OH226547   5.515   3.019  15.641  0.5747 -0.2647 -0.6404
 1711TIP3    H126548   5.447   2.991  15.701  1.9219 -2.4083  0.0058
 1711TIP3    H226549   5.563   3.087  15.689 -0.1246  0.1218 -0.4783
 1712TIP3   OH226550   2.184   5.956   6.753  0.9624 -0.0688  0.2707
 1712TIP3    H126551   2.210   6.028   6.695  1.0233 -0.0106  0.3708
 1712TIP3    H226552   2.266   5.920   6.785  0.9642 -0.7122 -0.4195
 1713TIP3   OH226553   3.379   4.921  14.446 -0.4119 -0.3675 -0.4007
 1713TIP3    H126554   3.426   4.915  14.362 -1.1352  0.3419 -0.8772
 1713TIP3    H226555   3.313   4.852  14.442 -0.5661 -0.2164 -0.5031
 1714TIP3   OH226556   0.905   1.803   4.433 -0.0250 -0.5391  0.0504
 1714TIP3    H126557   0.892   1.763   4.347 -0.1105 -1.2714  0.3926
 1714TIP3    H226558   0.914   1.896   4.415 -1.1904 -0.5411 -0.6358
 1715TIP3   OH226559   1.593   3.347   1.957  0.1110  0.0367 -0.0910
 1715TIP3    H126560   1.608   3.438   1.934  0.0115  0.3627  1.0530
 1715TIP3    H226561   1.603   3.299   1.875 -0.0310  1.0939 -0.7442
 1716TIP3   OH226562   2.900   5.538  13.176 -0.2697 -0.4790 -0.7528
 1716TIP3    H126563   2.874   5.479  13.247 -1.5079 -0.0975 -0.8613
 1716TIP3    H226564   2.983   5.503  13.144 -0.1824 -1.2120  0.2517
 1717TIP3   OH226565   6.588   4.669   3.061 -0.2129 -0.2787 -0.6029
 1717TIP3    H126566   6.505   4.716   3.066 -0.3727 -0.6267  0.1349
 1717TIP3    H226567   6.649   4.732   3.023 -0.5198  0.3899 -0.0097
 1718TIP3   OH226568   2.268   3.156   0.033 -0.0181 -0.0878  0.0678
 1718TIP3    H126569   2.321   3.112  -0.034  1.3128  0.5727  0.6356
 1718TIP3    H226570   2.270   3.249   0.007 -0.9422 -0.0524  0.0892
 1719TIP3   OH226571   1.939   6.588   2.414 -0.2036 -0.3958  0.0850
 1719TIP3    H126572   1.863   6.560   2.362 -1.8705  0.2164  2.0874
 1719TIP3    H226573   1.919   6.678   2.439  1.7763  0.1947 -0.3103
 1720TIP3   OH226574   0.286   6.728  14.126 -0.0175 -0.6196  0.4048
 1720TIP3    H126575   0.252   6.641  14.148 -1.2354 -0.0066  1.0565
 1720TIP3    H226576   0.210   6.786  14.133  0.6459  0.4138 -0.5900
 1721TIP3   OH226577   2.075   6.490   5.613  0.1954  0.4488  0.0455
 1721TIP3    H126578   2.040   6.475   5.525  3.6034 -2.4997 -1.0605
 1721TIP3    H226579   2.004   6.466   5.672 -0.3491 -3.9353 -2.0039
 1722TIP3   OH226580   4.550   2.021   5.534  0.0053  0.1199 -0.0469
 1722TIP3    H126581   4.546   2.078   5.457  0.5469  0.5795  0.2520
 1722TIP3    H226582   4.615   2.063   5.591 -1.3955  0.5909  1.3021
 1723TIP3   OH226583   5.197   0.045  11.764  0.5054  0.2446 -0.3405
 1723TIP3    H126584   5.272   0.090  11.724  0.0945  0.9910 -0.2788
 1723TIP3    H226585   5.195  -0.041  11.721  1.2398  0.3175 -0.5284
 1724TIP3   OH226586   1.828   0.191  14.627  0.1641  0.3509  0.6704
 1724TIP3    H126587   1.794   0.108  14.594 -0.7949  0.6227  0.9611
 1724TIP3    H226588   1.767   0.257  14.595  0.2724  0.8215  1.4080
 1725TIP3   OH226589   1.479   6.098   3.833  0.0934 -0.3578 -0.6102
 1725TIP3    H126590   1.503   6.074   3.743 -1.2360 -0.8031 -0.8609
 1725TIP3    H226591   1.544   6.053   3.887 -0.5200 -2.0683 -1.2359
 1726TIP3   OH226592   5.291   4.958  12.463 -0.3601 -0.1895 -0.0471
 1726TIP3    H126593   5.323   4.902  12.393 -0.1045 -0.0871 -0.0151
 1726TIP3    H226594   5.229   5.017  12.420 -0.1350 -0.0666 -0.2023
 1727TIP3   OH226595   3.902   6.035  15.800 -0.1373 -0.2116 -0.2702
 1727TIP3    H126596   3.966   6.084  15.852 -0.9790  1.5745 -0.8525
 1727TIP3    H226597   3.944   6.023  15.715 -0.2177  0.1541 -0.3624
 1728TIP3   OH226598   0.293   1.735  12.379  0.3693 -0.1402  0.0064
 1728TIP3    H126599   0.335   1.669  12.324 -0.1988  1.6409 -2.8153
 1728TIP3    H226600   0.209   1.696  12.404  0.8397 -1.1797  0.0232
 1729TIP3   OH226601   6.742   1.602   4.529 -0.1772 -0.0521  0.2699
 1729TIP3    H126602   6.825   1.584   4.574 -0.0572 -1.2173 -0.3793
 1729TIP3    H226603   6.675   1.577   4.592 -0.0131 -2.7319 -0.5148
 1730TIP3   OH226604   5.113   2.849   5.859  0.3561 -0.1099 -0.5768
 1730TIP3    H126605   5.199   2.862   5.819  0.6867  0.3141  0.2444
 1730TIP3    H226606   5.127   2.780   5.924 -0.1806 -0.8130 -1.1995
 1731TIP3   OH226607   5.909   1.156  14.322 -0.0587  0.1110 -0.3039
 1731TIP3    H126608   5.881   1.122  14.407  0.2478  1.1588  0.2346
 1731TIP3    H226609   5.976   1.221  14.343  0.3441  0.0754 -1.3815
 1732TIP3   OH226610   1.748   2.412  10.953  0.7617 -0.1854 -0.0015
 1732TIP3    H126611   1.715   2.459  11.030 -0.8438 -1.8936  0.4091
 1732TIP3    H226612   1.842   2.402  10.971  0.6659  0.5875  1.0900
 1733TIP3   OH226613   5.892   1.120   3.620  0.5706  0.1140 -0.0585
 1733TIP3    H126614   5.835   1.043   3.614 -1.5923  1.3472  2.3754
 1733TIP3    H226615   5.926   1.118   3.710  2.3079  0.8294 -0.6612
 1734TIP3   OH226616   3.039   6.049   1.467  0.3571  0.1442 -0.3320
 1734TIP3    H126617   2.955   6.063   1.510  0.3771 -1.7117  0.4278
 1734TIP3    H226618   3.019   5.990   1.394  0.8860  0.3010 -0.6065
 1735TIP3   OH226619   5.428   2.541  16.302  0.2649  0.0520  0.0995
 1735TIP3    H126620   5.520   2.520  16.319  0.2672  0.7003  0.9920
 1735TIP3    H226621   5.414   2.625  16.346 -0.3961  0.6739 -1.2317
 1736TIP3   OH226622   3.750   5.043   0.588 -0.1367 -0.0104 -0.9017
 1736TIP3    H126623   3.760   4.949   0.577 -0.7645 -0.0132 -1.4978
 1736TIP3    H226624   3.774   5.081   0.503 -0.6951  0.3027 -0.9250
 1737TIP3   OH226625   4.130   0.414   3.261 -0.1920 -0.0583 -0.3055
 1737TIP3    H126626   4.158   0.458   3.341 -0.4602  0.5246 -0.5257
 1737TIP3    H226627   4.046   0.454   3.239  0.5297  0.8285 -1.6477
 1738TIP3   OH226628   1.219   4.762   3.486 -0.6171 -0.0891  0.3498
 1738TIP3    H126629   1.312   4.756   3.507 -0.3702 -2.0358 -0.9711
 1738TIP3    H226630   1.180   4.806   3.561  1.4358  1.3690  0.6557
 1739TIP3   OH226631   1.499   5.214   6.311 -0.3461 -0.6959 -0.3693
 1739TIP3    H126632   1.429   5.185   6.370 -0.2573 -0.1129  0.0328
 1739TIP3    H226633   1.577   5.217   6.366 -0.0349 -1.1556 -0.7704
 1740TIP3   OH226634   5.895   5.845  11.761 -0.0732  0.4422 -0.2106
 1740TIP3    H126635   5.887   5.802  11.846 -3.4932 -1.0384 -1.1084
 1740TIP3    H226636   5.912   5.773  11.700 -0.7466  1.0239 -1.1227
 1741TIP3   OH226637   2.658   4.147  16.957  0.6412 -0.6301 -0.1515
 1741TIP3    H126638   2.604   4.195  17.020 -0.0167  0.5625 -1.5569
 1741TIP3    H226639   2.599   4.081  16.921  1.4816 -2.4673  1.6081
 1742TIP3   OH226640   4.340   3.086   4.766 -0.0156 -0.2343  0.0380
 1742TIP3    H126641   4.350   3.178   4.788 -2.8164  0.0922  0.1996
 1742TIP3    H226642   4.400   3.073   4.692 -0.0910  1.8963 -0.4593
 1743TIP3   OH226643   6.485   2.487  11.496  0.0946 -0.1845  0.6838
 1743TIP3    H126644   6.492   2.438  11.414  0.4477 -1.5415  1.5028
 1743TIP3    H226645   6.462   2.576  11.468 -0.2018 -0.7093 -0.8590
 1744TIP3   OH226646   0.995   5.932  11.257  0.5269 -0.3675  0.2102
 1744TIP3    H126647   0.980   5.878  11.179  0.8551 -0.6651  0.3535
 1744TIP3    H226648   0.975   6.021  11.227  2.3434 -0.2176 -0.7454
 1745TIP3   OH226649   1.478   0.642   4.763 -0.1976 -0.4256  0.3667
 1745TIP3    H126650   1.400   0.697   4.756  0.5171  0.5352 -0.3013
 1745TIP3    H226651   1.523   0.655   4.680  0.5455 -1.1717  0.6477
 1746TIP3   OH226652   2.103   2.133  16.171 -0.2097 -0.2676  0.2362
 1746TIP3    H126653   2.033   2.175  16.122  0.4050  0.5380  0.0333
 1746TIP3    H226654   2.077   2.041  16.175 -1.7385  0.1571  0.9713
 1747TIP3   OH226655   6.067   2.772  13.147  0.3985 -0.0481  0.1927
 1747TIP3    H126656   6.025   2.830  13.211  0.6550  1.2436 -0.7561
 1747TIP3    H226657   6.034   2.803  13.063 -0.1928 -1.9206 -0.3186
 1748TIP3   OH226658   3.209   2.361  14.042 -0.0387  0.3407  0.6347
 1748TIP3    H126659   3.162   2.433  13.998  1.8316  1.2552  0.0345
 1748TIP3    H226660   3.267   2.326  13.974 -1.4792 -2.3378  0.6840
 1749TIP3   OH226661   2.902   3.180  14.779 -0.4099 -0.1350 -0.0276
 1749TIP3    H126662   2.970   3.121  14.746  0.1471  1.6735 -2.3299
 1749TIP3    H226663   2.880   3.236  14.705  0.6498  4.0138  2.4856
 1750TIP3   OH226664   2.998   2.889  14.969 -0.1587 -0.2877  0.2049
 1750TIP3    H126665   3.014   2.967  15.022  1.3593 -1.6877  1.9555
 1750TIP3    H226666   3.085   2.852  14.953 -0.4830  0.1139 -3.5267
 1751TIP3   OH226667   1.487   0.628   3.108  0.0248 -0.9270 -0.2260
 1751TIP3    H126668   1.577   0.604   3.129  0.9206  1.2934 -1.2151
 1751TIP3    H226669   1.485   0.635   3.013 -0.0081  2.8902 -0.0843
 1752TIP3   OH226670   0.392   0.089  12.412  0.8475  0.3599  0.4354
 1752TIP3    H126671   0.438   0.030  12.353  1.8208  2.1474 -0.7111
 1752TIP3    H226672   0.453   0.104  12.484 -0.4333 -2.0102  2.1591
 1753TIP3   OH226673   4.333   4.125   4.952  0.1589 -0.0480 -0.1768
 1753TIP3    H126674   4.415   4.076   4.941 -1.3814 -2.6889 -1.0303
 1753TIP3    H226675   4.323   4.172   4.869  0.2144 -0.7507 -0.5969
 1754TIP3   OH226676   4.988   1.096  11.680  1.0152 -0.3414  0.0660
 1754TIP3    H126677   5.031   1.083  11.764 -1.2447  0.8515  1.4949
 1754TIP3    H226678   5.022   1.179  11.648  0.2706  0.3084  0.9072
 1755TIP3   OH226679   3.032   3.472   0.462 -0.4185  0.1606 -0.1885
 1755TIP3    H126680   3.124   3.453   0.480 -0.8189  0.3718  2.4504
 1755TIP3    H226681   3.014   3.553   0.511 -2.1393 -0.1496 -0.2293
 1756TIP3   OH226682   3.638   2.184  13.275  0.0401  0.2263 -0.0650
 1756TIP3    H126683   3.560   2.143  13.239 -0.1769 -0.1090  0.7637
 1756TIP3    H226684   3.707   2.120  13.262 -0.8823 -1.9786  4.0797
 1757TIP3   OH226685   0.342   5.367  12.230 -0.3302  0.0880 -0.1824
 1757TIP3    H126686   0.267   5.396  12.178 -1.2438 -1.0501  0.4774
 1757TIP3    H226687   0.316   5.382  12.321  0.1730 -0.4926  0.0596
 1758TIP3   OH226688   3.368   1.979   0.709 -0.1084 -0.2274  0.0777
 1758TIP3    H126689   3.336   1.903   0.661 -0.7304  1.1078 -1.7028
 1758TIP3    H226690   3.330   2.054   0.665  1.7483  1.2183  0.7930
 1759TIP3   OH226691   3.534   1.902  11.737  0.3812 -0.1396  0.7088
 1759TIP3    H126692   3.537   1.806  11.729 -0.7723 -0.2530  1.3457
 1759TIP3    H226693   3.449   1.926  11.699  1.4007  0.8307 -1.0649
 1760TIP3   OH226694   2.014   1.592   5.652 -0.4708 -0.7710 -0.4193
 1760TIP3    H126695   1.950   1.540   5.701 -0.2599 -0.7748 -0.1447
 1760TIP3    H226696   2.048   1.654   5.716  0.0804 -1.0252 -0.4646
 1761TIP3   OH226697   2.432   6.143   0.255  0.0770 -0.6193  0.1917
 1761TIP3    H126698   2.414   6.218   0.312  1.6543  0.2304 -0.3747
 1761TIP3    H226699   2.488   6.178   0.186  1.1835 -2.4007  0.1243
 1762TIP3   OH226700   1.431   5.544  16.200 -0.3983 -0.1286 -0.0466
 1762TIP3    H126701   1.499   5.487  16.235 -0.6840 -0.5020 -0.0966
 1762TIP3    H226702   1.354   5.525  16.253  0.1663  2.1709  1.7758
 1763TIP3   OH226703   6.540   0.829  16.415  0.0977  0.2123 -0.6174
 1763TIP3    H126704   6.531   0.919  16.384  0.7697  0.5631  0.1838
 1763TIP3    H226705   6.500   0.829  16.502 -1.0019 -0.5674 -1.0874
 1764TIP3   OH226706   0.188   5.451  15.560 -0.9101  0.5173 -0.2040
 1764TIP3    H126707   0.230   5.526  15.518 -0.5290  0.4414  0.0275
 1764TIP3    H226708   0.261   5.403  15.600 -1.1770  0.1497 -0.1560
 1765TIP3   OH226709   6.637   2.128  13.333  0.6242  0.7273  1.1036
 1765TIP3    H126710   6.595   2.042  13.344  0.4279  1.0845  3.8287
 1765TIP3    H226711   6.722   2.107  13.293 -0.3607 -0.4368 -0.5171
 1766TIP3   OH226712   2.928   4.351  14.567  0.3460  0.2618  0.3252
 1766TIP3    H126713   2.878   4.428  14.542 -2.4131 -1.0198  1.5514
 1766TIP3    H226714   2.961   4.316  14.484 -1.2247  0.9106 -0.6102
 1767TIP3   OH226715   6.020   3.938  16.702 -0.5232 -0.6314 -0.0723
 1767TIP3    H126716   6.060   3.864  16.657  1.5127  0.8139 -0.8082
 1767TIP3    H226717   5.972   3.985  16.634 -1.2702 -0.8965  0.2575
 1768TIP3   OH226718   5.394   3.823  10.939  0.2309  0.3941 -0.3355
 1768TIP3    H126719   5.361   3.910  10.962  1.2039  0.5089  0.7053
 1768TIP3    H226720   5.471   3.841  10.884 -0.1758  0.1682 -0.9839
 1769TIP3   OH226721   3.476   1.629  11.705 -0.0714 -0.0481 -0.1038
 1769TIP3    H126722   3.512   1.547  11.671 -2.0980 -1.0362  0.0255
 1769TIP3    H226723   3.470   1.615  11.800 -1.3356 -0.1410 -0.1882
 1770TIP3   OH226724   3.470   2.352  12.179  0.2309  0.4598 -0.5410
 1770TIP3    H126725   3.541   2.414  12.194 -0.9545  1.3157  2.3743
 1770TIP3    H226726   3.508   2.266  12.198  0.6974  0.8284  0.2218
 1771TIP3   OH226727   3.257   4.306   1.721 -0.1735 -0.2206 -0.2044
 1771TIP3    H126728   3.193   4.338   1.785  2.5708  0.9544  2.2140
 1771TIP3    H226729   3.234   4.351   1.640 -2.7609 -0.3953  0.3534
 1772TIP3   OH226730   1.153   2.660  15.522 -0.6896 -0.0299 -0.0832
 1772TIP3    H126731   1.096   2.715  15.468 -0.8851  1.6243  1.7146
 1772TIP3    H226732   1.238   2.706  15.522 -0.6629 -0.0660  0.9037
 1773TIP3   OH226733   3.919   0.900   2.892 -0.3613 -0.3345 -0.1723
 1773TIP3    H126734   3.997   0.956   2.891  0.2752 -1.1989 -1.2317
 1773TIP3    H226735   3.868   0.929   2.816 -1.4856  0.7413  0.9457
 1774TIP3   OH226736   4.578   1.582   2.352 -0.7196  0.3299  0.2579
 1774TIP3    H126737   4.595   1.520   2.422 -2.7223 -0.3854  0.1677
 1774TIP3    H226738   4.611   1.540   2.273 -0.8690 -0.0367  0.3917
 1775TIP3   OH226739   1.170   3.854   0.038 -0.0862 -0.6844  0.0780
 1775TIP3    H126740   1.168   3.869  -0.056  1.3272  1.5035  0.3206
 1775TIP3    H226741   1.197   3.762   0.047 -0.8572 -1.1129 -1.6116
 1776TIP3   OH226742   5.260   3.059  15.288 -0.4504  0.6489  0.1328
 1776TIP3    H126743   5.294   3.139  15.248 -0.4653  0.5932  0.0093
 1776TIP3    H226744   5.174   3.083  15.322 -0.1970  0.8515  0.6441
 1777TIP3   OH226745   1.676   6.732   4.748  0.4235 -0.2177  0.2257
 1777TIP3    H126746   1.634   6.729   4.661 -0.5029 -1.0883  0.6806
 1777TIP3    H226747   1.743   6.665   4.744  0.0126 -0.6441  0.3502
 1778TIP3   OH226748   3.671   5.721  10.883  0.0961 -0.2735 -0.4229
 1778TIP3    H126749   3.602   5.664  10.850  0.5804 -0.8220 -0.5104
 1778TIP3    H226750   3.740   5.661  10.912  1.3161  0.2722 -2.0300
 1779TIP3   OH226751   2.306   4.826   2.545  0.2997  0.3426  0.3113
 1779TIP3    H126752   2.356   4.899   2.509  0.3420 -0.9834 -2.5515
 1779TIP3    H226753   2.236   4.810   2.481 -0.8125 -1.0061  1.7670
 1780TIP3   OH226754   2.244   6.314   6.802 -0.3312 -0.4095  0.3726
 1780TIP3    H126755   2.169   6.323   6.860 -0.7528  2.2318 -0.4436
 1780TIP3    H226756   2.212   6.340   6.716  1.7791  2.4702  0.2949
 1781TIP3   OH226757   2.808   1.058   5.662 -0.5112  0.0300 -0.6931
 1781TIP3    H126758   2.738   1.039   5.725 -0.0440 -0.4636 -0.3158
 1781TIP3    H226759   2.762   1.093   5.586 -1.0463  1.3237  0.1752
 1782TIP3   OH226760   0.673   0.733  14.874  0.0993 -0.6615  0.3317
 1782TIP3    H126761   0.581   0.737  14.901 -0.2676 -3.2739 -0.2211
 1782TIP3    H226762   0.713   0.673  14.937  0.4082 -2.7930 -1.7486
 1783TIP3   OH226763   5.554   5.574  14.812 -0.1271 -0.8813 -0.3770
 1783TIP3    H126764   5.489   5.644  14.805 -0.2836 -1.0586 -0.6890
 1783TIP3    H226765   5.583   5.578  14.903 -0.7132 -0.9213 -0.1813
 1784TIP3   OH226766   2.896   1.699   3.945 -0.6988 -0.0080  0.4506
 1784TIP3    H126767   2.982   1.730   3.973 -0.2343 -0.2104 -0.7129
 1784TIP3    H226768   2.909   1.607   3.923 -1.3960 -0.2484  0.9969
 1785TIP3   OH226769   3.866   4.387  14.257  0.1527  0.2866 -0.6052
 1785TIP3    H126770   3.886   4.434  14.338 -1.1638 -0.1386 -0.0064
 1785TIP3    H226771   3.951   4.373  14.216  1.1487 -1.5479  1.8471
 1786TIP3   OH226772   3.757   2.552  14.988 -0.3359  0.1880 -0.0413
 1786TIP3    H126773   3.812   2.547  15.066 -0.6959  0.0545  0.2074
 1786TIP3    H226774   3.742   2.646  14.975 -1.1146  0.1713  0.6525
 1787TIP3   OH226775   4.222   4.464   4.457  0.1334  0.4319 -0.0207
 1787TIP3    H126776   4.182   4.510   4.530  0.1449 -2.0999  1.7237
 1787TIP3    H226777   4.316   4.474   4.471  0.1333  0.2173  0.1416
 1788TIP3   OH226778   6.605   4.362   4.985  0.1766 -0.0939  0.0871
 1788TIP3    H126779   6.575   4.442   4.944 -0.3383  0.6903  1.8955
 1788TIP3    H226780   6.663   4.391   5.055  0.3370 -1.3158  0.4943
 1789TIP3   OH226781   3.220   5.015   1.421  0.3157 -0.0893 -0.0000
 1789TIP3    H126782   3.280   4.995   1.493  1.5013  2.6370 -0.1095
 1789TIP3    H226783   3.159   5.080   1.458  1.6354  2.2231 -1.6376
 1790TIP3   OH226784   0.528   2.973  11.038  0.2140  0.6380 -0.3648
 1790TIP3    H126785   0.537   2.964  10.943  0.5598 -0.0959 -0.2679
 1790TIP3    H226786   0.507   2.885  11.069  1.8615  0.4844  0.4126
 1791TIP3   OH226787   6.631   2.457   5.770  0.2072 -0.3587  0.2224
 1791TIP3    H126788   6.612   2.381   5.825 -0.1220  0.4207  1.2018
 1791TIP3    H226789   6.553   2.511   5.775  1.5889  1.6215  2.1767
 1792TIP3   OH226790   4.083   0.345   6.146 -0.8690  0.0775 -0.1429
 1792TIP3    H126791   4.073   0.258   6.107 -1.8596 -0.3667  1.0551
 1792TIP3    H226792   4.054   0.334   6.236  2.5648  0.7561  1.1984
 1793TIP3   OH226793   3.226   4.827  12.649 -0.6812 -0.3999  0.5524
 1793TIP3    H126794   3.292   4.760  12.633 -0.3970  0.1706 -0.8722
 1793TIP3    H226795   3.196   4.853  12.562 -1.2036  0.9044  1.0819
 1794TIP3   OH226796   2.453   4.806   0.416 -0.4013  0.1478 -0.2598
 1794TIP3    H126797   2.469   4.726   0.465  1.0822  0.5947  0.0638
 1794TIP3    H226798   2.485   4.786   0.328 -1.1159  0.0140 -0.4897
 1795TIP3   OH226799   3.269   1.611  17.400 -0.1708  0.5374  0.5955
 1795TIP3    H126800   3.341   1.547  17.399  0.5246  1.3186  0.3631
 1795TIP3    H226801   3.237   1.608  17.491 -2.0357 -2.1845 -0.0094
 1796TIP3   OH226802   5.836   4.649   4.032 -0.4493 -0.1662  0.4229
 1796TIP3    H126803   5.924   4.649   4.070 -1.1454 -1.6252  2.1377
 1796TIP3    H226804   5.850   4.678   3.941  2.0457 -2.0289  0.1125
 1797TIP3   OH226805   1.538   4.770  14.712 -0.4883  0.1979 -0.3777
 1797TIP3    H126806   1.556   4.848  14.659 -1.1870 -0.3396 -1.4346
 1797TIP3    H226807   1.584   4.699  14.667 -2.1595 -0.5118 -1.0369
 1798TIP3   OH226808   2.858   4.347   6.414 -0.1965 -0.0860  0.2716
 1798TIP3    H126809   2.851   4.438   6.443 -0.7406  0.2033 -0.7464
 1798TIP3    H226810   2.950   4.337   6.390  0.1827 -0.2198  1.6534
 1799TIP3   OH226811   3.620   4.925   3.521  0.2924 -0.3000  0.5930
 1799TIP3    H126812   3.632   4.842   3.475  0.9056  0.1244 -0.0314
 1799TIP3    H226813   3.595   4.899   3.610 -0.9642 -1.1368  0.0345
 1800TIP3   OH226814   2.078   1.281   5.170  0.5395  0.0841  0.4767
 1800TIP3    H126815   2.067   1.340   5.245  1.2510  0.1089  0.5668
 1800TIP3    H226816   2.155   1.315   5.124  1.2911 -1.0922  0.8330
 1801TIP3   OH226817   2.208   1.404   3.172  0.1234  0.8392 -0.0463
 1801TIP3    H126818   2.125   1.401   3.124 -0.1565 -0.1783  0.4746
 1801TIP3    H226819   2.231   1.312   3.185  2.5713  1.0049 -2.2405
 1802TIP3   OH226820   5.372   5.909  14.583 -0.1513 -0.0153  0.3923
 1802TIP3    H126821   5.376   5.992  14.536  0.7238 -0.6545 -0.7193
 1802TIP3    H226822   5.351   5.844  14.515  0.8616 -0.9247  0.9264
 1803TIP3   OH226823   1.981   1.333  12.491 -0.1379  0.7843  0.5379
 1803TIP3    H126824   2.019   1.318  12.404 -0.2076  1.0534  0.4618
 1803TIP3    H226825   1.888   1.313  12.480  0.0527 -0.3237  0.8357
 1804TIP3   OH226826   6.175   1.626   1.747 -0.0017  0.2462 -0.9790
 1804TIP3    H126827   6.116   1.681   1.798 -0.2108 -1.6591  0.9931
 1804TIP3    H226828   6.253   1.617   1.801 -0.2036 -1.8037 -0.9207
 1805TIP3   OH226829   1.575   2.481   3.998  0.2293  0.1476 -0.1572
 1805TIP3    H126830   1.596   2.533   4.075  0.8016  1.0874 -0.9189
 1805TIP3    H226831   1.521   2.409   4.031  1.2705 -0.0193  1.2528
 1806TIP3   OH226832   6.516   1.472  17.297 -0.1599  0.0964  0.2845
 1806TIP3    H126833   6.432   1.517  17.290  0.7623  1.7946 -0.4182
 1806TIP3    H226834   6.579   1.532  17.257  1.1738 -1.7742 -0.5637
 1807TIP3   OH226835   1.186   4.915   5.359 -0.3375  0.5985 -0.0987
 1807TIP3    H126836   1.206   4.961   5.277  2.3170  0.6617  0.4932
 1807TIP3    H226837   1.193   4.822   5.336  0.8377  0.6202  0.1093
 1808TIP3   OH226838   3.410   6.467   4.197  0.2910 -0.0759 -0.6451
 1808TIP3    H126839   3.436   6.388   4.245 -0.3734 -0.3193 -0.6872
 1808TIP3    H226840   3.318   6.479   4.217 -0.0914 -0.3554 -2.0883
 1809TIP3   OH226841   2.285   0.095  13.147 -0.2872  0.6446 -0.1546
 1809TIP3    H126842   2.324   0.169  13.100  1.9584  0.5477  1.4040
 1809TIP3    H226843   2.221   0.135  13.206 -0.5660  1.1166 -0.7702
 1810TIP3   OH226844   3.848   1.362  15.603 -0.1203  0.8831  0.2090
 1810TIP3    H126845   3.941   1.356  15.581 -0.5032 -1.1245 -1.0954
 1810TIP3    H226846   3.846   1.357  15.699  1.0860 -0.2018  0.2062
 1811TIP3   OH226847   1.331   4.519   3.133  0.6601  0.0677  0.5740
 1811TIP3    H126848   1.320   4.426   3.115  0.3608  0.3805 -1.0982
 1811TIP3    H226849   1.405   4.524   3.193  0.1272 -1.2820  1.3889
 1812TIP3   OH226850   4.147   4.070   0.294 -0.0923 -0.6511  0.3118
 1812TIP3    H126851   4.217   4.133   0.308  1.2281 -2.1876  0.8785
 1812TIP3    H226852   4.093   4.110   0.225  2.2125 -0.1120 -1.3073
 1813TIP3   OH226853   1.972   4.833  16.361  0.1380 -0.2565  0.7192
 1813TIP3    H126854   1.919   4.787  16.296 -0.3842  1.7198 -0.3554
 1813TIP3    H226855   1.917   4.836  16.439 -0.2366 -0.5328  0.4696
 1814TIP3   OH226856   2.349   4.902  12.275 -0.4419  0.3601 -0.4932
 1814TIP3    H126857   2.315   4.983  12.311 -1.0158  0.4472 -1.2119
 1814TIP3    H226858   2.389   4.857  12.350  1.0308  1.8752 -0.3174
 1815TIP3   OH226859   5.742   5.725   3.091  0.6197 -0.3866 -0.3242
 1815TIP3    H126860   5.755   5.659   3.159 -0.2562 -1.1373 -0.8536
 1815TIP3    H226861   5.796   5.695   3.018 -0.1263 -0.7880 -0.7284
 1816TIP3   OH226862   3.236   3.035  16.005  0.6252  0.2734 -0.1166
 1816TIP3    H126863   3.223   3.104  16.070  0.0329  0.4623 -0.4282
 1816TIP3    H226864   3.309   3.066  15.950  0.7065  0.4049  0.0670
 1817TIP3   OH226865   5.740   1.350   5.037 -0.3582  0.5594  0.3893
 1817TIP3    H126866   5.797   1.282   5.073 -1.6900 -0.5436  0.5259
 1817TIP3    H226867   5.663   1.349   5.094 -0.1561  2.6333  0.7472
 1818TIP3   OH226868   5.646   1.756   4.053 -0.1060  0.2848 -0.2361
 1818TIP3    H126869   5.705   1.718   4.118 -0.9448  0.1830  0.4925
 1818TIP3    H226870   5.649   1.850   4.070 -0.7299  0.2120  0.3173
 1819TIP3   OH226871   5.365   0.860  11.724 -0.0530  0.4728  0.0106
 1819TIP3    H126872   5.402   0.794  11.665 -1.0981 -1.1800  1.1217
 1819TIP3    H226873   5.435   0.878  11.787 -0.0320 -0.2364  0.2051
 1820TIP3   OH226874   0.794   4.694  14.102 -0.2027  0.1533  0.6353
 1820TIP3    H126875   0.759   4.612  14.069 -2.0301  0.9458  0.4906
 1820TIP3    H226876   0.880   4.671  14.138 -0.8989 -1.9143  1.0981
 1821TIP3   OH226877   3.505   1.105   4.799  0.1825  0.2768 -0.5626
 1821TIP3    H126878   3.466   1.021   4.822  0.7499  0.1987  0.1602
 1821TIP3    H226879   3.458   1.169   4.852  0.1315  0.3495 -0.6940
 1822TIP3   OH226880   5.138   3.431   0.224 -0.0179  0.0264 -0.1305
 1822TIP3    H126881   5.051   3.470   0.224  0.2862  0.8581 -2.1464
 1822TIP3    H226882   5.190   3.487   0.282 -0.9596 -0.9414  1.7218
 1823TIP3   OH226883   2.383   6.609  16.044 -0.4062  0.6085 -0.2718
 1823TIP3    H126884   2.396   6.625  15.951 -2.1177  0.5245 -0.5731
 1823TIP3    H226885   2.364   6.696  16.080 -0.8751  0.4938 -0.2331
 1824TIP3   OH226886   3.325   4.976   3.315  0.0742 -0.0632  0.2931
 1824TIP3    H126887   3.278   4.940   3.390  1.3601 -1.0179  0.6937
 1824TIP3    H226888   3.349   5.065   3.342 -3.8507  1.5832 -1.0307
 1825TIP3   OH226889   3.104   5.656  14.076  0.6587  0.1426 -0.2307
 1825TIP3    H126890   3.162   5.732  14.069 -0.8020  1.7199  2.9561
 1825TIP3    H226891   3.086   5.648  14.170 -2.0183 -2.0121 -0.8056
 1826TIP3   OH226892   1.445   1.714   3.587  0.3828 -0.1215 -0.1304
 1826TIP3    H126893   1.363   1.684   3.549  0.6829 -1.5884  0.3257
 1826TIP3    H226894   1.460   1.800   3.547 -0.7758 -0.3391 -1.0859
 1827TIP3   OH226895   5.871   1.728   0.097  0.7082 -0.4290 -0.5691
 1827TIP3    H126896   5.867   1.789   0.170 -1.7836 -0.5106 -0.5343
 1827TIP3    H226897   5.916   1.651   0.132  1.5499  0.3949  0.1736
 1828TIP3   OH226898   6.523   6.179  14.512  0.4513 -0.5012 -0.1644
 1828TIP3    H126899   6.452   6.122  14.542  0.6465 -0.6036  0.1115
 1828TIP3    H226900   6.507   6.192  14.419  0.0362 -0.4734 -0.0886
 1829TIP3   OH226901   0.401   4.541  12.681 -0.1408  0.0550  0.0324
 1829TIP3    H126902   0.483   4.505  12.715 -0.0291  0.0433 -0.2494
 1829TIP3    H226903   0.359   4.467  12.638 -0.5094 -0.0494  0.5566
 1830TIP3   OH226904   0.989   5.608   2.241  0.7859 -0.8575 -0.1134
 1830TIP3    H126905   0.937   5.646   2.312  2.9718 -0.0694  1.1480
 1830TIP3    H226906   0.933   5.539   2.205 -1.5274  0.5927  0.4567
 1831TIP3   OH226907   0.102   3.748   0.507 -0.2851 -0.3473  0.1541
 1831TIP3    H126908   0.057   3.830   0.525  0.6998  0.0017  1.1657
 1831TIP3    H226909   0.116   3.708   0.593  1.9523 -0.0632 -0.0089
 1832TIP3   OH226910   3.413   4.492  13.223  0.5605 -0.0534  0.3916
 1832TIP3    H126911   3.451   4.563  13.170  0.9720 -1.5234 -1.3977
 1832TIP3    H226912   3.401   4.421  13.161 -2.3535 -0.6864  1.5441
 1833TIP3   OH226913   1.950   4.061  15.492 -0.2804 -0.1161  0.1094
 1833TIP3    H126914   1.978   3.973  15.467 -1.2907 -1.0942  2.1953
 1833TIP3    H226915   1.856   4.053  15.510 -0.6867  1.7121 -0.9430
 1834TIP3   OH226916   4.579   2.080   3.222  0.1421 -0.1631 -0.2167
 1834TIP3    H126917   4.556   1.993   3.190 -1.9420  0.4769 -0.6105
 1834TIP3    H226918   4.655   2.065   3.279  0.1230 -2.1492 -0.6315
 1835TIP3   OH226919   5.937   5.923  16.985 -0.3310 -0.0938 -0.1131
 1835TIP3    H126920   6.028   5.915  17.015 -0.0337 -1.3519 -1.2274
 1835TIP3    H226921   5.938   5.998  16.926  0.4149 -1.1291 -1.4751
 1836TIP3   OH226922   3.348   5.788  16.374 -0.0349  0.4813 -0.3574
 1836TIP3    H126923   3.400   5.853  16.327  2.2110  1.1259  2.7166
 1836TIP3    H226924   3.286   5.840  16.426  1.2103  0.2015  1.4819
 1837TIP3   OH226925   1.363   4.589   6.424  0.0371  0.1549  0.0222
 1837TIP3    H126926   1.412   4.634   6.492 -0.1555 -0.7480  0.7846
 1837TIP3    H226927   1.276   4.629   6.427  0.2625  0.6878 -0.2803
 1838TIP3   OH226928   3.702   3.976  17.318  0.1129  0.6878  0.0414
 1838TIP3    H126929   3.730   4.007  17.232 -0.7884  0.8020 -0.2258
 1838TIP3    H226930   3.620   4.023  17.334 -0.8766 -0.9290 -0.0265
 1839TIP3   OH226931   5.893   4.143  13.562 -0.1746  0.4256  0.3118
 1839TIP3    H126932   5.986   4.168  13.555 -0.2716  0.7217  0.0588
 1839TIP3    H226933   5.847   4.207  13.508 -0.5554  0.4424  0.6482
 1840TIP3   OH226934   1.496   6.254   5.643 -0.4870 -0.4743 -0.3042
 1840TIP3    H126935   1.575   6.255   5.589  0.7960  3.8889  1.2422
 1840TIP3    H226936   1.425   6.270   5.581  0.5791  1.1935 -1.1836
 1841TIP3   OH226937   4.989   3.678   5.978 -0.2263 -0.2969 -0.3016
 1841TIP3    H126938   5.025   3.726   6.053 -0.5318 -0.5784  0.0297
 1841TIP3    H226939   4.983   3.743   5.908 -0.3800  0.0858  0.0633
 1842TIP3   OH226940   2.750   5.046  14.974 -0.7367 -0.8220 -0.8746
 1842TIP3    H126941   2.820   5.099  14.938 -0.2895 -0.1140  0.9444
 1842TIP3    H226942   2.683   5.045  14.905  1.1430 -1.8247 -2.8047
 1843TIP3   OH226943   1.729   0.849   4.749 -0.0041  0.0056 -0.0185
 1843TIP3    H126944   1.711   0.819   4.660 -0.2382  0.7901 -0.2427
 1843TIP3    H226945   1.716   0.944   4.746  1.0367  0.1858  0.5984
 1844TIP3   OH226946   6.406   3.967  16.647  0.3981 -0.3137 -0.4035
 1844TIP3    H126947   6.410   3.874  16.670  3.7099 -0.2719 -0.3795
 1844TIP3    H226948   6.364   4.008  16.723 -0.2628 -1.6308 -0.0125
 1845TIP3   OH226949   3.580   2.372   3.913  0.0736 -0.7503 -0.3210
 1845TIP3    H126950   3.492   2.337   3.902 -0.5428  0.0936  1.4925
 1845TIP3    H226951   3.596   2.423   3.833 -1.5872  0.0834 -0.1668
 1846TIP3   OH226952   6.718   1.800   2.393 -0.2249 -0.5807  0.4688
 1846TIP3    H126953   6.762   1.853   2.326 -1.8742 -0.0918 -0.2680
 1846TIP3    H226954   6.683   1.725   2.345  0.8450 -1.6217  1.2648
 1847TIP3   OH226955   4.027   0.901   4.599  0.0232  0.4539  0.1483
 1847TIP3    H126956   4.110   0.928   4.638 -1.5738  2.1812  2.7213
 1847TIP3    H226957   3.994   0.832   4.656 -0.9355  0.7721  0.0059
 1848TIP3   OH226958   6.046   6.314   0.550 -0.3099  0.8158 -0.1104
 1848TIP3    H126959   6.105   6.374   0.595  0.8719  1.0743 -1.9035
 1848TIP3    H226960   6.094   6.286   0.472 -1.8450 -0.4416 -0.6748
 1849TIP3   OH226961   0.304   6.184  15.146  0.2624  0.0467 -0.2679
 1849TIP3    H126962   0.303   6.090  15.128 -1.4209  0.0188 -0.2323
 1849TIP3    H226963   0.354   6.223  15.074  2.0835 -0.9653  0.3981
 1850TIP3   OH226964   3.325   3.492  16.670 -0.0213 -0.5122 -0.2937
 1850TIP3    H126965   3.347   3.559  16.605  2.0895 -0.8969 -0.0380
 1850TIP3    H226966   3.261   3.436  16.625 -0.3354  0.5314 -1.2014
 1851TIP3   OH226967   3.725   2.145   1.687 -0.0965 -0.3607 -0.1140
 1851TIP3    H126968   3.744   2.191   1.768  0.2852 -0.4818 -0.1357
 1851TIP3    H226969   3.787   2.180   1.624  1.1105 -1.8396  0.1928
 1852TIP3   OH226970   2.682   5.648   3.907  0.4603 -0.6205  0.1772
 1852TIP3    H126971   2.627   5.709   3.955 -0.0823 -1.0153  0.0724
 1852TIP3    H226972   2.628   5.621   3.832  0.5591 -1.4767  0.4074
 1853TIP3   OH226973   0.741   0.278   5.095 -0.0709  0.2317 -0.1380
 1853TIP3    H126974   0.829   0.261   5.128  0.1401 -0.5227 -1.0147
 1853TIP3    H226975   0.749   0.360   5.046  0.1202  0.2356 -0.1003
 1854TIP3   OH226976   6.114   6.704  12.624  0.0707 -0.1821 -0.3319
 1854TIP3    H126977   6.119   6.612  12.601  1.1041 -0.2032 -0.0378
 1854TIP3    H226978   6.201   6.739  12.607 -0.4244  0.8477 -0.8710
 1855TIP3   OH226979   0.898   6.333   0.188  0.2315 -0.2938 -0.1378
 1855TIP3    H126980   0.849   6.290   0.118  0.1218 -3.8989  1.8728
 1855TIP3    H226981   0.983   6.353   0.148 -0.9781  1.1340 -2.1962
 1856TIP3   OH226982   1.943   0.783  14.901 -0.1739  0.0153  0.3217
 1856TIP3    H126983   1.911   0.695  14.879 -0.3142 -0.1184  1.0335
 1856TIP3    H226984   1.881   0.842  14.858 -1.0410 -0.2412  1.1846
 1857TIP3   OH226985   1.343   4.833  11.686  0.1221 -0.0479  0.6001
 1857TIP3    H126986   1.425   4.792  11.661 -0.9786 -2.3896  0.5434
 1857TIP3    H226987   1.300   4.854  11.603  0.0816 -0.0981  0.6079
 1858TIP3   OH226988   0.460   1.103  12.662  0.2287 -0.8404  0.0744
 1858TIP3    H126989   0.427   1.162  12.729  0.5102  0.1226 -0.6160
 1858TIP3    H226990   0.533   1.057  12.704  1.1835  0.6108  0.0978
 1859TIP3   OH226991   0.070   5.240   3.701 -0.2802 -0.0023 -0.1156
 1859TIP3    H126992   0.071   5.319   3.755  2.0526  0.0028 -0.0847
 1859TIP3    H226993   0.020   5.177   3.752 -1.6254  1.2322  0.1590
 1860TIP3   OH226994   4.905   3.211   0.058  0.5035  0.5904  0.7533
 1860TIP3    H126995   4.920   3.148   0.128 -0.5646  0.4682  0.8845
 1860TIP3    H226996   4.810   3.221   0.054  0.5984  1.3157 -0.0427
 1861TIP3   OH226997   2.631   1.500   0.541  0.1504  0.7280  0.4417
 1861TIP3    H126998   2.639   1.588   0.579 -0.2492  1.5944 -1.3977
 1861TIP3    H226999   2.545   1.500   0.500 -0.6103 -1.1735  1.9080
 1862TIP3   OH227000   5.640   2.350   1.471  0.1013 -0.0563  0.2292
 1862TIP3    H127001   5.726   2.390   1.464  0.2138 -0.4454 -0.6289
 1862TIP3    H227002   5.656   2.266   1.514  0.0015  0.3151  1.0268
 1863TIP3   OH227003   4.848   3.037   4.212 -0.1775 -0.5082 -0.0686
 1863TIP3    H127004   4.893   3.100   4.157 -0.8470  1.6713  1.7508
 1863TIP3    H227005   4.886   2.952   4.187  0.5556  0.5076 -2.7848
 1864TIP3   OH227006   5.526   3.748  15.189 -0.2964  0.0475  0.3089
 1864TIP3    H127007   5.501   3.768  15.099 -1.7024  2.0658  1.0725
 1864TIP3    H227008   5.456   3.691  15.222  0.4827 -1.1100 -0.0147
 1865TIP3   OH227009   4.077   1.717   2.636  0.2881 -0.4157  0.2925
 1865TIP3    H127010   4.155   1.664   2.622  0.1975 -0.7883  1.1526
 1865TIP3    H227011   4.094   1.799   2.589  1.5802 -0.1243  1.2246
 1866TIP3   OH227012   1.397   6.241   2.000  0.4092  0.0613 -0.0270
 1866TIP3    H127013   1.305   6.265   2.000  0.3078 -0.2944 -1.1132
 1866TIP3    H227014   1.421   6.234   1.907  0.9458 -2.0094  0.2130
 1867TIP3   OH227015   6.471   6.266   4.724 -0.7915  0.0592  0.6859
 1867TIP3    H127016   6.389   6.303   4.757 -1.6651 -0.1133 -1.1343
 1867TIP3    H227017   6.479   6.302   4.635  1.0584 -0.0301  0.7665
 1868TIP3   OH227018   4.523   2.636   2.691  0.3674  0.1992 -0.6986
 1868TIP3    H127019   4.587   2.634   2.762  0.2803  0.5069 -0.6124
 1868TIP3    H227020   4.576   2.643   2.611  0.4472  0.2768 -0.6385
 1869TIP3   OH227021   2.075   5.491   0.926  0.5181 -0.3021  0.1133
 1869TIP3    H127022   2.137   5.555   0.960  0.4092 -0.2389  0.1920
 1869TIP3    H227023   2.023   5.464   1.002 -0.7755  0.9944 -0.2666
 1870TIP3   OH227024   5.958   0.246  15.750 -0.3179 -0.4132  0.5504
 1870TIP3    H127025   5.953   0.222  15.658  2.4266  0.3424  0.1177
 1870TIP3    H227026   5.948   0.164  15.797  0.4181 -1.1555 -0.5441
 1871TIP3   OH227027   3.653   3.761   5.194  0.4499  0.6009  0.1062
 1871TIP3    H127028   3.696   3.846   5.192  1.1726  0.2351 -0.0290
 1871TIP3    H227029   3.690   3.713   5.120  1.3033 -0.4316  1.1586
 1872TIP3   OH227030   0.520   5.284  10.487  0.4511  0.2543  0.5806
 1872TIP3    H127031   0.462   5.216  10.520  1.9440 -1.3544  0.0233
 1872TIP3    H227032   0.607   5.260  10.519  1.3022  0.8867 -1.0926
 1873TIP3   OH227033   1.005   4.804  15.999  0.4276  0.3067  0.1353
 1873TIP3    H127034   1.038   4.752  16.072 -1.8905 -1.3913  0.0980
 1873TIP3    H227035   0.917   4.831  16.027 -0.2779  0.1327 -1.7470
 1874TIP3   OH227036   2.544   3.538  14.950  0.2457 -0.3961  0.8309
 1874TIP3    H127037   2.472   3.476  14.953 -0.9344  0.9352  1.6113
 1874TIP3    H227038   2.599   3.514  15.025 -0.2583 -0.4374  1.1932
 1875TIP3   OH227039   4.481   4.218  12.203  0.9752  0.0673 -0.0898
 1875TIP3    H127040   4.545   4.176  12.145 -1.2460  0.9760 -3.5366
 1875TIP3    H227041   4.466   4.304  12.164 -3.1043 -0.5177 -0.3070
 1876TIP3   OH227042   1.572   2.071  11.499  0.7080 -0.1105 -0.3307
 1876TIP3    H127043   1.575   2.166  11.495  2.1211 -0.0849  0.4997
 1876TIP3    H227044   1.615   2.049  11.582  0.1566 -1.4656 -0.3672
 1877TIP3   OH227045   0.837   5.085  16.110 -0.0268  0.2029 -0.2599
 1877TIP3    H127046   0.919   5.064  16.067  0.0518 -1.0402  0.4365
 1877TIP3    H227047   0.861   5.145  16.180  0.3208 -0.2370  0.0055
 1878TIP3   OH227048   0.062   3.187  13.088 -0.0421 -0.0059 -0.0149
 1878TIP3    H127049   0.048   3.093  13.080  0.2819 -0.1980  1.3958
 1878TIP3    H227050   0.110   3.197  13.170 -0.4584  1.4211  0.0822
 1879TIP3   OH227051   3.493   0.986   5.490 -0.2015 -0.5527 -0.0567
 1879TIP3    H127052   3.557   1.015   5.555 -0.2650  0.2922 -0.3541
 1879TIP3    H227053   3.431   1.059   5.483 -0.6093 -0.9350 -0.5284
 1880TIP3   OH227054   1.912   6.402   1.843 -0.5459 -0.1424  0.3303
 1880TIP3    H127055   1.991   6.447   1.814  1.5492 -2.3222  2.2391
 1880TIP3    H227056   1.890   6.344   1.771 -0.0024 -0.0190  0.0578
 1881TIP3   OH227057   5.525   5.998  15.113 -0.7067  0.1635 -0.2580
 1881TIP3    H127058   5.473   6.013  15.034 -0.3153  0.0022 -0.5501
 1881TIP3    H227059   5.603   5.951  15.082 -1.0799 -0.8984  0.3779
 1882TIP3   OH227060   6.157   4.984  16.422 -0.0852  0.2136  0.0678
 1882TIP3    H127061   6.133   5.057  16.480  0.6990 -0.3093  1.0966
 1882TIP3    H227062   6.091   4.984  16.354 -2.1454 -0.2723  1.9449
 1883TIP3   OH227063   6.666   4.113   5.588 -0.2644 -0.7122  0.2598
 1883TIP3    H127064   6.610   4.184   5.556 -0.4716 -0.9332  0.1288
 1883TIP3    H227065   6.635   4.098   5.678 -0.6268 -1.0469  0.0799
 1884TIP3   OH227066   1.182   5.202  12.397 -0.4862 -0.3856  0.7027
 1884TIP3    H127067   1.238   5.125  12.383  0.3537  0.3920 -0.4622
 1884TIP3    H227068   1.095   5.175  12.368  0.0948 -0.4989 -1.0507
 1885TIP3   OH227069   3.233   3.165   0.820 -0.2882 -0.0058 -0.1392
 1885TIP3    H127070   3.229   3.239   0.881  0.0091 -0.0898 -0.0168
 1885TIP3    H227071   3.204   3.090   0.872 -0.0203 -0.0800 -0.0950
 1886TIP3   OH227072   0.663   2.149   4.787  0.5324  0.1632  0.0669
 1886TIP3    H127073   0.722   2.129   4.713 -0.6473 -1.1639 -0.5598
 1886TIP3    H227074   0.619   2.229   4.761  0.0071 -0.3825 -0.7694
 1887TIP3   OH227075   1.047   3.187  14.879 -0.4482  0.2556 -0.2483
 1887TIP3    H127076   1.127   3.137  14.896  0.2774  1.7300  0.9459
 1887TIP3    H227077   0.979   3.120  14.870  0.3596 -0.9760  1.8563
 1888TIP3   OH227078   1.002   5.759  12.544 -0.2149 -0.4380  0.3231
 1888TIP3    H127079   0.978   5.671  12.514 -1.6947  0.4728 -1.3719
 1888TIP3    H227080   0.936   5.781  12.609 -1.4230  0.3505 -1.1080
 1889TIP3   OH227081   1.170   2.061   1.633  0.3145 -0.2898 -0.1236
 1889TIP3    H127082   1.256   2.099   1.615 -0.0622  1.5585  1.7083
 1889TIP3    H227083   1.109   2.114   1.582  0.0509 -0.2009  0.2780
 1890TIP3   OH227084   6.462   5.209   6.075 -0.0105  0.4156 -0.3904
 1890TIP3    H127085   6.401   5.247   6.138  1.0046 -0.2690  1.0870
 1890TIP3    H227086   6.504   5.284   6.033 -0.5676  0.8950 -0.1015
 1891TIP3   OH227087   5.645   0.479   0.018 -0.0519  0.0565 -0.0953
 1891TIP3    H127088   5.726   0.442   0.052 -0.9180 -1.5278  0.3281
 1891TIP3    H227089   5.593   0.501   0.096  0.2591  1.8238 -0.3414
 1892TIP3   OH227090   0.227   4.422  17.012  0.5370 -0.5081  0.3980
 1892TIP3    H127091   0.175   4.427  16.932  0.2296  1.4933  0.6552
 1892TIP3    H227092   0.171   4.462  17.079  1.8913  0.5736  0.9402
 1893TIP3   OH227093   2.129   4.000   1.463  0.1390  0.4716  0.2387
 1893TIP3    H127094   2.222   3.980   1.474  0.2323  1.5669  1.7451
 1893TIP3    H227095   2.083   3.919   1.485  0.7077  0.2570  0.6432
 1894TIP3   OH227096   1.886   0.345  15.461 -0.7689 -0.0711 -0.1653
 1894TIP3    H127097   1.830   0.401  15.407 -0.2074  0.8055  0.1407
 1894TIP3    H227098   1.947   0.405  15.503 -0.6223 -0.8362  0.7602
 1895TIP3   OH227099   6.385   5.134   1.188  0.4310  0.0445 -0.2404
 1895TIP3    H127100   6.312   5.074   1.173 -0.1975  0.9570 -0.9773
 1895TIP3    H227101   6.357   5.186   1.264  0.7817 -0.2973  0.1270
 1896TIP3   OH227102   6.180   3.970   0.599 -0.8144  0.2455  0.1600
 1896TIP3    H127103   6.101   3.981   0.545 -0.0932  0.1936 -0.9235
 1896TIP3    H227104   6.146   3.964   0.689 -2.0068  0.7147 -0.2371
 1897TIP3   OH227105   4.099   2.155  11.596  0.1361 -0.4899 -0.3517
 1897TIP3    H127106   4.168   2.198  11.546  1.4438 -3.4632 -1.3200
 1897TIP3    H227107   4.021   2.208  11.579  1.5513  1.3533 -1.5265
 1898TIP3   OH227108   1.980   4.338  17.291 -0.3208  0.2496  0.5692
 1898TIP3    H127109   1.907   4.393  17.320 -0.1794  0.3509  0.7343
 1898TIP3    H227110   1.955   4.309  17.203 -1.3883 -1.1993  1.3233
 1899TIP3   OH227111   5.687   0.397  15.792  0.1288  0.1277 -0.4076
 1899TIP3    H127112   5.732   0.408  15.708 -2.3930 -0.0435 -1.8809
 1899TIP3    H227113   5.647   0.310  15.786  1.4588 -0.7383  1.8495
 1900TIP3   OH227114   1.015   6.089  13.797 -0.6294  0.2706  0.1751
 1900TIP3    H127115   1.024   6.177  13.761 -1.2654 -0.5310 -2.1416
 1900TIP3    H227116   1.089   6.040  13.762 -1.9334 -0.8567 -1.1410
 1901TIP3   OH227117   5.165   0.150  11.320 -0.0808  0.3589 -0.8829
 1901TIP3    H127118   5.114   0.124  11.243 -2.2182 -2.3150  1.2168
 1901TIP3    H227119   5.102   0.197  11.375  0.7039  0.1004  0.2673
 1902TIP3   OH227120   2.478   0.310  12.813 -0.6826  0.2028 -0.1870
 1902TIP3    H127121   2.467   0.312  12.908 -0.0727 -2.7771  0.0226
 1902TIP3    H227122   2.464   0.401  12.786  1.1746  1.5916  2.9434
 1903TIP3   OH227123   5.258   3.065  13.917  0.1721 -0.3877  0.4078
 1903TIP3    H127124   5.170   3.090  13.888  0.9185  3.3251  0.8727
 1903TIP3    H227125   5.270   3.111  14.000  2.3840 -1.1538  0.5761
 1904TIP3   OH227126   2.829   6.338  11.855  0.1491  0.0046 -0.1562
 1904TIP3    H127127   2.762   6.382  11.907 -1.3747 -1.1042 -1.1010
 1904TIP3    H227128   2.881   6.288  11.919 -0.8813 -0.3283  0.4318
 1905TIP3   OH227129   5.646   3.058   3.156  0.0818  0.2317 -0.3777
 1905TIP3    H127130   5.575   3.122   3.171  0.1970  0.4899 -0.8893
 1905TIP3    H227131   5.607   2.994   3.097  0.4025  0.6215 -1.0298
 1906TIP3   OH227132   0.723   5.199  16.857 -0.1126 -0.1676  0.4311
 1906TIP3    H127133   0.653   5.142  16.888 -0.0591 -0.4540  0.0367
 1906TIP3    H227134   0.726   5.270  16.921 -1.2524  0.2349  0.0754
 1907TIP3   OH227135   5.565   5.477   1.438  0.6274  0.1295  0.0917
 1907TIP3    H127136   5.484   5.454   1.484  0.5196  1.0430  0.3792
 1907TIP3    H227137   5.561   5.427   1.357  0.6711 -1.2635  0.9176
 1908TIP3   OH227138   1.313   1.776   1.404 -0.3011  0.9326  0.3474
 1908TIP3    H127139   1.309   1.757   1.498  0.3238 -0.0166  0.1971
 1908TIP3    H227140   1.263   1.858   1.394 -0.3989  1.0332  1.4925
 1909TIP3   OH227141   4.137   6.301  16.680 -0.0967  0.0530 -0.3040
 1909TIP3    H127142   4.111   6.247  16.605 -0.8156  0.1966 -0.1630
 1909TIP3    H227143   4.190   6.371  16.641 -1.7597  1.0437 -0.9205
 1910TIP3   OH227144   1.009   4.630   5.651 -0.0392  0.2009 -0.1247
 1910TIP3    H127145   1.008   4.575   5.730  0.1280 -1.8444 -1.4486
 1910TIP3    H227146   1.042   4.572   5.582  0.9008  2.2367 -1.4965
 1911TIP3   OH227147   0.349   6.170  12.157  0.1830 -0.4617  0.2004
 1911TIP3    H127148   0.366   6.185  12.250  1.5826 -0.8902  0.0398
 1911TIP3    H227149   0.285   6.237  12.133  2.5188  2.1118  0.6471
 1912TIP3   OH227150   1.504   6.481  14.339 -0.4193  0.0905  0.6525
 1912TIP3    H127151   1.466   6.421  14.275 -1.0622  2.8751 -1.7768
 1912TIP3    H227152   1.445   6.477  14.414 -0.4639 -2.2039  0.5511
 1913TIP3   OH227153   2.392   3.113   6.410  0.0987  0.3188  0.4398
 1913TIP3    H127154   2.379   3.021   6.390  0.0989  0.1600  1.1799
 1913TIP3    H227155   2.483   3.131   6.384 -0.6530  0.7845 -2.2235
 1914TIP3   OH227156   6.291   1.399  13.250  1.1051 -0.2525  0.7080
 1914TIP3    H127157   6.279   1.477  13.304  0.5434  0.0618  0.1397
 1914TIP3    H227158   6.265   1.326  13.306 -0.1906  0.1295  0.6292
 1915TIP3   OH227159   5.963   2.533  13.583 -0.3094 -0.4421  0.0636
 1915TIP3    H127160   6.034   2.511  13.523  0.8574  0.5215  1.0411
 1915TIP3    H227161   5.944   2.625  13.563 -0.4384 -0.3430  0.6391
 1916TIP3   OH227162   0.275   5.089  11.759 -0.1733 -0.1556  0.1947
 1916TIP3    H127163   0.302   5.096  11.851 -0.3516  1.7948  0.1256
 1916TIP3    H227164   0.338   5.143  11.711 -2.1489  1.7515 -0.3771
 1917TIP3   OH227165   3.942   1.788   1.659  0.1567  0.4344  0.5193
 1917TIP3    H127166   3.959   1.709   1.607 -1.2436 -0.2109  0.9894
 1917TIP3    H227167   3.863   1.825   1.621  0.8764  1.7213  0.2151
 1918TIP3   OH227168   0.314   4.439   0.030 -0.0619 -0.4734 -0.1275
 1918TIP3    H127169   0.405   4.438   0.058  0.2124  1.4928 -0.8252
 1918TIP3    H227170   0.308   4.367  -0.033  1.2324 -0.1349 -0.6783
 1919TIP3   OH227171   5.350   3.245   4.740 -0.0079  0.4722  0.0247
 1919TIP3    H127172   5.263   3.248   4.780 -0.3538  0.1142 -0.6654
 1919TIP3    H227173   5.350   3.164   4.689  0.8084  0.3647  0.1766
 1920TIP3   OH227174   5.528   6.693  15.451 -0.7097 -0.0122  0.6329
 1920TIP3    H127175   5.606   6.657  15.410 -0.6356 -0.3502  1.0564
 1920TIP3    H227176   5.456   6.640  15.418 -0.6622 -0.2193  0.8594
 1921TIP3   OH227177   2.700   4.411  16.840 -0.5121 -0.4587  0.4108
 1921TIP3    H127178   2.740   4.437  16.923  0.9989  0.1424 -0.4698
 1921TIP3    H227179   2.730   4.321  16.826  1.3745  0.2892 -0.6858
 1922TIP3   OH227180   1.496   3.094  17.191  0.2483  0.5243  0.2285
 1922TIP3    H127181   1.469   3.182  17.218 -1.0060  0.1808  0.1754
 1922TIP3    H227182   1.481   3.093  17.096  2.5278  1.0063 -0.1850
 1923TIP3   OH227183   3.517   5.854   2.829 -0.0234  0.1801  0.1807
 1923TIP3    H127184   3.597   5.855   2.776  0.5013  1.5788  0.9710
 1923TIP3    H227185   3.533   5.786   2.895  0.4711  0.3639  0.2554
 1924TIP3   OH227186   3.085   2.235   6.158 -0.9408 -0.0707  0.4146
 1924TIP3    H127187   3.052   2.275   6.239  1.6098  2.8299  0.2160
 1924TIP3    H227188   3.169   2.197   6.183 -0.2708  0.5884 -0.7869
 1925TIP3   OH227189   5.448   6.555   0.079  0.2977 -0.0171  0.2784
 1925TIP3    H127190   5.537   6.580   0.104 -0.1996  1.2651  0.8479
 1925TIP3    H227191   5.413   6.633   0.036 -0.3730 -0.7010 -0.4298
 1926TIP3   OH227192   0.540   1.714   3.387  0.6080 -0.8083 -0.2702
 1926TIP3    H127193   0.617   1.754   3.427 -0.2651  0.3362  0.3510
 1926TIP3    H227194   0.531   1.629   3.430  0.2421 -0.0019  1.2997
 1927TIP3   OH227195   3.105   4.340   2.313  0.5020 -0.3291  0.5003
 1927TIP3    H127196   3.056   4.372   2.237  1.4792 -1.3150 -0.5910
 1927TIP3    H227197   3.040   4.294   2.366 -0.6488  2.1995  1.4277
 1928TIP3   OH227198   5.600   4.923   3.170 -0.4559 -0.4235  0.1549
 1928TIP3    H127199   5.652   4.981   3.226 -2.5149  0.6421  1.0444
 1928TIP3    H227200   5.578   4.976   3.094  0.4625 -1.1630 -0.6550
 1929TIP3   OH227201   3.551   4.394   2.446 -0.4586  0.0413  0.2029
 1929TIP3    H127202   3.473   4.358   2.404  0.3566  0.2107 -1.5193
 1929TIP3    H227203   3.580   4.464   2.388  1.1094 -0.1526  0.6990
 1930TIP3   OH227204   4.484   1.444   2.080 -0.6652  0.3114  0.6657
 1930TIP3    H127205   4.527   1.359   2.068 -0.3321  0.4268  1.0243
 1930TIP3    H227206   4.409   1.425   2.137  0.0824  0.4484  1.7249
 1931TIP3   OH227207   5.691   1.257   2.987  0.3332 -0.2809  0.3101
 1931TIP3    H127208   5.756   1.292   3.048  0.9205 -1.0089  0.1191
 1931TIP3    H227209   5.724   1.170   2.964 -0.0390 -0.1434 -0.8078
 1932TIP3   OH227210   3.337   4.200   3.499 -0.6293 -0.3851  0.1943
 1932TIP3    H127211   3.373   4.192   3.410  0.8383 -3.1136  0.9228
 1932TIP3    H227212   3.248   4.164   3.492 -2.0166  2.8237 -0.8056
 1933TIP3   OH227213   3.256   1.202  16.208  0.3608  0.2097 -0.2699
 1933TIP3    H127214   3.195   1.274  16.189 -0.2537 -0.9590 -3.5522
 1933TIP3    H227215   3.199   1.126  16.220  1.0575 -0.4694 -1.1018
 1934TIP3   OH227216   5.052   5.547  12.771  0.5423 -0.1397  0.2445
 1934TIP3    H127217   5.075   5.458  12.743  1.4550 -0.3542  1.5841
 1934TIP3    H227218   4.968   5.537  12.816  0.3751 -0.2223 -0.0812
 1935TIP3   OH227219   5.482   4.899  14.499  0.0390 -0.3738  0.0179
 1935TIP3    H127220   5.531   4.839  14.556 -0.3791 -1.3511 -0.6314
 1935TIP3    H227221   5.457   4.846  14.424 -0.1071  0.6937 -0.7143
 1936TIP3   OH227222   2.404   1.363   4.435  0.3888  0.5058 -0.3046
 1936TIP3    H127223   2.347   1.286   4.441  1.5320 -0.3889 -0.4514
 1936TIP3    H227224   2.420   1.387   4.526 -0.2675  0.8025 -0.2635
 1937TIP3   OH227225   6.141   4.684   4.099  0.2407  0.2887 -0.1577
 1937TIP3    H127226   6.171   4.593   4.094  0.3761  0.3384 -0.2839
 1937TIP3    H227227   6.162   4.720   4.012 -0.5238  0.2232 -0.3700
 1938TIP3   OH227228   6.459   6.556   0.125 -0.3574  0.0051 -0.3402
 1938TIP3    H127229   6.504   6.601   0.197 -1.2069  1.9626 -0.9706
 1938TIP3    H227230   6.367   6.552   0.154 -0.7555  1.0501 -1.3920
 1939TIP3   OH227231   0.448   6.088   1.849 -0.3075 -0.4249 -0.3419
 1939TIP3    H127232   0.423   6.180   1.848  1.4424  0.1820  2.0701
 1939TIP3    H227233   0.412   6.054   1.931  0.3749 -1.4332 -0.4401
 1940TIP3   OH227234   4.239   5.015  13.849 -0.4576  0.1952  0.2001
 1940TIP3    H127235   4.164   5.073  13.863 -0.5318  0.1833 -0.1376
 1940TIP3    H227236   4.252   5.016  13.754  0.9637  1.4760  0.3556
 1941TIP3   OH227237   0.069   2.923   1.668  0.3030  0.0772 -0.6170
 1941TIP3    H127238   0.018   2.850   1.633  0.0215 -0.1160  0.1761
 1941TIP3    H227239   0.014   3.000   1.653  0.0913 -0.0337 -0.4118
 1942TIP3   OH227240   5.208   1.760   2.586 -0.0207  0.5554 -0.6430
 1942TIP3    H127241   5.236   1.789   2.673 -0.6248 -1.5262  0.3128
 1942TIP3    H227242   5.197   1.841   2.536  1.6198  1.7427  0.8025
 1943TIP3   OH227243   5.153   5.092  16.749  0.5159  0.5730  0.3199
 1943TIP3    H127244   5.132   5.014  16.799  2.9681  0.3984  1.2337
 1943TIP3    H227245   5.069   5.126  16.719 -0.7919 -0.9871  2.0430
 1944TIP3   OH227246   4.080   5.170  16.760 -0.3273 -0.2293  0.0009
 1944TIP3    H127247   3.993   5.142  16.732  0.3473 -1.0677 -1.3817
 1944TIP3    H227248   4.085   5.262  16.735 -1.1803  0.1400  1.0854
 1945TIP3   OH227249   6.661   4.813   1.962  0.0933 -0.2873  0.4309
 1945TIP3    H127250   6.729   4.842   1.901 -0.5115  0.5102  0.1251
 1945TIP3    H227251   6.704   4.744   2.013  0.4445 -1.4336 -1.2881
 1946TIP3   OH227252   5.343   1.646  12.926 -0.4669  0.2063 -0.1823
 1946TIP3    H127253   5.250   1.644  12.946 -1.1411 -1.3856 -3.0296
 1946TIP3    H227254   5.349   1.700  12.847  1.0465  0.3469  0.0022
 1947TIP3   OH227255   0.655   4.204   1.126  0.3987  0.3101 -0.1001
 1947TIP3    H127256   0.560   4.195   1.138  0.2956  0.3849 -0.7717
 1947TIP3    H227257   0.693   4.135   1.180 -0.0409  0.2622  0.1526
 1948TIP3   OH227258   4.517   6.199  11.753  0.2621 -0.0941  0.0236
 1948TIP3    H127259   4.565   6.121  11.779  1.5100  0.4402 -0.5708
 1948TIP3    H227260   4.515   6.196  11.658  0.5687  0.7232 -0.0221
 1949TIP3   OH227261   6.155   2.376   5.184 -0.0752  0.3091 -0.2542
 1949TIP3    H127262   6.231   2.432   5.201  0.3421 -0.1046 -0.7611
 1949TIP3    H227263   6.102   2.427   5.123  1.1276 -0.5177 -2.0812
 1950TIP3   OH227264   5.218   6.708  15.725  0.0327 -0.6708  0.0484
 1950TIP3    H127265   5.143   6.762  15.748 -0.0711 -0.5972 -0.4484
 1950TIP3    H227266   5.276   6.768  15.677  0.7829 -0.5090  1.1276
 1951TIP3   OH227267   3.579   2.714   5.911 -0.3894 -0.1202 -0.3845
 1951TIP3    H127268   3.597   2.749   5.998  0.6537  1.6417 -1.2450
 1951TIP3    H227269   3.485   2.722   5.901 -0.5352 -0.4840  0.6437
 1952TIP3   OH227270   4.262   5.503  13.079  0.3773 -0.1117  0.0219
 1952TIP3    H127271   4.278   5.588  13.038  0.2114  0.0384  0.2681
 1952TIP3    H227272   4.170   5.485  13.061  0.3130 -0.0615  0.3000
 1953TIP3   OH227273   3.443   1.222   6.497  0.2147  0.2467  0.9496
 1953TIP3    H127274   3.454   1.290   6.563  0.5641 -0.7412  1.9403
 1953TIP3    H227275   3.354   1.189   6.511  0.7848 -0.9387  1.9044
 1954TIP3   OH227276   5.875   5.891   0.097  0.0770  0.3814 -1.0445
 1954TIP3    H127277   5.920   5.928   0.021  1.6186  0.9396  0.0955
 1954TIP3    H227278   5.811   5.958   0.122  1.7667  1.6688  0.0470
 1955TIP3   OH227279   4.326   0.339  10.708 -0.0192  0.1538 -0.6507
 1955TIP3    H127280   4.322   0.406  10.776 -1.2768  0.4204 -0.9614
 1955TIP3    H227281   4.414   0.301  10.717 -0.3190 -0.1656  1.4379
 1956TIP3   OH227282   6.567   6.121   3.463 -0.5155 -0.0860  0.0331
 1956TIP3    H127283   6.576   6.037   3.507  1.3079  0.6714  1.1970
 1956TIP3    H227284   6.526   6.178   3.528  0.8198  0.6440  0.2691
 1957TIP3   OH227285   3.527   1.125  15.935  0.4557 -0.1160 -0.0982
 1957TIP3    H127286   3.451   1.070  15.915  2.6962 -2.7944 -1.9751
 1957TIP3    H227287   3.573   1.079  16.005 -0.2279  2.2354  2.0814
 1958TIP3   OH227288   5.260   6.012  15.498 -0.1555 -0.2709  0.0755
 1958TIP3    H127289   5.296   5.967  15.422 -1.7586  0.7221 -1.3420
 1958TIP3    H227290   5.206   5.946  15.542  0.2830 -0.6843 -0.0054
 1959TIP3   OH227291   4.033   1.181   0.276  0.6237 -0.0412 -0.8433
 1959TIP3    H127292   4.035   1.239   0.199  1.4825  0.1788 -0.6607
 1959TIP3    H227293   4.050   1.239   0.350  0.2420 -0.3311 -0.5224
 1960TIP3   OH227294   1.353   4.147   2.515 -0.0701 -0.2394 -0.2599
 1960TIP3    H127295   1.363   4.166   2.422 -0.3865  1.3970  0.0068
 1960TIP3    H227296   1.278   4.201   2.542  0.5127 -0.0745  1.0928
 1961TIP3   OH227297   0.149   4.998   5.866  0.1480  0.7274  0.2534
 1961TIP3    H127298   0.226   5.050   5.845  0.7059 -1.0591 -2.7382
 1961TIP3    H227299   0.083   5.062   5.892  1.5112  2.6843 -0.8240
 1962TIP3   OH227300   4.209   3.412   2.507 -0.1929  0.3495  0.0044
 1962TIP3    H127301   4.270   3.376   2.442 -0.2557 -0.1204  0.2064
 1962TIP3    H227302   4.188   3.339   2.564 -1.4863  0.3181 -0.4658
 1963TIP3   OH227303   0.783   2.894  16.905  0.4482  0.2708  0.0502
 1963TIP3    H127304   0.701   2.860  16.868 -1.5952  0.9067  3.5229
 1963TIP3    H227305   0.759   2.979  16.941  2.6989  0.4983  1.1443
 1964TIP3   OH227306   4.888   4.382   0.499  0.1024  0.1479 -0.3564
 1964TIP3    H127307   4.977   4.409   0.475 -0.1475  0.3901 -1.0173
 1964TIP3    H227308   4.855   4.336   0.422 -0.5050  0.4449 -0.2825
 1965TIP3   OH227309   5.266   0.556   3.378 -0.3624 -0.0827  0.0164
 1965TIP3    H127310   5.268   0.537   3.471 -0.4610  2.0406  0.5007
 1965TIP3    H227311   5.223   0.641   3.371  2.7068  1.5251 -1.6165
 1966TIP3   OH227312   3.021   5.263  12.489  0.3565 -0.3495 -0.0609
 1966TIP3    H127313   3.026   5.326  12.416  1.2151  1.1220  1.2072
 1966TIP3    H227314   3.110   5.228  12.496 -0.2045 -2.0927 -1.0176
 1967TIP3   OH227315   6.696   3.498  13.370  0.3807 -0.3545 -0.1757
 1967TIP3    H127316   6.764   3.557  13.338 -0.0183  1.1154  1.6008
 1967TIP3    H227317   6.729   3.410  13.348  1.7501  0.4203 -1.3771
 1968TIP3   OH227318   5.101   4.682  15.744  0.5701 -0.4726 -0.4033
 1968TIP3    H127319   5.056   4.757  15.706  0.6774 -1.6039 -2.9648
 1968TIP3    H227320   5.032   4.616  15.755  0.7777 -0.5913  0.2171
 1969TIP3   OH227321   6.730   3.482   0.456 -0.2796  0.2398  0.3281
 1969TIP3    H127322   6.657   3.537   0.429 -0.2237 -0.0836 -0.5269
 1969TIP3    H227323   6.800   3.503   0.393 -0.8309 -2.0768 -1.1910
 1970TIP3   OH227324   4.445   1.477  13.981 -0.3040 -0.1207  0.3107
 1970TIP3    H127325   4.355   1.507  13.967 -0.7421 -0.7500  1.6373
 1970TIP3    H227326   4.462   1.418  13.908 -1.2325 -0.5534  0.4289
 1971TIP3   OH227327   1.659   1.231  15.349  0.1659 -0.3465 -0.3590
 1971TIP3    H127328   1.675   1.152  15.400 -1.1435 -0.4080 -0.0207
 1971TIP3    H227329   1.655   1.201  15.258  0.3202 -0.5730 -0.2899
 1972TIP3   OH227330   1.605   3.735  12.930  0.0393  0.1222 -0.4007
 1972TIP3    H127331   1.689   3.775  12.953 -0.1057 -0.4019  1.1812
 1972TIP3    H227332   1.577   3.690  13.010 -1.7848  0.3321 -0.8750
 1973TIP3   OH227333   1.521   3.372  13.316 -0.2596 -0.3913 -0.6222
 1973TIP3    H127334   1.613   3.362  13.342  0.0384 -0.8261 -1.8108
 1973TIP3    H227335   1.472   3.345  13.394  0.6181 -1.8816 -0.5391
 1974TIP3   OH227336   0.529   1.949  17.001 -0.2130 -0.0635  0.3339
 1974TIP3    H127337   0.489   1.870  16.966 -1.0317 -1.1306  3.3107
 1974TIP3    H227338   0.617   1.922  17.029 -0.4329  0.0742  1.2096
 1975TIP3   OH227339   0.731   0.371   3.567  0.3275  0.5706  0.6503
 1975TIP3    H127340   0.795   0.300   3.561 -0.6206 -0.1903 -1.2476
 1975TIP3    H227341   0.697   0.364   3.656 -0.0121 -1.6266  0.4058
 1976TIP3   OH227342   1.693   3.894  13.288  0.4053 -0.2108 -0.1097
 1976TIP3    H127343   1.635   3.853  13.352 -0.2182  1.5443  0.4989
 1976TIP3    H227344   1.643   3.892  13.206  0.5699 -1.0538 -0.1972
 1977TIP3   OH227345   2.174   0.539   2.424 -0.2078  1.2920  0.4346
 1977TIP3    H127346   2.115   0.610   2.399 -0.1879  0.6360 -1.7051
 1977TIP3    H227347   2.120   0.460   2.416 -0.2678  0.9953  2.9088
 1978TIP3   OH227348   5.657   5.679   4.898 -0.1820  0.1214  0.3040
 1978TIP3    H127349   5.714   5.756   4.901 -1.4018  1.0586  0.2587
 1978TIP3    H227350   5.600   5.689   4.975 -1.6739  0.3594 -0.7683
 1979TIP3   OH227351   4.737   1.466  13.663 -0.0517 -0.3175  0.4167
 1979TIP3    H127352   4.704   1.555  13.673 -0.2597 -0.3607  0.1339
 1979TIP3    H227353   4.750   1.435  13.753  0.2603  0.0824  0.5139
 1980TIP3   OH227354   0.350   0.543   3.122 -0.1648  0.3859  0.3680
 1980TIP3    H127355   0.404   0.470   3.153 -1.8618 -1.5298 -0.9262
 1980TIP3    H227356   0.333   0.596   3.201  3.6668  1.2532  0.7845
 1981TIP3   OH227357   5.678   6.741  11.535 -0.0051  0.6195  0.1471
 1981TIP3    H127358   5.651   6.803  11.603  0.6011 -0.5498  1.5050
 1981TIP3    H227359   5.611   6.750  11.467 -0.4222  2.1044  0.7054
 1982TIP3   OH227360   2.641   2.243  14.433 -0.1511 -0.1266 -0.0474
 1982TIP3    H127361   2.718   2.205  14.476  0.1391  1.5528  0.9886
 1982TIP3    H227362   2.675   2.317  14.383 -1.2815  2.3331  2.5237
 1983TIP3   OH227363   3.638   1.046  15.093 -0.3609 -0.2235 -0.6558
 1983TIP3    H127364   3.700   1.111  15.123  0.5984 -1.4411  0.0860
 1983TIP3    H227365   3.680   1.006  15.017 -0.3437 -0.8703 -0.3132
 1984TIP3   OH227366   3.427   3.366  13.097 -0.2607 -0.1927 -0.6647
 1984TIP3    H127367   3.368   3.354  13.022 -0.9952  2.6431 -0.6363
 1984TIP3    H227368   3.477   3.444  13.076  0.6872 -0.2807  1.1057
 1985TIP3   OH227369   5.004   3.695   4.017 -0.1362 -0.0213 -0.2613
 1985TIP3    H127370   4.944   3.625   4.042  0.8391 -0.8235 -0.1354
 1985TIP3    H227371   5.030   3.673   3.927  0.5932 -0.1212 -0.0280
 1986TIP3   OH227372   3.270   4.623  11.902 -0.0897 -0.2858 -0.6383
 1986TIP3    H127373   3.326   4.550  11.875 -0.8175 -1.6155  1.2373
 1986TIP3    H227374   3.192   4.581  11.939 -0.9631  1.4802 -0.3602
 1987TIP3   OH227375   3.519   6.071  13.050 -0.2179  0.2745 -0.0476
 1987TIP3    H127376   3.517   5.979  13.025 -0.2015  0.4203 -0.5979
 1987TIP3    H227377   3.551   6.117  12.972 -0.9209  0.8231 -0.0204
 1988TIP3   OH227378   6.181   2.528  12.583  0.6812 -0.1868  0.4479
 1988TIP3    H127379   6.174   2.623  12.579  0.1563 -0.2568 -0.6817
 1988TIP3    H227380   6.214   2.510  12.671 -3.5886  0.7793  2.4743
 1989TIP3   OH227381   2.856   5.022   6.225  0.1573  0.1815 -0.1126
 1989TIP3    H127382   2.810   5.104   6.239  1.4370  0.8390  0.4609
 1989TIP3    H227383   2.881   4.993   6.313  1.0852  0.0278 -0.4106
 1990TIP3   OH227384   4.854   2.987  11.454  0.2416  0.5582 -0.0199
 1990TIP3    H127385   4.949   2.991  11.459  0.1997  0.5436  1.1036
 1990TIP3    H227386   4.830   3.058  11.395  1.0081 -0.3056 -1.4338
 1991TIP3   OH227387   0.557   1.960  14.918  0.0798 -0.8602  0.2696
 1991TIP3    H127388   0.600   1.875  14.931 -0.8451 -1.4452 -0.3682
 1991TIP3    H227389   0.626   2.015  14.881  0.6732 -1.3462  0.6160
 1992TIP3   OH227390   2.294   2.630   6.049 -0.6225  0.1494  0.7278
 1992TIP3    H127391   2.360   2.561   6.058 -0.6720  0.1188  0.8628
 1992TIP3    H227392   2.301   2.681   6.130 -2.3229 -1.2378  1.8240
 1993TIP3   OH227393   0.985   2.888   4.346  0.4629 -0.6096  0.0022
 1993TIP3    H127394   1.013   2.903   4.255 -0.7071  1.7909 -0.0569
 1993TIP3    H227395   0.891   2.909   4.346  0.3320 -1.0444  1.6717
 1994TIP3   OH227396   5.880   1.449  14.757 -0.3417  0.6355  0.2267
 1994TIP3    H127397   5.838   1.388  14.697  0.0768 -0.0100  0.5808
 1994TIP3    H227398   5.942   1.498  14.703  0.3119 -0.2065  0.1971
 1995TIP3   OH227399   5.958   6.137   4.511  0.4473 -0.1422 -0.1268
 1995TIP3    H127400   5.940   6.159   4.603 -0.3229  3.4762 -0.9980
 1995TIP3    H227401   5.872   6.115   4.475  0.3622  0.6502 -0.4388
 1996TIP3   OH227402   0.373   1.023   3.186  0.2670  0.1900 -0.1741
 1996TIP3    H127403   0.336   1.001   3.272 -0.1093 -0.0186 -0.3828
 1996TIP3    H227404   0.381   1.118   3.187 -0.0972  0.2232 -0.0493
 1997TIP3   OH227405   1.618   5.767   3.523 -0.1566 -0.4240  0.0708
 1997TIP3    H127406   1.639   5.858   3.505  1.6091 -1.2541 -2.5495
 1997TIP3    H227407   1.639   5.755   3.616  1.8031  1.2587 -0.0999
 1998TIP3   OH227408   4.406   1.008   2.010  0.3413  0.2021 -1.0225
 1998TIP3    H127409   4.440   1.097   2.020 -1.6325  0.8531  0.6808
 1998TIP3    H227410   4.484   0.954   1.997  1.7275  1.9603 -0.5077
 1999TIP3   OH227411   2.049   1.684   3.024  0.3939 -0.3916 -0.2661
 1999TIP3    H127412   2.098   1.664   2.944  0.5608  0.8188 -0.4784
 1999TIP3    H227413   2.117   1.696   3.091  0.2670 -1.0912  0.0003
 2000TIP3   OH227414   1.607   3.090   1.806  0.0754 -0.3536  1.0532
 2000TIP3    H127415   1.513   3.102   1.803  0.1373 -0.0054 -1.6132
 2000TIP3    H227416   1.628   3.042   1.726  2.1544 -0.6384  1.6987
 2001TIP3   OH227417   0.445   5.269  11.031  0.2736 -0.2113 -0.7852
 2001TIP3    H127418   0.491   5.242  11.110  0.5531 -1.8706 -1.4678
 2001TIP3    H227419   0.371   5.320  11.062  0.6545 -0.4356  0.5226
 2002TIP3   OH227420   2.889   4.450  12.339  0.5126  0.3225  0.4539
 2002TIP3    H127421   2.968   4.396  12.345 -0.4296 -1.1176  0.2612
 2002TIP3    H227422   2.893   4.489  12.251  0.6290 -0.3564  0.1543
 2003TIP3   OH227423   3.143   1.555   4.260 -0.3820  0.0128  0.7557
 2003TIP3    H127424   3.223   1.519   4.297 -0.0299 -0.3170 -0.2842
 2003TIP3    H227425   3.169   1.641   4.227  0.3886 -1.2817 -2.3544
 2004TIP3   OH227426   3.040   5.540   2.373 -0.2248 -0.4099  0.3030
 2004TIP3    H127427   2.994   5.562   2.292  0.9234  2.6214  0.3596
 2004TIP3    H227428   3.027   5.616   2.430  1.7846 -1.0247  1.6833
 2005TIP3   OH227429   3.128   2.835  14.598  0.1736  0.2071 -0.8618
 2005TIP3    H127430   3.110   2.741  14.589  0.1263  0.2266 -0.9842
 2005TIP3    H227431   3.199   2.840  14.661  0.5392  0.0513 -1.2540
 2006TIP3   OH227432   4.987   2.227   0.077  0.3569  0.3247 -0.2282
 2006TIP3    H127433   5.021   2.282   0.007 -3.9715  2.4577 -1.0186
 2006TIP3    H227434   4.979   2.140   0.037 -0.0012  0.9994 -1.7192
 2007TIP3   OH227435   3.285   1.378  11.964  0.6219 -0.3723 -0.0041
 2007TIP3    H127436   3.374   1.353  11.989  1.0188  0.0771 -0.9027
 2007TIP3    H227437   3.231   1.304  11.993  1.4668 -1.2700 -0.6246
 2008TIP3   OH227438   2.296   3.144   5.827 -0.1244  0.3180  0.0190
 2008TIP3    H127439   2.228   3.181   5.884 -2.1480 -0.3731 -1.7870
 2008TIP3    H227440   2.294   3.050   5.846 -0.0805  0.2271 -0.4164
 2009TIP3   OH227441   6.506   5.856   1.000 -0.1639  0.4492 -0.2434
 2009TIP3    H127442   6.478   5.853   0.909  0.5206  0.0845 -0.4526
 2009TIP3    H227443   6.590   5.902   0.998 -0.2941  0.7181  0.2429
 2010TIP3   OH227444   4.185   2.311  13.865  0.1516 -0.5256 -0.5059
 2010TIP3    H127445   4.097   2.280  13.844  0.1596 -0.1862 -1.0523
 2010TIP3    H227446   4.175   2.406  13.874  0.6356 -0.3724 -1.4971
 2011TIP3   OH227447   3.947   3.704   4.907  0.0213 -0.1221 -0.1640
 2011TIP3    H127448   4.009   3.649   4.955  1.5581  0.2930 -1.5937
 2011TIP3    H227449   3.948   3.787   4.954 -0.1353 -0.3974  0.3355
 2012TIP3   OH227450   0.673   3.511  15.915  0.1377 -0.2253  0.3456
 2012TIP3    H127451   0.610   3.488  15.982 -1.2483 -0.2298 -0.9040
 2012TIP3    H227452   0.621   3.556  15.848  1.7711  1.4122  0.1008
 2013TIP3   OH227453   4.006   5.698   2.707  0.3003 -0.0801 -0.2411
 2013TIP3    H127454   4.050   5.615   2.724 -1.0676 -0.5500  1.2188
 2013TIP3    H227455   4.018   5.713   2.613  2.3547 -0.8506 -0.1395
 2014TIP3   OH227456   1.482   5.102  13.716 -0.5049 -0.5663 -0.8455
 2014TIP3    H127457   1.524   5.124  13.799 -2.7073  0.5491  0.0660
 2014TIP3    H227458   1.501   5.175  13.658 -1.9498  0.4360 -0.1064
 2015TIP3   OH227459   4.667   1.287  14.579 -0.0361  0.8442 -0.3696
 2015TIP3    H127460   4.582   1.300  14.622 -0.1565 -2.5832  0.7212
 2015TIP3    H227461   4.647   1.234  14.502  1.0916 -0.3793  0.1306
 2016TIP3   OH227462   1.192   4.780  16.630 -0.0724  0.0066 -0.2238
 2016TIP3    H127463   1.252   4.709  16.651  2.0180  2.0826  1.3667
 2016TIP3    H227464   1.135   4.787  16.706 -1.3784 -0.9490 -1.0720
 2017TIP3   OH227465   3.543   0.735   5.431  0.2671  0.1377  0.2793
 2017TIP3    H127466   3.632   0.712   5.407 -0.2950  1.0590 -3.3763
 2017TIP3    H227467   3.545   0.830   5.445 -0.4134  0.5164 -1.8688
 2018TIP3   OH227468   5.982   5.975  17.263 -0.0416  0.0830 -0.7077
 2018TIP3    H127469   5.944   5.896  17.225 -0.7011  1.4513 -3.0785
 2018TIP3    H227470   6.074   5.953  17.275 -0.2596 -1.1310 -1.0479
 2019TIP3   OH227471   0.378   2.597   2.260  0.2439  0.0023 -0.1095
 2019TIP3    H127472   0.414   2.535   2.196  2.0250  2.3220 -1.5363
 2019TIP3    H227473   0.339   2.666   2.207  2.1208  2.2043  1.2069
 2020TIP3   OH227474   5.872   6.137   5.761 -0.0677  0.7208  0.3465
 2020TIP3    H127475   5.923   6.217   5.756  1.2451 -0.0863  0.2353
 2020TIP3    H227476   5.898   6.097   5.845  0.0772 -0.0772 -0.0668
 2021TIP3   OH227477   3.648   2.491   1.678  0.2266  0.3126  0.4815
 2021TIP3    H127478   3.617   2.567   1.727 -1.1265  0.0254  0.0909
 2021TIP3    H227479   3.643   2.418   1.740  1.1171  0.4355  0.7225
 2022TIP3   OH227480   4.597   2.448   1.581  0.6915  0.3920  0.0699
 2022TIP3    H127481   4.644   2.371   1.549  2.1234  0.1212  2.5663
 2022TIP3    H227482   4.549   2.480   1.504  2.9571 -0.7905 -1.9952
 2023TIP3   OH227483   0.028   2.204   0.490  0.2543  0.0546 -0.4454
 2023TIP3    H127484  -0.045   2.152   0.523  0.7143 -0.0701  0.3995
 2023TIP3    H227485   0.054   2.160   0.410 -1.1704  0.6200 -1.2650
 2024TIP3   OH227486   2.725   1.986   2.226  0.3267 -0.7417  0.6772
 2024TIP3    H127487   2.744   2.078   2.208 -2.1958 -0.5964 -2.0128
 2024TIP3    H227488   2.790   1.938   2.174  0.9074 -0.4991  1.1622
 2025TIP3   OH227489   6.648   3.893   3.014  0.1784  0.0145  0.1561
 2025TIP3    H127490   6.682   3.956   2.952 -1.3709  0.4875 -0.2663
 2025TIP3    H227491   6.598   3.831   2.961  0.7751 -0.9395  0.6851
 2026TIP3   OH227492   3.256   5.695  13.027 -0.0392  0.2720  0.2479
 2026TIP3    H127493   3.263   5.703  12.932 -0.4958  1.4412  0.3017
 2026TIP3    H227494   3.181   5.750  13.051 -0.8212 -1.1031  1.1445
 2027TIP3   OH227495   6.441   0.363   0.367  0.4486  0.0152  0.0076
 2027TIP3    H127496   6.483   0.429   0.422 -0.1477 -2.2042  3.4109
 2027TIP3    H227497   6.513   0.318   0.324  1.0854  0.6180  0.4278
 2028TIP3   OH227498   0.439   4.963  16.196  0.6152 -0.4832 -0.3273
 2028TIP3    H127499   0.438   5.033  16.261 -0.9277  0.4399 -1.2796
 2028TIP3    H227500   0.407   4.886  16.242  0.6492 -0.1293  0.2885
 2029TIP3   OH227501   0.468   0.907  15.161 -0.3912 -0.4886 -0.5389
 2029TIP3    H127502   0.377   0.899  15.131 -0.4989 -2.1477  0.1309
 2029TIP3    H227503   0.462   0.898  15.256  0.3485  0.7423 -0.3649
 2030TIP3   OH227504   5.401   3.036   4.578 -0.4357 -0.1027  0.3281
 2030TIP3    H127505   5.328   3.006   4.523  0.0373 -1.8424  0.6042
 2030TIP3    H227506   5.455   2.959   4.591  0.6995  0.8220  1.3451
 2031TIP3   OH227507   1.314   2.783  17.268  0.5710  0.3124  0.2724
 2031TIP3    H127508   1.232   2.814  17.307 -0.0751 -1.5300  0.4655
 2031TIP3    H227509   1.339   2.852  17.206 -1.0654  0.9568  0.2910
 2032TIP3   OH227510   3.957   3.067   2.890 -0.0435 -0.2449  0.2361
 2032TIP3    H127511   3.980   3.004   2.821 -0.5369 -0.5506  0.3459
 2032TIP3    H227512   3.861   3.070   2.888 -0.0485 -0.0478  0.7243
 2033TIP3   OH227513   2.859   4.601  14.431 -0.2181  0.0300  0.3327
 2033TIP3    H127514   2.873   4.556  14.347 -0.8118 -0.3531  0.4343
 2033TIP3    H227515   2.873   4.693  14.412  0.9198 -0.1786  0.0908
 2034TIP3   OH227516   3.215   3.913   1.477  0.1195  0.6607  0.1958
 2034TIP3    H127517   3.240   3.970   1.404 -2.4307 -0.5249 -1.7522
 2034TIP3    H227518   3.175   3.972   1.541 -1.0048  1.2871 -1.0537
 2035TIP3   OH227519   0.982   5.906  15.317  0.1686  0.0238  0.1262
 2035TIP3    H127520   0.976   5.811  15.310  1.1288 -0.3771  2.9861
 2035TIP3    H227521   0.894   5.934  15.342 -0.4755  0.1388 -2.0661
 2036TIP3   OH227522   3.353   1.209   5.351 -0.0501 -0.0029  0.3380
 2036TIP3    H127523   3.401   1.245   5.277  2.4168 -0.6566  1.5072
 2036TIP3    H227524   3.347   1.282   5.413 -0.6446  0.1006  0.1581
 2037TIP3   OH227525   5.648   3.977  12.197  0.1524  0.1034 -0.1773
 2037TIP3    H127526   5.740   3.994  12.216 -0.0709  1.2077 -0.0183
 2037TIP3    H227527   5.605   3.974  12.282  0.0461 -0.4925 -0.2466
 2038TIP3   OH227528   2.464   1.033   4.132 -0.6992 -0.1063  0.0854
 2038TIP3    H127529   2.384   0.984   4.111 -0.4771 -0.3748 -0.1413
 2038TIP3    H227530   2.500   1.056   4.046 -0.9310  0.6704  0.1884
 2039TIP3   OH227531   2.121   1.727   2.579  0.3092 -0.3826  0.0398
 2039TIP3    H127532   2.209   1.756   2.556  1.2523 -2.6393  0.6643
 2039TIP3    H227533   2.111   1.642   2.537 -0.4877 -1.4886  2.3507
 2040TIP3   OH227534   2.857   4.014  11.653 -0.7900 -0.5867 -0.4595
 2040TIP3    H127535   2.791   4.014  11.584 -0.0854  1.6649 -1.2230
 2040TIP3    H227536   2.935   4.050  11.611 -0.4084  1.1181  1.5402
 2041TIP3   OH227537   4.405   0.438   5.339 -0.3429 -0.1695 -0.2732
 2041TIP3    H127538   4.390   0.497   5.412 -0.8797  2.8642 -2.6455
 2041TIP3    H227539   4.318   0.407   5.314 -0.6768  1.9135 -1.9376
 2042TIP3   OH227540   4.519   1.617  15.356 -0.2911  0.0873 -0.4262
 2042TIP3    H127541   4.513   1.665  15.273 -1.3928  1.1449  0.2296
 2042TIP3    H227542   4.479   1.532  15.337  0.6925 -0.2025 -1.3158
 2043TIP3   OH227543   3.715   4.729   4.481 -0.3848 -0.0637  0.2958
 2043TIP3    H127544   3.700   4.823   4.490  0.2341 -0.1251  2.8073
 2043TIP3    H227545   3.771   4.722   4.404 -0.6147  1.6117 -0.0747
 2044TIP3   OH227546   5.533   4.737  11.145 -0.1142  0.4084  0.0047
 2044TIP3    H127547   5.487   4.820  11.133 -1.5630  0.0180  2.3127
 2044TIP3    H227548   5.473   4.671  11.109  0.8309  0.2744 -1.4025
 2045TIP3   OH227549   2.346   2.368  14.549 -0.3779  0.4565  0.1223
 2045TIP3    H127550   2.349   2.459  14.519  0.2442  0.1208 -0.8941
 2045TIP3    H227551   2.340   2.374  14.644  0.6443  1.5516  0.1319
 2046TIP3   OH227552   0.411   5.878  13.414  0.0293  0.0750  0.5184
 2046TIP3    H127553   0.469   5.809  13.447 -3.5392 -2.9511  1.2767
 2046TIP3    H227554   0.402   5.939  13.487  0.9842 -0.2752  0.9482
 2047TIP3   OH227555   6.568   5.147  15.115  0.0377 -0.8016 -0.6516
 2047TIP3    H127556   6.661   5.148  15.139  0.1208  0.8530 -0.9260
 2047TIP3    H227557   6.522   5.132  15.198  0.5025  0.2298 -0.1881
 2048TIP3   OH227558   2.355   3.672   4.091 -0.1268 -0.0835  0.2173
 2048TIP3    H127559   2.268   3.700   4.119 -0.4013 -1.7767  1.2052
 2048TIP3    H227560   2.340   3.587   4.049  1.1099 -0.7057  0.9836
 2049TIP3   OH227561   4.498   5.390  14.005 -0.3634 -0.5075  0.6789
 2049TIP3    H127562   4.435   5.392  13.933 -0.1917 -0.9296  0.5111
 2049TIP3    H227563   4.449   5.422  14.081  0.2510  2.8696 -0.1808
 2050TIP3   OH227564   5.156   6.068   1.820  0.0285  0.2512  0.6228
 2050TIP3    H127565   5.131   6.142   1.764  0.4181  0.2506  0.4423
 2050TIP3    H227566   5.251   6.080   1.832  0.3058 -0.8391 -0.3159
 2051TIP3   OH227567   0.968   0.698  14.693  0.1166 -0.1273  0.2334
 2051TIP3    H127568   0.971   0.690  14.598  0.1827 -0.6597  0.2765
 2051TIP3    H227569   0.941   0.788  14.709 -0.9262 -0.3340 -0.2907
 2052TIP3   OH227570   4.328   2.676  16.124 -0.2260  0.2401  0.1703
 2052TIP3    H127571   4.347   2.769  16.133 -0.2487  0.2473  0.1395
 2052TIP3    H227572   4.289   2.651  16.208 -1.8999  0.6498 -0.4587
 2053TIP3   OH227573   4.333   4.266  15.727  0.6098 -0.2448 -0.3908
 2053TIP3    H127574   4.382   4.339  15.688  0.9709  0.0409  0.5829
 2053TIP3    H227575   4.362   4.263  15.818 -0.5525 -0.6159 -0.0102
 2054TIP3   OH227576   3.063   5.191   4.996 -0.3902  0.5227  0.3032
 2054TIP3    H127577   3.048   5.283   4.970  0.8034  1.2986  2.1744
 2054TIP3    H227578   3.004   5.177   5.069 -1.1818 -0.5145 -0.5087
 2055TIP3   OH227579   3.018   5.003  13.987  0.3995 -0.1505 -0.3159
 2055TIP3    H127580   3.019   4.908  14.003 -0.5144 -0.0659  0.2906
 2055TIP3    H227581   2.983   5.011  13.898  0.6909 -0.3857 -0.4561
 2056TIP3   OH227582   1.474   5.811  14.078 -0.1179 -0.2395  0.0791
 2056TIP3    H127583   1.417   5.831  14.004 -1.0624 -1.3351  0.4608
 2056TIP3    H227584   1.522   5.733  14.051 -0.8186 -0.9353  0.7577
 2057TIP3   OH227585   6.076   3.150  13.190 -0.8546  0.1606  0.2725
 2057TIP3    H127586   6.025   3.195  13.122 -1.8007 -0.6139  0.4398
 2057TIP3    H227587   6.014   3.141  13.263 -0.9833 -2.1456 -0.0619
 2058TIP3   OH227588   0.830   6.711  13.141 -0.4379  0.4359  0.5258
 2058TIP3    H127589   0.846   6.668  13.057 -2.0860  1.4645 -0.3640
 2058TIP3    H227590   0.909   6.762  13.158  0.3635 -0.6738  0.1799
 2059TIP3   OH227591   2.271   0.996   5.136 -0.1482 -0.2710 -0.0436
 2059TIP3    H127592   2.297   1.011   5.227 -1.1170 -2.0938  0.5728
 2059TIP3    H227593   2.196   0.938   5.141 -0.7153  0.2123 -2.0089
 2060TIP3   OH227594   1.315   4.934   2.083 -0.1256  0.3784  0.1231
 2060TIP3    H127595   1.248   4.871   2.057  0.9127  0.0911 -2.1044
 2060TIP3    H227596   1.287   5.017   2.043  1.2748  0.0332 -1.7193
 2061TIP3   OH227597   3.715   4.260   2.612 -0.0383  0.4514  0.2953
 2061TIP3    H127598   3.660   4.290   2.540 -1.0267 -1.1904  0.3404
 2061TIP3    H227599   3.657   4.256   2.688  0.0488 -1.5620  0.2882
 2062TIP3   OH227600   1.508   1.814   2.792 -0.1670 -0.0512  0.9504
 2062TIP3    H127601   1.466   1.770   2.719  1.9192 -0.2474 -0.1960
 2062TIP3    H227602   1.486   1.761   2.869 -0.6029 -1.0736  0.1368
 2063TIP3   OH227603   4.181   1.463  16.786  0.6514  0.0100  0.0436
 2063TIP3    H127604   4.206   1.554  16.770 -0.9811  0.3826 -0.6259
 2063TIP3    H227605   4.230   1.412  16.722  0.3201  0.6213 -0.7098
 2064TIP3   OH227606   1.233   5.327  13.121 -0.0408 -0.4949  0.1703
 2064TIP3    H127607   1.240   5.413  13.078  1.7580  0.6742  2.5557
 2064TIP3    H227608   1.177   5.343  13.197  0.6382 -1.3172  0.8580
 2065TIP3   OH227609   3.386   4.917  13.112  0.1438 -0.1612  0.7397
 2065TIP3    H127610   3.463   4.884  13.158  0.5435 -0.2825  0.0014
 2065TIP3    H227611   3.417   4.934  13.023 -0.9565 -1.3712  0.0817
 2066TIP3   OH227612   6.155   6.513  16.568 -0.5436  0.1417 -0.1686
 2066TIP3    H127613   6.174   6.606  16.555 -0.2873 -0.0685 -1.4632
 2066TIP3    H227614   6.198   6.491  16.650  1.0068  0.7467 -0.7794
 2067TIP3   OH227615   1.934   5.008   2.533  0.1442 -0.1012  0.2511
 2067TIP3    H127616   2.012   5.064   2.531  1.6773 -2.0755 -2.4102
 2067TIP3    H227617   1.962   4.929   2.579 -0.4526 -0.6077 -0.2335
 2068TIP3   OH227618   0.218   5.531  12.870  0.1785  0.1857  0.8483
 2068TIP3    H127619   0.275   5.600  12.837  1.3500 -0.6547  1.0371
 2068TIP3    H227620   0.264   5.450  12.846 -0.7813 -0.5024  1.3092
 2069TIP3   OH227621   6.460   4.450   4.635 -0.0286  0.0158  0.1221
 2069TIP3    H127622   6.503   4.457   4.720 -1.2094  1.7568  0.6235
 2069TIP3    H227623   6.524   4.484   4.573  1.7324 -3.3102 -0.1023
 2070TIP3   OH227624   6.271   4.442  13.846  0.2287 -0.6953 -0.4920
 2070TIP3    H127625   6.229   4.380  13.906 -0.9369  0.5216  0.0182
 2070TIP3    H227626   6.341   4.482  13.898  0.5644 -1.1199 -0.6160
 2071TIP3   OH227627   1.990   5.054  13.869  0.1846  0.1783  0.2313
 2071TIP3    H127628   2.047   5.120  13.828 -0.3449 -0.5177 -1.7314
 2071TIP3    H227629   2.020   4.971  13.832 -1.4193 -0.3095 -0.0190
 2072TIP3   OH227630   6.344   4.212  11.555  0.3752  0.5262  0.2891
 2072TIP3    H127631   6.290   4.208  11.634 -1.0299  0.2652 -0.6485
 2072TIP3    H227632   6.360   4.306  11.542  1.3803  0.5146  1.3685
 2073TIP3   OH227633   6.716   2.463   0.928 -0.1254  0.2991 -0.1490
 2073TIP3    H127634   6.780   2.532   0.914 -0.4200  0.5413 -0.3020
 2073TIP3    H227635   6.736   2.397   0.861 -0.1625  0.4688 -0.3287
 2074TIP3   OH227636   6.511   1.968   4.461  0.0772 -0.3069  0.2754
 2074TIP3    H127637   6.528   2.025   4.385 -0.7960  1.8717  1.6055
 2074TIP3    H227638   6.598   1.937   4.487  0.6988  1.0447 -0.0675
 2075TIP3   OH227639   1.196   0.419  15.729  0.2497  0.2562  0.1379
 2075TIP3    H127640   1.261   0.482  15.697 -1.7839  2.5343  0.2176
 2075TIP3    H227641   1.248   0.346  15.764  2.6757  0.7443 -2.1308
 2076TIP3   OH227642   1.543   4.922   4.999 -0.1855 -0.1362 -0.1812
 2076TIP3    H127643   1.483   4.944   4.928  1.1078  0.7022 -1.0608
 2076TIP3    H227644   1.515   4.977   5.072  1.0322  2.2222 -1.3799
 2077TIP3   OH227645   0.265   1.228  14.051 -0.0836  0.2862  0.6971
 2077TIP3    H127646   0.343   1.280  14.034 -1.2358  1.5170 -1.2586
 2077TIP3    H227647   0.267   1.212  14.145  3.0239 -0.6480  0.5632
 2078TIP3   OH227648   4.088   4.079  11.968 -0.2952 -0.1636 -0.3875
 2078TIP3    H127649   4.135   4.134  11.906  0.5447 -0.0199  0.3587
 2078TIP3    H227650   4.032   4.139  12.017  1.4200  0.2583  1.1746
 2079TIP3   OH227651   2.036   6.289   3.524  0.0666 -0.1055  0.0651
 2079TIP3    H127652   2.120   6.321   3.557  0.1009 -0.2740  0.1419
 2079TIP3    H227653   2.057   6.250   3.439  0.5976 -2.8133  1.3423
 2080TIP3   OH227654   0.904   4.064   1.628 -0.0686  0.0050  0.3790
 2080TIP3    H127655   0.987   4.087   1.587  0.9216 -1.0127  1.7133
 2080TIP3    H227656   0.856   4.016   1.560  0.1341  1.1535 -0.6120
 2081TIP3   OH227657   0.532   5.075   6.377  0.0165  0.3493  0.7393
 2081TIP3    H127658   0.443   5.046   6.355  0.4744 -1.0475  0.5805
 2081TIP3    H227659   0.567   5.003   6.431  1.2342  0.6269  0.3459
 2082TIP3   OH227660   2.494   1.036   2.866  0.0037  0.4260  0.3635
 2082TIP3    H127661   2.504   0.986   2.785  0.5755  2.4780 -0.9366
 2082TIP3    H227662   2.523   0.977   2.935  1.3257 -0.7902 -1.1512
 2083TIP3   OH227663   6.692   2.662   1.404  0.1793 -0.3758  0.5069
 2083TIP3    H127664   6.721   2.669   1.495 -1.3091 -0.0855  0.9924
 2083TIP3    H227665   6.603   2.626   1.410  0.2067 -0.7327 -0.8612
 2084TIP3   OH227666   4.454   2.996  15.089 -0.0578  0.2914  0.3432
 2084TIP3    H127667   4.490   2.911  15.114  1.5596  0.1691 -2.0796
 2084TIP3    H227668   4.530   3.047  15.062 -1.2934  1.3742 -1.3165
 2085TIP3   OH227669   3.387   1.300   4.975  0.3092 -0.0397  0.0020
 2085TIP3    H127670   3.444   1.315   5.050 -0.4130  0.8619  0.3837
 2085TIP3    H227671   3.298   1.312   5.009  0.0117  2.8983 -1.4894
 2086TIP3   OH227672   5.822   2.316   4.439 -0.1492  0.6259  0.7762
 2086TIP3    H127673   5.748   2.286   4.492 -1.0533  1.6825  0.1518
 2086TIP3    H227674   5.802   2.407   4.420  0.1633  0.2903 -1.3580
 2087TIP3   OH227675   4.740   3.947   0.081  0.4168  0.0679 -0.5698
 2087TIP3    H127676   4.658   3.994   0.097  0.1525 -0.0630 -1.4587
 2087TIP3    H227677   4.714   3.870   0.031  1.0480 -0.1377 -0.5900
 2088TIP3   OH227678   0.282   2.032   0.921 -0.3492 -0.1397  0.6392
 2088TIP3    H127679   0.238   2.022   0.837 -0.4476  0.4414  0.6207
 2088TIP3    H227680   0.375   2.025   0.899 -0.3986 -0.6171  0.5733
 2089TIP3   OH227681   3.620   3.195   3.379  0.0416 -0.4029  0.1180
 2089TIP3    H127682   3.542   3.197   3.435 -1.4711 -1.2118 -1.8249
 2089TIP3    H227683   3.608   3.268   3.319  1.3582  0.1140  0.4460
 2090TIP3   OH227684   2.252   2.773   0.547  0.1202  0.2475 -0.1017
 2090TIP3    H127685   2.202   2.794   0.626  0.5853  1.2990 -0.0793
 2090TIP3    H227686   2.212   2.825   0.478  1.9458  2.1600  0.1662
 2091TIP3   OH227687   6.335   1.563   5.580 -0.3382 -0.0405  0.7802
 2091TIP3    H127688   6.258   1.539   5.632  0.0630  2.3171  2.6205
 2091TIP3    H227689   6.332   1.658   5.573  2.7138  0.2328  1.4954
 2092TIP3   OH227690   2.161   1.014   1.273  0.6750  0.1215 -0.0357
 2092TIP3    H127691   2.229   0.947   1.279  0.8277  0.3431  0.7260
 2092TIP3    H227692   2.205   1.095   1.299  0.3152  0.3985 -0.2850
 2093TIP3   OH227693   2.582   6.069  11.698 -0.2259  0.1033  0.0287
 2093TIP3    H127694   2.497   6.036  11.729 -0.1558  0.3956  0.5354
 2093TIP3    H227695   2.563   6.157  11.665 -0.2785 -0.1626 -0.6626
 2094TIP3   OH227696   0.187   3.033  16.776 -0.1565  0.2225 -0.0667
 2094TIP3    H127697   0.140   2.993  16.703 -1.0760 -1.6749  1.4708
 2094TIP3    H227698   0.232   2.960  16.819 -1.0724  0.9351  2.2837
 2095TIP3   OH227699   4.727   0.591   0.972 -0.2129 -0.1157  0.2855
 2095TIP3    H127700   4.754   0.504   0.999  1.9030  0.5350  0.4579
 2095TIP3    H227701   4.717   0.585   0.877  1.6806 -0.1555  0.0556
 2096TIP3   OH227702   3.702   3.116   2.738  0.2864  0.6556 -0.1214
 2096TIP3    H127703   3.760   3.067   2.680  0.5584  2.5276 -1.5456
 2096TIP3    H227704   3.630   3.055   2.758  0.8747 -0.4857 -1.3431
 2097TIP3   OH227705   0.525   5.014   4.751  0.1330 -0.0800  0.8266
 2097TIP3    H127706   0.461   5.083   4.770 -0.2853 -0.3686  0.5080
 2097TIP3    H227707   0.603   5.060   4.722 -0.0867  0.2686  0.7869
 2098TIP3   OH227708   1.153   3.520  12.622  0.1492  0.0519  0.0470
 2098TIP3    H127709   1.074   3.568  12.643 -1.1195 -2.0753  0.4602
 2098TIP3    H227710   1.215   3.586  12.592 -1.6825  1.8055 -0.0331
 2099TIP3   OH227711   2.590   0.218  16.045  0.2190 -0.4737  0.1785
 2099TIP3    H127712   2.521   0.252  15.988 -2.1581 -3.6222  0.9396
 2099TIP3    H227713   2.667   0.211  15.988 -1.3501 -1.0809 -1.9971
 2100TIP3   OH227714   0.961   3.398  11.665 -0.0874  0.3079 -0.2921
 2100TIP3    H127715   1.051   3.394  11.634  0.0466 -0.2673  0.1524
 2100TIP3    H227716   0.926   3.310  11.650  0.3465 -0.3629  2.2034
 2101TIP3   OH227717   5.355   6.195   6.023  0.1930 -0.7432  0.1823
 2101TIP3    H127718   5.438   6.179   6.067 -0.1244 -1.7613  0.4488
 2101TIP3    H227719   5.317   6.108   6.011 -1.8977 -0.2230  2.1877
 2102TIP3   OH227720   3.126   0.278   0.729 -0.2601 -0.1263  0.7981
 2102TIP3    H127721   3.198   0.299   0.670  1.4388 -0.2026  2.7198
 2102TIP3    H227722   3.111   0.359   0.778 -1.0442 -0.3026  0.8601
 2103TIP3   OH227723   6.569   2.319  14.589  0.5157 -1.1555  0.6464
 2103TIP3    H127724   6.614   2.358  14.664 -0.1351 -0.2883  0.5901
 2103TIP3    H227725   6.608   2.362  14.513 -0.7773  0.0134  0.6203
 2104TIP3   OH227726   1.866   0.455   4.032 -0.2179  0.2085 -0.1541
 2104TIP3    H127727   1.958   0.442   4.012 -0.0154 -0.2089  0.9943
 2104TIP3    H227728   1.820   0.426   3.953  0.6449  1.1586 -1.0449
 2105TIP3   OH227729   2.262   0.137   4.422 -0.6468 -0.2261 -0.1952
 2105TIP3    H127730   2.248   0.059   4.477 -1.0620  0.7807  1.1877
 2105TIP3    H227731   2.228   0.209   4.474  0.3140  0.9784 -1.1743
 2106TIP3   OH227732   2.596   6.483  12.940  0.0937  0.1464  0.1046
 2106TIP3    H127733   2.526   6.543  12.965  0.0919 -0.0274  0.5304
 2106TIP3    H227734   2.552   6.415  12.889 -0.1812 -0.3651  1.0007
 2107TIP3   OH227735   5.750   1.447  16.737  0.4727 -0.0950 -0.0724
 2107TIP3    H127736   5.817   1.493  16.787  0.9584 -0.0296 -0.7655
 2107TIP3    H227737   5.668   1.466  16.783  0.9458 -0.3758  0.9317
 2108TIP3   OH227738   3.176   4.535   4.522 -0.3529  0.1127 -0.2793
 2108TIP3    H127739   3.100   4.593   4.521  0.1029  0.7415  0.4960
 2108TIP3    H227740   3.194   4.518   4.429 -0.7937  0.8004 -0.5002
 2109TIP3   OH227741   5.107   3.857  16.883  0.2171 -0.0471 -0.4721
 2109TIP3    H127742   5.133   3.824  16.797  0.5898 -0.0039 -0.3775
 2109TIP3    H227743   5.030   3.805  16.906  0.0013  0.0712 -0.9140
 2110TIP3   OH227744   1.459   3.190   4.932 -0.0797  0.6721 -0.0553
 2110TIP3    H127745   1.456   3.270   4.984  2.2043  0.6926  0.1602
 2110TIP3    H227746   1.430   3.216   4.845  1.1747  1.9294 -0.1334
 2111TIP3   OH227747   3.291   1.718  14.164 -0.1072 -0.4381  0.2792
 2111TIP3    H127748   3.231   1.724  14.239  0.6123  1.9816  0.7637
 2111TIP3    H227749   3.276   1.799  14.115  2.0570 -0.1976 -0.0959
 2112TIP3   OH227750   5.908   5.264   6.352 -0.0700  0.8586  0.0760
 2112TIP3    H127751   5.964   5.326   6.307 -3.4242  2.0151 -2.9660
 2112TIP3    H227752   5.865   5.316   6.420 -1.9150  1.7335 -1.6424
 2113TIP3   OH227753   2.940   0.912   1.809 -0.6917 -0.3117  0.3071
 2113TIP3    H127754   2.899   0.825   1.813  1.6935 -1.5529 -0.3028
 2113TIP3    H227755   3.006   0.909   1.878  1.2420 -0.0186 -1.4648
 2114TIP3   OH227756   6.095   3.209   0.053  0.3227 -0.2996  0.1968
 2114TIP3    H127757   6.133   3.287   0.014  0.2491  0.6437  1.9092
 2114TIP3    H227758   6.002   3.228   0.060  0.1015 -1.0687 -0.5337
 2115TIP3   OH227759   2.633   0.673  13.671 -0.1335 -0.3238 -0.3671
 2115TIP3    H127760   2.690   0.681  13.594 -1.0186  1.8574 -0.8586
 2115TIP3    H227761   2.691   0.690  13.746  0.0743  1.0532 -0.8109
 2116TIP3   OH227762   0.494   2.018  16.002  0.3429  0.2764  0.5817
 2116TIP3    H127763   0.463   1.951  15.942  1.4141  0.1313  0.1717
 2116TIP3    H227764   0.419   2.034  16.061 -1.1222  1.1771 -1.4060
 2117TIP3   OH227765   5.185   2.418   1.712  0.0702  0.1161  0.3427
 2117TIP3    H127766   5.200   2.342   1.770 -1.3683  0.2508  0.9441
 2117TIP3    H227767   5.269   2.462   1.709  0.9730 -1.5433 -0.0778
 2118TIP3   OH227768   1.027   3.206  11.287 -0.6334  0.0528 -0.3544
 2118TIP3    H127769   1.055   3.252  11.207 -1.4061  3.4126  1.1441
 2118TIP3    H227770   1.108   3.170  11.323 -0.0201 -0.0139 -1.7340
 2119TIP3   OH227771   3.676   4.487   1.419  0.6779  0.2734  0.1528
 2119TIP3    H127772   3.617   4.554   1.451  0.2985 -0.2591  0.5936
 2119TIP3    H227773   3.622   4.408   1.411  1.1231  0.0058 -0.2972
 2120TIP3   OH227774   2.115   5.390   3.223  0.0753 -0.7884  0.2816
 2120TIP3    H127775   2.041   5.447   3.245  0.2058  0.3946 -2.0513
 2120TIP3    H227776   2.189   5.449   3.211  1.4585 -1.9379  2.3701
 2121TIP3   OH227777   0.132   1.123  14.547 -0.5768  0.2514 -0.1192
 2121TIP3    H127778   0.039   1.108  14.532 -0.9905  1.9106  0.5280
 2121TIP3    H227779   0.154   1.196  14.491  0.5451 -0.5865 -0.8126
 2122TIP3   OH227780   1.527   0.588  15.702  0.1765  0.0588 -0.3490
 2122TIP3    H127781   1.480   0.657  15.749 -2.2560 -1.2329 -0.7817
 2122TIP3    H227782   1.598   0.564  15.762  0.1901  1.8769  0.4447
 2123TIP3   OH227783   1.974   2.930   3.169  0.2699  0.2179 -0.3517
 2123TIP3    H127784   1.884   2.915   3.200  0.3140 -0.2710 -0.4608
 2123TIP3    H227785   2.028   2.873   3.223  0.4646  0.1442 -0.6258
 2124TIP3   OH227786   4.879   4.338  14.362  0.2466  0.8474 -0.3874
 2124TIP3    H127787   4.861   4.406  14.427 -2.7975 -0.1289 -0.0348
 2124TIP3    H227788   4.805   4.343  14.302  1.1176 -0.6943 -1.6507
 2125TIP3   OH227789   5.884   0.231   4.002  0.0128  0.2713 -0.3753
 2125TIP3    H127790   5.897   0.305   3.944 -0.4145 -0.2453 -1.1587
 2125TIP3    H227791   5.901   0.154   3.947  0.7884 -0.2108  0.5045
 2126TIP3   OH227792   3.929   4.958  13.779  0.3421 -0.0654 -0.5522
 2126TIP3    H127793   3.849   4.973  13.729 -0.4919 -1.7049  0.2114
 2126TIP3    H227794   3.902   4.904  13.852  1.5142  2.2069  1.7374
 2127TIP3   OH227795   5.357   2.077  16.788 -0.4799  0.2383  0.2224
 2127TIP3    H127796   5.309   2.072  16.705  1.6158  0.5849 -1.0992
 2127TIP3    H227797   5.293   2.054  16.855 -2.8199  1.9397 -1.2780
 2128TIP3   OH227798   4.399   5.204   6.033 -0.3197  0.9687  0.1343
 2128TIP3    H127799   4.318   5.194   5.983 -0.7053 -1.2791  1.1051
 2128TIP3    H227800   4.376   5.261   6.106 -0.7632  1.1191 -0.1223
 2129TIP3   OH227801   0.649   1.907  16.679  0.8557  0.6112  0.3931
 2129TIP3    H127802   0.617   1.817  16.684  0.2953  0.8043  0.3471
 2129TIP3    H227803   0.579   1.955  16.634  1.5180  0.9003 -0.3416
 2130TIP3   OH227804   0.514   4.823  14.148  0.1621 -0.0054  0.3168
 2130TIP3    H127805   0.602   4.784  14.157  1.8340  2.1901 -3.8438
 2130TIP3    H227806   0.520   4.905  14.198 -0.5641 -1.0379  2.2211
 2131TIP3   OH227807   0.192   3.939   5.538  0.2672 -0.4030  0.1164
 2131TIP3    H127808   0.219   3.871   5.476 -1.9788 -1.3986  0.1405
 2131TIP3    H227809   0.124   3.897   5.592 -1.5818  1.9852 -0.2030
 2132TIP3   OH227810   1.835   4.392  16.667  0.1919 -0.6046 -0.2061
 2132TIP3    H127811   1.763   4.342  16.629 -0.2417 -0.2221  0.0976
 2132TIP3    H227812   1.912   4.364  16.618 -0.2894 -0.4376 -1.0827
 2133TIP3   OH227813   3.516   5.493  10.842  0.3936 -0.1108 -0.9231
 2133TIP3    H127814   3.594   5.442  10.864  0.0785 -0.6750 -1.0855
 2133TIP3    H227815   3.477   5.446  10.768  0.1062  0.3832 -1.0931
 2134TIP3   OH227816   4.062   5.409  14.591  0.1088 -0.0072 -0.4730
 2134TIP3    H127817   4.098   5.381  14.507 -0.4876 -0.6205 -0.5314
 2134TIP3    H227818   4.026   5.329  14.629 -1.2585  0.6020 -0.4463
 2135TIP3   OH227819   0.602   3.820   4.103 -0.2982  0.2148  0.2567
 2135TIP3    H127820   0.602   3.896   4.162  0.8816  1.2707 -1.0197
 2135TIP3    H227821   0.559   3.751   4.153  0.5469  1.0797  2.3057
 2136TIP3   OH227822   3.967   6.245  17.185  0.0371  0.2878 -0.1344
 2136TIP3    H127823   4.032   6.221  17.252 -0.0267  1.1583  0.2544
 2136TIP3    H227824   3.991   6.334  17.159  0.0647 -0.0459 -1.2939
 2137TIP3   OH227825   3.450   5.895   5.536  0.2374  0.2753 -0.0790
 2137TIP3    H127826   3.540   5.873   5.514 -0.3944 -0.9695 -1.5518
 2137TIP3    H227827   3.452   5.913   5.630  1.8444 -0.6028  0.0772
 2138TIP3   OH227828   0.450   0.884   5.364 -0.1986 -0.7588  0.2578
 2138TIP3    H127829   0.470   0.802   5.318 -0.1923 -3.2402  4.1533
 2138TIP3    H227830   0.368   0.866   5.410 -1.2661  2.2434 -0.2792
 2139TIP3   OH227831   6.437   5.516  13.330 -0.4203 -0.3071 -0.1408
 2139TIP3    H127832   6.491   5.457  13.276 -0.7361 -1.6405  0.9478
 2139TIP3    H227833   6.456   5.603  13.296  2.2470 -0.7291  0.0358
 2140TIP3   OH227834   3.964   2.161  12.197 -0.0261  0.6697 -0.2417
 2140TIP3    H127835   3.886   2.107  12.210  0.5067  0.1574  0.9716
 2140TIP3    H227836   3.949   2.206  12.114 -2.4942  2.0871  0.8883
 2141TIP3   OH227837   2.584   5.313   3.808 -0.2711 -0.6802  0.5555
 2141TIP3    H127838   2.508   5.273   3.850 -0.0335 -0.2851  1.3927
 2141TIP3    H227839   2.640   5.339   3.881  0.4325 -0.5088 -0.0361
 2142TIP3   OH227840   5.937   5.317  14.005 -0.5892 -0.2661  0.0629
 2142TIP3    H127841   6.014   5.322  13.948  0.1422 -1.0248  0.9469
 2142TIP3    H227842   5.938   5.227  14.039 -3.1951 -1.0837 -1.7065
 2143TIP3   OH227843   2.959   3.829   4.143  0.2340  0.2751  0.6814
 2143TIP3    H127844   2.877   3.823   4.192 -0.8666  2.4177 -0.7856
 2143TIP3    H227845   2.940   3.787   4.059  1.8175 -2.4918  1.5606
 2144TIP3   OH227846   1.212   2.714   0.411  0.0355 -0.3829  0.4002
 2144TIP3    H127847   1.195   2.769   0.335 -0.5496  0.7369  1.3127
 2144TIP3    H227848   1.269   2.644   0.378  1.2441  1.0587 -0.6870
 2145TIP3   OH227849   4.202   0.821  12.664  0.5929  0.3504  0.0990
 2145TIP3    H127850   4.274   0.880  12.689  0.7988  0.9124 -1.7111
 2145TIP3    H227851   4.230   0.783  12.581 -0.5767 -0.5569  0.0977
 2146TIP3   OH227852   0.713   3.821   2.729 -0.2572  0.3272  0.5174
 2146TIP3    H127853   0.728   3.739   2.681 -2.8522 -0.9125  1.6429
 2146TIP3    H227854   0.671   3.879   2.666  0.4273  0.3356  0.0667
 2147TIP3   OH227855   6.132   0.524  15.071  0.1379  0.3009 -0.7525
 2147TIP3    H127856   6.056   0.575  15.044  0.7106  0.6793 -1.7421
 2147TIP3    H227857   6.159   0.479  14.991 -0.4808 -1.7629  0.1448
 2148TIP3   OH227858   5.471   1.261  12.732 -0.4936 -0.2638 -0.3659
 2148TIP3    H127859   5.437   1.299  12.813 -1.3093 -1.4449 -0.1238
 2148TIP3    H227860   5.427   1.176  12.726  0.3655 -0.6438 -1.5000
 2149TIP3   OH227861   0.232   2.213  13.981 -0.0412 -0.3923 -0.1700
 2149TIP3    H127862   0.238   2.119  13.963  0.5688 -0.1251 -1.4830
 2149TIP3    H227863   0.144   2.225  14.017 -0.4283 -1.3542 -0.7688
 2150TIP3   OH227864   1.529   4.538   4.552  0.1928 -0.5031  0.5532
 2150TIP3    H127865   1.560   4.628   4.550  1.6693 -0.9801  0.9030
 2150TIP3    H227866   1.482   4.530   4.635  0.8978 -0.3209  0.9694
 2151TIP3   OH227867   2.668   5.529  11.113  0.0555 -0.2389 -0.0263
 2151TIP3    H127868   2.725   5.456  11.093 -2.3395 -2.2267 -0.0762
 2151TIP3    H227869   2.604   5.531  11.041  0.7626  2.7667 -0.7261
 2152TIP3   OH227870   3.075   3.145   2.952 -0.0552  0.5126  0.1655
 2152TIP3    H127871   2.990   3.116   2.920  0.1111 -0.8982  0.8967
 2152TIP3    H227872   3.057   3.227   2.999 -1.2717 -0.4711  1.5052
 2153TIP3   OH227873   4.267   2.978  12.652 -0.0573  0.2910  0.5014
 2153TIP3    H127874   4.310   2.893  12.657 -0.4335  0.1349  1.2905
 2153TIP3    H227875   4.295   3.014  12.569 -1.5079 -1.4766 -0.8353
 2154TIP3   OH227876   4.232   2.951  16.462 -0.2133 -0.3353 -0.0756
 2154TIP3    H127877   4.213   2.864  16.498  0.2055 -0.3559  0.1015
 2154TIP3    H227878   4.233   3.009  16.538 -1.7827  0.0652 -0.3296
 2155TIP3   OH227879   4.405   5.779  13.367 -0.4436 -0.4964  0.4831
 2155TIP3    H127880   4.486   5.818  13.335 -0.3169 -1.0878  0.0697
 2155TIP3    H227881   4.380   5.833  13.442  1.2899 -1.3722  1.7634
 2156TIP3   OH227882   4.610   1.902  16.739  0.3931 -0.4243  0.4562
 2156TIP3    H127883   4.595   1.917  16.833  0.2265 -1.2476  0.5728
 2156TIP3    H227884   4.644   1.812  16.735  1.0714 -0.1520 -0.2106
 2157TIP3   OH227885   2.828   3.250   0.873 -0.2814 -0.5931 -0.3189
 2157TIP3    H127886   2.806   3.213   0.788  1.8340  1.4155 -1.8745
 2157TIP3    H227887   2.744   3.269   0.914 -1.3567 -1.6985 -1.8796
 2158TIP3   OH227888   2.121   3.808   2.420 -0.1122 -0.7151  0.2933
 2158TIP3    H127889   2.061   3.779   2.350  1.7714 -2.5184 -0.6990
 2158TIP3    H227890   2.132   3.731   2.475  0.8753 -0.2458  0.7705
 2159TIP3   OH227891   1.049   2.862  12.791  0.4829  0.2036  0.1833
 2159TIP3    H127892   0.983   2.801  12.824  0.4986 -0.7253 -1.4154
 2159TIP3    H227893   1.057   2.842  12.698 -1.3759  4.3718 -1.1039
 2160TIP3   OH227894   5.190   3.899  11.279  0.1720 -0.2113 -0.2864
 2160TIP3    H127895   5.228   3.979  11.313  0.1343 -0.4918  0.4359
 2160TIP3    H227896   5.110   3.886  11.331  0.9595 -1.5106  0.6738
 2161TIP3   OH227897   2.113   1.798   5.229  0.3217 -0.6496  0.9935
 2161TIP3    H127898   2.057   1.770   5.157 -1.6237 -1.3501  2.7058
 2161TIP3    H227899   2.130   1.891   5.211  0.1542 -0.8764 -0.4908
 2162TIP3   OH227900   0.675   3.272  14.027 -0.0112 -0.0931 -0.5406
 2162TIP3    H127901   0.672   3.284  14.122  0.6889  1.6031 -0.6844
 2162TIP3    H227902   0.583   3.258  14.001 -0.5475  1.8106  0.1621
 2163TIP3   OH227903   5.689   0.054  16.754 -0.4928  0.2667 -0.2159
 2163TIP3    H127904   5.710   0.046  16.847 -1.1045  3.0915  0.2553
 2163TIP3    H227905   5.761   0.010  16.709  0.4051 -0.1665  1.5669
 2164TIP3   OH227906   5.440   4.433  14.199  0.0292  0.2885 -0.4635
 2164TIP3    H127907   5.348   4.415  14.181 -0.2877  1.3177  0.0014
 2164TIP3    H227908   5.487   4.356  14.167 -0.8980  0.1657 -1.5966
 2165TIP3   OH227909   1.281   0.707  14.599  0.0581  0.0437  0.0209
 2165TIP3    H127910   1.191   0.722  14.572 -0.3023 -0.7429  0.7440
 2165TIP3    H227911   1.318   0.653  14.529 -0.4053 -0.6601  0.3081
 2166TIP3   OH227912   1.611   4.284  15.765  0.0443 -0.0521  0.3010
 2166TIP3    H127913   1.624   4.223  15.837  2.0534 -0.2754 -0.1947
 2166TIP3    H227914   1.550   4.240  15.706  0.3948 -0.9799  0.6231
 2167TIP3   OH227915   0.672   2.579  17.409 -0.0676 -0.1011  0.0943
 2167TIP3    H127916   0.761   2.599  17.438 -0.4481  1.7825  0.0629
 2167TIP3    H227917   0.675   2.589  17.314 -0.1602 -0.6846  0.0296
 2168TIP3   OH227918   2.284   2.007  14.861  0.0842 -0.5617  0.4140
 2168TIP3    H127919   2.296   1.940  14.928 -2.4215 -1.7111 -0.1589
 2168TIP3    H227920   2.347   1.984  14.792  1.3518 -0.4910  1.5147
 2169TIP3   OH227921   3.598   4.197   1.397  0.2028  0.5661  1.1081
 2169TIP3    H127922   3.545   4.209   1.318  2.1038  2.2079 -0.0040
 2169TIP3    H227923   3.667   4.136   1.370 -0.1380 -0.2913  2.0803
 2170TIP3   OH227924   3.744   5.286   6.441 -0.0504 -0.3471 -0.1194
 2170TIP3    H127925   3.800   5.281   6.364 -0.6316  1.4671 -0.7093
 2170TIP3    H227926   3.689   5.363   6.426 -0.7577 -0.4344  1.7329
 2171TIP3   OH227927   5.252   4.672   2.368  0.6326 -0.7265 -0.3804
 2171TIP3    H127928   5.346   4.672   2.387  0.6631 -0.0482 -0.5225
 2171TIP3    H227929   5.247   4.662   2.273  0.5687 -0.5671 -0.3940
 2172TIP3   OH227930   6.000   2.391   1.032 -0.0178 -0.2195 -0.0642
 2172TIP3    H127931   6.076   2.366   0.978 -1.0690  0.2805 -1.8498
 2172TIP3    H227932   5.931   2.331   1.004 -0.9362  0.8699 -0.1566
 2173TIP3   OH227933   5.148   0.436  15.605 -0.2694 -0.0579  0.2172
 2173TIP3    H127934   5.204   0.448  15.682  1.3339 -0.9993 -0.7651
 2173TIP3    H227935   5.192   0.370  15.552 -2.4488 -1.0495 -0.5027
 2174TIP3   OH227936   5.235   4.641   0.693 -0.2503 -0.6502 -0.2309
 2174TIP3    H127937   5.304   4.604   0.747 -1.6463  0.7587  2.7706
 2174TIP3    H227938   5.236   4.588   0.613  4.5017 -0.3857 -0.6252
 2175TIP3   OH227939   3.104   4.282  15.210 -0.1899  0.2691 -0.0881
 2175TIP3    H127940   3.064   4.244  15.288 -0.6109  1.2418  0.1851
 2175TIP3    H227941   3.194   4.249  15.211 -0.0543  0.6216  1.0703
 2176TIP3   OH227942   0.260   3.778  16.859 -0.0444  0.2977 -0.1099
 2176TIP3    H127943   0.238   3.735  16.777 -0.1410 -1.8645  0.9908
 2176TIP3    H227944   0.342   3.825  16.840 -0.6439  0.7510 -1.7036
 2177TIP3   OH227945   3.139   4.486  11.548 -0.2206  0.0738  0.5470
 2177TIP3    H127946   3.205   4.488  11.479  2.4591 -0.9416  2.8671
 2177TIP3    H227947   3.086   4.408  11.528  1.8661 -1.4714  0.6735
 2178TIP3   OH227948   1.580   3.704   4.585  0.4734  0.3498  0.3903
 2178TIP3    H127949   1.545   3.769   4.524 -1.0681 -1.4630 -0.8019
 2178TIP3    H227950   1.671   3.692   4.558 -0.6814 -1.9391 -3.1818
 2179TIP3   OH227951   4.704   2.281   2.987  0.1817 -0.2278  0.1529
 2179TIP3    H127952   4.781   2.290   2.930 -0.6091 -2.0861 -1.3294
 2179TIP3    H227953   4.741   2.261   3.073  1.3885 -0.1003 -0.3055
 2180TIP3   OH227954   4.625   6.578  12.741 -0.5303 -0.1664 -0.0194
 2180TIP3    H127955   4.706   6.604  12.785 -0.4425  0.4991 -0.5499
 2180TIP3    H227956   4.635   6.484  12.726 -0.9735 -0.6210  2.1973
 2181TIP3   OH227957   6.503   5.100   0.144 -0.4788 -0.8726  0.0890
 2181TIP3    H127958   6.495   5.015   0.187  1.2332 -1.3601 -0.4616
 2181TIP3    H227959   6.596   5.121   0.149 -0.8025  0.7517 -0.2110
 2182TIP3   OH227960   5.438   2.806   0.307 -0.2466  0.2689  0.0875
 2182TIP3    H127961   5.497   2.757   0.365 -0.1577  0.3787  0.0908
 2182TIP3    H227962   5.494   2.833   0.234  0.0350  1.5550  0.7608
 2183TIP3   OH227963   2.169   6.219   1.069 -0.2351  0.0842 -0.2521
 2183TIP3    H127964   2.105   6.223   0.998 -1.1895 -1.4402  0.4770
 2183TIP3    H227965   2.246   6.177   1.030 -0.2362  0.5209 -0.7314
 2184TIP3   OH227966   1.280   5.444   2.891  0.0406  0.0433 -0.7446
 2184TIP3    H127967   1.347   5.409   2.950 -0.8146 -0.0821  0.1778
 2184TIP3    H227968   1.197   5.426   2.935 -0.5897  0.5325 -1.6878
 2185TIP3   OH227969   6.509   2.898  11.714  0.7690 -0.0491 -0.6770
 2185TIP3    H127970   6.463   2.818  11.737 -0.2139  0.9691  1.1057
 2185TIP3    H227971   6.456   2.937  11.644  0.5708 -0.3562 -0.6967
 2186TIP3   OH227972   0.156   3.498  13.738  0.2392  0.1221  0.3483
 2186TIP3    H127973   0.141   3.431  13.671 -2.3921 -0.0999  1.0315
 2186TIP3    H227974   0.094   3.567  13.716 -0.0947  0.4080  2.0717
 2187TIP3   OH227975   3.832   3.559  13.702  0.2083 -0.1257  0.1406
 2187TIP3    H127976   3.843   3.592  13.613 -0.5415 -0.3433 -0.0307
 2187TIP3    H227977   3.740   3.535  13.708 -0.2570  1.7532  1.6003
 2188TIP3   OH227978   1.542   5.121   2.314 -0.1968 -0.2278  0.3698
 2188TIP3    H127979   1.591   5.091   2.237  0.6467  1.0681  0.3757
 2188TIP3    H227980   1.489   5.045   2.340  2.9074 -2.2553  1.2976
 2189TIP3   OH227981   6.025   6.210  15.179 -0.0764 -0.7498  0.0202
 2189TIP3    H127982   6.038   6.120  15.209 -1.2700 -0.5815  1.1654
 2189TIP3    H227983   6.005   6.202  15.086  0.6346 -1.5922 -0.0629
 2190TIP3   OH227984   0.316   4.673  16.838 -0.1081  0.3645  0.1651
 2190TIP3    H127985   0.372   4.720  16.900  1.0570  0.4909 -0.9276
 2190TIP3    H227986   0.335   4.581  16.854  0.6805  0.4146 -0.4067
 2191TIP3   OH227987   5.871   4.436  12.231 -1.2060  0.4711  0.3644
 2191TIP3    H127988   5.812   4.468  12.163 -2.3042 -0.4977  0.8328
 2191TIP3    H227989   5.835   4.469  12.313 -0.4121  0.8680  0.5614
 2192TIP3   OH227990   3.095   0.620   4.730 -0.2649  0.2306  0.5122
 2192TIP3    H127991   3.123   0.685   4.794  1.0649 -0.0986  0.2775
 2192TIP3    H227992   3.084   0.540   4.781  2.0870 -0.3692  0.1530
 2193TIP3   OH227993   5.807   2.924  13.108  0.0469 -0.0755  0.0163
 2193TIP3    H127994   5.736   2.980  13.140 -1.4365 -1.9020  0.0480
 2193TIP3    H227995   5.816   2.856  13.174  0.0921 -1.2915 -1.2083
 2194TIP3   OH227996   2.716   4.122  14.585  0.7935 -0.5884 -0.8315
 2194TIP3    H127997   2.658   4.092  14.654  0.2509 -0.0456 -1.0476
 2194TIP3    H227998   2.688   4.212  14.567  1.0037 -0.6836 -1.6747
 2195TIP3   OH227999   0.636   4.956   4.097  0.0504  0.0993  0.5197
 2195TIP3    H128000   0.617   4.977   4.006  0.3359 -0.8305  0.2293
 2195TIP3    H228001   0.581   4.881   4.117  0.3668 -0.0243  0.9535
 2196TIP3   OH228002   3.949   6.498   0.166 -0.2375  0.0599  0.4004
 2196TIP3    H128003   4.030   6.548   0.163 -0.0265 -0.3211 -0.4714
 2196TIP3    H228004   3.931   6.487   0.260  2.0478 -1.9714  0.7183
 2197TIP3   OH228005   3.734   6.546  14.445  0.5700 -0.1590 -0.4834
 2197TIP3    H128006   3.715   6.497  14.525 -0.2875 -0.3496 -0.7847
 2197TIP3    H228007   3.823   6.580  14.457 -0.1869  1.3970  1.3614
 2198TIP3   OH228008   3.557   2.906   6.667 -0.1431  0.0635 -0.1251
 2198TIP3    H128009   3.482   2.921   6.725  0.5845  1.0432  0.6012
 2198TIP3    H228010   3.589   2.819   6.692 -1.1068 -0.4317 -0.5478
 2199TIP3   OH228011   5.532   4.792   1.549 -0.6629 -0.3155 -0.1908
 2199TIP3    H128012   5.583   4.857   1.500 -0.3263 -1.0072 -0.7884
 2199TIP3    H228013   5.444   4.797   1.511 -1.1280  1.0447  1.0016
 2200TIP3   OH228014   4.193   2.671  16.361  0.1697  0.3209  0.1775
 2200TIP3    H128015   4.219   2.585  16.394  0.6658  1.4665  3.0228
 2200TIP3    H228016   4.139   2.708  16.430  0.6354  2.6396 -0.6167
 2201TIP3   OH228017   1.102   1.975   3.907 -0.5350 -0.2964  0.1356
 2201TIP3    H128018   1.100   1.941   3.997  1.5060 -1.9045 -0.3516
 2201TIP3    H228019   1.078   1.900   3.852 -1.9387  0.7151 -0.6833
 2202TIP3   OH228020   1.402   0.384  15.357 -0.4141  0.1796  0.2806
 2202TIP3    H128021   1.420   0.333  15.278 -0.9426  0.0499  0.2383
 2202TIP3    H228022   1.422   0.474  15.332  1.2500 -0.0801  0.5837
 2203TIP3   OH228023   3.079   0.850  15.093  0.2593  0.2760  0.0099
 2203TIP3    H128024   3.130   0.931  15.100  1.7014 -0.7013  1.8639
 2203TIP3    H228025   3.069   0.821  15.184 -0.9053 -1.2168 -0.5645
 2204TIP3   OH228026   0.509   5.249   0.281  0.4663 -0.1579 -0.6193
 2204TIP3    H128027   0.557   5.188   0.225  0.8353 -0.4235 -0.0248
 2204TIP3    H228028   0.420   5.214   0.283  0.7399 -0.8647 -0.0480
 2205TIP3   OH228029   5.317   0.785   4.039 -0.1585  0.2565  0.0824
 2205TIP3    H128030   5.311   0.698   4.001 -1.3601  0.1624  0.4662
 2205TIP3    H228031   5.227   0.811   4.056  0.1003  1.9565 -0.8706
 2206TIP3   OH228032   4.791   6.294  14.966  0.2966  0.3248 -0.1912
 2206TIP3    H128033   4.756   6.254  15.046  0.2491  0.4258 -0.1611
 2206TIP3    H228034   4.827   6.221  14.916  1.0281  0.3611  0.2726
 2207TIP3   OH228035   6.680   4.078  10.236  0.4031  0.8326 -0.4334
 2207TIP3    H128036   6.736   4.076  10.313  0.7460  0.0049 -0.6956
 2207TIP3    H228037   6.614   4.011  10.251 -0.1839  1.4075 -0.3859
 2208TIP3   OH228038   2.541   4.030  12.450 -0.2016  0.1532  0.1649
 2208TIP3    H128039   2.606   4.019  12.519 -0.5833  0.2594  0.5391
 2208TIP3    H228040   2.510   4.119  12.460 -0.4978  0.0620  0.0627
 2209TIP3   OH228041   0.016   6.183  10.842 -0.1918 -0.0622 -0.3392
 2209TIP3    H128042   0.089   6.228  10.799  0.2978 -0.0538  0.4906
 2209TIP3    H228043   0.052   6.097  10.866 -0.3408  0.0877  0.4212
 2210TIP3   OH228044   6.675   5.699  15.551  0.6306  0.3269 -0.7650
 2210TIP3    H128045   6.594   5.719  15.504  0.8580  0.9576 -0.9001
 2210TIP3    H228046   6.649   5.699  15.644  0.0950 -1.3296 -0.8822
 2211TIP3   OH228047   5.944   4.924   2.705 -0.1970  0.0535  0.2774
 2211TIP3    H128048   5.860   4.937   2.748 -0.0706  1.0756  0.2266
 2211TIP3    H228049   5.997   4.875   2.768 -0.9111 -0.8594  0.1941
 2212TIP3   OH228050   4.478   5.208   2.486 -0.3872  0.0629  0.1238
 2212TIP3    H128051   4.565   5.205   2.447 -0.1339  1.1240  0.5706
 2212TIP3    H228052   4.431   5.136   2.445  1.2160 -1.6708  1.1468
 2213TIP3   OH228053   3.618   6.585  11.615 -0.2292  0.0226 -0.5748
 2213TIP3    H128054   3.655   6.673  11.604 -1.5955  0.6966  0.0739
 2213TIP3    H228055   3.571   6.569  11.533  1.5685 -0.9243 -1.4910
 2214TIP3   OH228056   3.806   3.218  16.556  0.0524  0.3352 -0.2393
 2214TIP3    H128057   3.745   3.259  16.617 -0.5552  0.1065 -0.6786
 2214TIP3    H228058   3.823   3.285  16.490 -0.9200 -0.0879 -0.9417
 2215TIP3   OH228059   5.284   5.950  17.407  0.4016 -0.7571 -0.3537
 2215TIP3    H128060   5.248   5.887  17.344 -1.4736 -0.1485  0.0381
 2215TIP3    H228061   5.246   6.034  17.380 -0.0152 -0.3999  1.2734
 2216TIP3   OH228062   2.085   1.426  15.227  0.2605  0.3850  0.2459
 2216TIP3    H128063   1.994   1.421  15.256  0.5406  0.5650  1.1833
 2216TIP3    H228064   2.123   1.496  15.280  0.5337  1.4667 -1.2810
 2217TIP3   OH228065   6.062   5.469   4.166  0.7561  0.4999 -0.1486
 2217TIP3    H128066   6.055   5.388   4.117  1.0313  0.8556 -0.7940
 2217TIP3    H228067   6.024   5.535   4.108  3.4987  1.3965 -1.0714
 2218TIP3   OH228068   1.754   0.588  15.874  0.5791 -0.0576  0.2106
 2218TIP3    H128069   1.800   0.507  15.898  1.1355 -0.2860 -1.4217
 2218TIP3    H228070   1.824   0.645  15.842 -0.0635  0.1656 -0.8622
 2219TIP3   OH228071   6.014   0.183   3.225  0.9330 -0.2487 -0.0256
 2219TIP3    H128072   6.011   0.268   3.183 -1.1211  0.7772  1.9405
 2219TIP3    H228073   6.093   0.185   3.279  1.6820 -0.2065 -1.1026
 2220TIP3   OH228074   3.270   4.516   0.105 -0.3999  0.3769  0.0027
 2220TIP3    H128075   3.179   4.542   0.091 -0.1827  0.9129 -0.4604
 2220TIP3    H228076   3.272   4.423   0.085 -0.4831  0.7358 -1.7932
 2221TIP3   OH228077   3.661   4.978   4.997 -0.2426 -0.3014  0.1151
 2221TIP3    H128078   3.708   4.994   5.079  0.1997 -1.5939  0.1396
 2221TIP3    H228079   3.664   4.883   4.986 -0.9355 -0.2110 -1.0326
 2222TIP3   OH228080   2.006   3.952   5.204 -0.1191  0.1107  0.2704
 2222TIP3    H128081   1.981   4.022   5.144 -1.8251  0.5002  1.3459
 2222TIP3    H228082   2.003   3.993   5.291 -0.6436 -1.1376  0.8737
 2223TIP3   OH228083   2.171   2.395  16.767  0.0280  0.7413  0.1783
 2223TIP3    H128084   2.222   2.346  16.702  0.4275 -0.6973  1.5381
 2223TIP3    H228085   2.080   2.375  16.747  0.0480  1.5548 -0.8707
 2224TIP3   OH228086   2.833   2.131  12.608  0.1276 -0.6908  0.4354
 2224TIP3    H128087   2.759   2.095  12.659  0.1096 -0.5333  0.5209
 2224TIP3    H228088   2.852   2.063  12.543 -1.1247 -0.0705 -0.6280
 2225TIP3   OH228089   3.177   4.528  16.296  0.1733 -0.4675  0.3266
 2225TIP3    H128090   3.158   4.605  16.242 -0.7704 -0.4731  0.6426
 2225TIP3    H228091   3.093   4.484  16.305  0.7436 -1.6607 -0.0271
 2226TIP3   OH228092   4.508   3.567   2.009  0.1099 -0.4366 -0.4358
 2226TIP3    H128093   4.599   3.588   2.032  0.0038 -1.3306  0.9435
 2226TIP3    H228094   4.516   3.496   1.945  0.4035 -1.0380  0.2446
 2227TIP3   OH228095   5.004   5.706  17.395 -0.8946 -0.0922  0.0835
 2227TIP3    H128096   4.978   5.682  17.306  0.8534 -0.4397 -0.3807
 2227TIP3    H228097   4.937   5.668  17.451 -1.1945 -1.2100 -0.9957
 2228TIP3   OH228098   5.715   6.113   4.352  0.2168 -0.0260 -0.1061
 2228TIP3    H128099   5.716   6.209   4.347 -0.1128 -0.0678 -1.4945
 2228TIP3    H228100   5.734   6.085   4.262  1.4002 -1.2808  0.5037
 2229TIP3   OH228101   0.832   5.855  16.646 -0.3957  0.6068 -0.2220
 2229TIP3    H128102   0.770   5.783  16.629 -0.1061  0.7894 -2.3489
 2229TIP3    H228103   0.895   5.849  16.575  1.2500  1.3084  1.1125
 2230TIP3   OH228104   3.537   3.077   5.989 -0.1740  0.4185 -0.1028
 2230TIP3    H128105   3.502   2.989   6.002 -1.5045  1.1172  1.1941
 2230TIP3    H228106   3.461   3.132   5.970  0.6197  1.3446 -0.7786
 2231TIP3   OH228107   4.015   2.857  11.671 -0.1004  0.1374 -0.8084
 2231TIP3    H128108   4.036   2.832  11.581  1.6523  0.0053 -0.4048
 2231TIP3    H228109   3.943   2.919  11.662 -0.2488 -0.2031 -2.2674
 2232TIP3   OH228110   5.956   0.583  12.080 -0.2124  0.2089  0.1234
 2232TIP3    H128111   5.894   0.637  12.129 -1.0387 -0.0644 -0.5863
 2232TIP3    H228112   5.903   0.542  12.011  0.1977 -2.1678  1.1265
 2233TIP3   OH228113   3.981   6.729  11.923 -0.6917 -0.2214 -0.5494
 2233TIP3    H128114   3.992   6.748  11.830 -1.1456 -0.0215 -0.5656
 2233TIP3    H228115   4.070   6.726  11.958 -0.5480  0.3819 -0.8525
 2234TIP3   OH228116   4.411   0.958   0.292 -0.1269 -0.0841  0.0905
 2234TIP3    H128117   4.446   1.036   0.250 -0.5985 -0.1609 -0.4475
 2234TIP3    H228118   4.349   0.991   0.356 -1.3900 -0.0497 -1.1121
 2235TIP3   OH228119   4.958   5.670   0.413 -0.2634  0.4634  0.4205
 2235TIP3    H128120   5.016   5.615   0.360 -1.8800 -1.0506  0.1162
 2235TIP3    H228121   4.927   5.738   0.352  0.9185  1.1169  0.5152
 2236TIP3   OH228122   6.609   5.640  11.952  0.0415  0.2900  0.1888
 2236TIP3    H128123   6.686   5.643  11.896  1.3478 -0.0556  1.8708
 2236TIP3    H228124   6.620   5.714  12.012 -0.8802  0.1705  0.5277
 2237TIP3   OH228125   1.946   4.698   3.613 -0.2674 -0.0211  0.2061
 2237TIP3    H128126   1.893   4.634   3.660  0.1946  1.0074  2.2515
 2237TIP3    H228127   1.954   4.663   3.524 -1.6120 -1.8040  0.7445
 2238TIP3   OH228128   1.631   4.523  13.602 -0.1807  0.1298  0.3840
 2238TIP3    H128129   1.720   4.516  13.637 -0.6593  0.0816  1.6514
 2238TIP3    H228130   1.636   4.594  13.538  0.7795  0.0801  0.3892
 2239TIP3   OH228131   1.780   4.670  15.874 -0.6686 -0.1566 -0.0791
 2239TIP3    H128132   1.697   4.669  15.826 -0.4387  1.7531 -0.5910
 2239TIP3    H228133   1.844   4.639  15.810 -0.8622 -0.8831  0.0732
 2240TIP3   OH228134   5.336   6.010   1.426 -0.0064 -0.0791 -0.2269
 2240TIP3    H128135   5.384   5.990   1.346 -1.5251 -1.2273 -0.9141
 2240TIP3    H228136   5.334   5.926   1.474  0.9026  0.5927  1.0512
 2241TIP3   OH228137   3.040   3.187  11.561 -0.3023  0.7568 -0.0484
 2241TIP3    H128138   2.949   3.167  11.582 -0.0656 -1.5741 -1.0019
 2241TIP3    H228139   3.045   3.179  11.466  1.0299  0.2333  0.0401
 2242TIP3   OH228140   0.215   0.495   1.030  0.4461 -0.0561 -0.0075
 2242TIP3    H128141   0.260   0.568   1.072 -0.7042  1.0966 -0.7208
 2242TIP3    H228142   0.198   0.433   1.101 -0.3653  1.2917  1.0265
 2243TIP3   OH228143   2.392   1.068  15.944  0.1440  0.1554 -0.0416
 2243TIP3    H128144   2.402   1.157  15.909  1.7860  0.8824  2.0510
 2243TIP3    H228145   2.434   1.012  15.879  0.9283  1.1651 -0.4268
 2244TIP3   OH228146   5.500   0.921   3.166 -0.5972  0.1302 -0.0506
 2244TIP3    H128147   5.407   0.940   3.154 -0.5105  0.6448  0.0791
 2244TIP3    H228148   5.535   0.914   3.077 -0.8347 -0.4555 -0.1027
 2245TIP3   OH228149   1.102   1.955   5.912  0.0410  0.2137  0.4396
 2245TIP3    H128150   1.021   1.985   5.870  1.0549  1.1242 -0.9444
 2245TIP3    H228151   1.103   1.861   5.896 -1.3727 -0.0568  1.6494
 2246TIP3   OH228152   3.124   5.982  16.204  0.5955 -0.6349  0.3282
 2246TIP3    H128153   3.183   6.032  16.261  0.5882  0.6315 -0.7372
 2246TIP3    H228154   3.037   6.018  16.222  0.4081 -1.1435  0.4609
 2247TIP3   OH228155   6.753   6.591   2.376 -0.6816  0.5993  0.4613
 2247TIP3    H128156   6.844   6.597   2.402 -0.5089 -1.0422  0.3547
 2247TIP3    H228157   6.712   6.671   2.410  0.5771  0.8862  1.3457
 2248TIP3   OH228158   1.890   1.126   5.865  0.0444  0.0938  0.1449
 2248TIP3    H128159   1.826   1.142   5.934 -1.0772  0.4904 -0.9603
 2248TIP3    H228160   1.921   1.037   5.882 -1.0422 -0.2337  0.5141
 2249TIP3   OH228161   3.385   5.600  11.077 -0.1209 -0.1958 -0.2201
 2249TIP3    H128162   3.416   5.625  10.990  1.2834  0.3613  0.4172
 2249TIP3    H228163   3.465   5.579  11.126 -0.9542 -1.6737  0.5968
 2250TIP3   OH228164   0.692   3.265  11.932  0.3048 -0.0221  0.2452
 2250TIP3    H128165   0.740   3.342  11.904  0.6851  0.0899  1.1564
 2250TIP3    H228166   0.695   3.268  12.028 -1.4701 -0.0342  0.3478
 2251TIP3   OH228167   0.386   3.215  11.701  0.3711 -0.1520 -0.6063
 2251TIP3    H128168   0.295   3.185  11.702  0.3999 -0.2376  0.2692
 2251TIP3    H228169   0.438   3.136  11.717  0.6834 -0.3057 -2.1961
 2252TIP3   OH228170   0.894   0.901  10.193  0.6502  0.2987 -0.2649
 2252TIP3    H128171   0.843   0.957  10.253  1.2517  0.5757 -0.0091
 2252TIP3    H228172   0.973   0.880  10.242  0.9418  0.1547 -0.8002
 2253TIP3   OH228173   6.139   1.268  11.627 -0.1163  0.6196  0.7969
 2253TIP3    H128174   6.153   1.176  11.606 -2.1364 -0.0993  2.3257
 2253TIP3    H228175   6.226   1.301  11.650  0.9021 -0.4521 -1.2353
 2254TIP3   OH228176   0.655   0.980   0.425 -0.2859  0.5152  0.0441
 2254TIP3    H128177   0.564   0.994   0.400 -0.3250  0.9192  0.4042
 2254TIP3    H228178   0.671   1.044   0.495  0.2477  0.3917  0.0389
 2255TIP3   OH228179   5.297   1.922   4.219 -0.3241  0.1809  0.2735
 2255TIP3    H128180   5.309   1.952   4.309  2.6606  2.1972 -0.6631
 2255TIP3    H228181   5.385   1.899   4.189 -1.4399 -1.8485 -1.7111
 2256TIP3   OH228182   6.197   2.844  16.816 -0.4494 -0.6370 -0.6796
 2256TIP3    H128183   6.211   2.933  16.847 -0.3171 -0.2611 -1.7807
 2256TIP3    H228184   6.114   2.817  16.856 -0.7854  0.1981 -0.7971
 2257TIP3   OH228185   1.533   0.351   1.244 -0.1772  0.4873 -0.6342
 2257TIP3    H128186   1.510   0.291   1.172  0.8878 -0.8958  0.1253
 2257TIP3    H228187   1.616   0.389   1.217  1.0911 -1.2957  0.5256
 2258TIP3   OH228188   3.179   5.903  17.103 -0.3572  0.1662  0.0644
 2258TIP3    H128189   3.225   5.987  17.100  1.0003 -0.5699 -1.4243
 2258TIP3    H228190   3.197   5.870  17.191  1.1357  0.3887 -0.1233
 2259TIP3   OH228191   3.601   5.292  14.987 -0.3479 -0.0272  0.1918
 2259TIP3    H128192   3.517   5.250  15.006 -0.5381  0.1941 -0.1633
 2259TIP3    H228193   3.665   5.240  15.036 -0.5442 -0.9406 -0.4984
 2260TIP3   OH228194   4.033   0.630   5.283  0.0923 -0.6671 -0.1108
 2260TIP3    H128195   4.090   0.554   5.273 -0.1237 -1.1184  1.7280
 2260TIP3    H228196   4.059   0.669   5.367 -0.0433  1.1013 -0.8293
 2261TIP3   OH228197   3.697   2.700   0.689  0.2101  0.1745 -0.0838
 2261TIP3    H128198   3.754   2.776   0.684  0.5472 -0.1418 -1.2215
 2261TIP3    H228199   3.675   2.693   0.782 -1.1485  2.6296 -0.1122
 2262TIP3   OH228200   2.563   5.352  14.546  0.1557 -0.4863  0.3033
 2262TIP3    H128201   2.516   5.283  14.593  0.7468 -1.0287  0.1152
 2262TIP3    H228202   2.513   5.367  14.466 -0.4759 -0.0442  0.7751
 2263TIP3   OH228203   2.790   1.060   0.810  0.1064 -0.0856  0.0568
 2263TIP3    H128204   2.807   1.065   0.904  1.4652 -0.0447 -0.1717
 2263TIP3    H228205   2.736   1.137   0.791 -1.4314 -0.8661  1.0266
 2264TIP3   OH228206   3.314   6.330  15.235  0.0262 -0.1523 -0.6397
 2264TIP3    H128207   3.268   6.322  15.319 -1.7053 -0.4169 -1.5746
 2264TIP3    H228208   3.380   6.260  15.237 -0.8197 -0.9507 -0.0048
 2265TIP3   OH228209   3.291   3.309   2.825 -0.6016  1.1849 -0.3084
 2265TIP3    H128210   3.218   3.249   2.810 -0.8330  1.3815  0.0124
 2265TIP3    H228211   3.332   3.278   2.906 -0.1307  0.8856 -0.6527
 2266TIP3   OH228212   3.779   4.586  17.068  0.1762  0.0727  0.0752
 2266TIP3    H128213   3.751   4.668  17.108  0.1619  0.9533 -1.6722
 2266TIP3    H228214   3.799   4.608  16.977 -2.5092 -2.3585 -1.2659
 2267TIP3   OH228215   6.369   5.577  12.835  0.2086 -0.2064  0.2774
 2267TIP3    H128216   6.288   5.548  12.793  0.6822  0.6425 -1.3081
 2267TIP3    H228217   6.436   5.566  12.768  1.1712  0.3742  1.1143
 2268TIP3   OH228218   2.872   3.477   6.393 -0.0593  0.7228 -0.2030
 2268TIP3    H128219   2.955   3.517   6.418 -0.0044 -0.9202  2.6796
 2268TIP3    H228220   2.809   3.549   6.399  0.5001  1.1148  2.0064
 2269TIP3   OH228221   6.309   1.330   6.201  0.0242  0.2638 -0.1788
 2269TIP3    H128222   6.309   1.409   6.254  1.3898  1.4490 -1.8370
 2269TIP3    H228223   6.216   1.311   6.185 -0.3124  2.1853 -0.6887
 2270TIP3   OH228224   0.094   0.499  12.310  0.0172 -0.0846  0.3860
 2270TIP3    H128225   0.132   0.559  12.375 -1.7420 -0.6609  2.0549
 2270TIP3    H228226   0.059   0.427  12.363 -1.8607 -0.3777 -1.1714
 2271TIP3   OH228227   3.091   3.534  13.541  0.0209  0.1210  0.6525
 2271TIP3    H128228   3.030   3.478  13.493  0.6434 -0.3466  0.3972
 2271TIP3    H228229   3.041   3.565  13.617 -0.3356 -0.7827  0.7986
 2272TIP3   OH228230   3.885   0.241  11.344 -0.2736 -0.1219 -0.4491
 2272TIP3    H128231   3.892   0.157  11.299 -0.0450 -0.3826  0.0582
 2272TIP3    H228232   3.959   0.292  11.312 -0.5345 -0.0287 -0.9204
 2273TIP3   OH228233   0.622   4.532   4.464  0.6469 -0.0235  0.0523
 2273TIP3    H128234   0.656   4.548   4.376  0.8217 -2.1475 -0.3308
 2273TIP3    H228235   0.582   4.615   4.490  2.2237  1.2173 -1.2610
 2274TIP3   OH228236   0.203   4.090  16.865  0.1288 -0.0275 -0.0502
 2274TIP3    H128237   0.274   4.070  16.926  0.1804  0.2075 -0.0319
 2274TIP3    H228238   0.246   4.140  16.795  0.0959 -0.4131 -0.3469
 2275TIP3   OH228239   1.590   1.102  13.204 -0.2082  0.1417  0.0533
 2275TIP3    H128240   1.662   1.044  13.227  0.2186  0.5698 -0.1715
 2275TIP3    H228241   1.514   1.045  13.194  0.3480 -0.4592 -0.8365
 2276TIP3   OH228242   0.785   1.727   2.251  0.9462 -0.1887  0.4291
 2276TIP3    H128243   0.857   1.682   2.295  0.2972 -1.2303  0.4507
 2276TIP3    H228244   0.716   1.661   2.243 -0.0436  0.8120  0.4812
 2277TIP3   OH228245   2.837   0.698   2.066 -0.8391 -0.2490  0.6533
 2277TIP3    H128246   2.776   0.706   1.993 -1.3815 -0.2767  1.1016
 2277TIP3    H228247   2.895   0.626   2.040 -1.6647 -0.9503  0.6961
 2278TIP3   OH228248   3.972   3.840   5.548 -0.2128  0.0059 -0.0365
 2278TIP3    H128249   3.948   3.885   5.629  0.1583 -0.4566  0.3374
 2278TIP3    H228250   4.054   3.882   5.521 -1.8834  2.2842 -1.8620
 2279TIP3   OH228251   3.960   6.550  10.949 -0.8434  0.7386  0.3209
 2279TIP3    H128252   3.882   6.528  11.001 -1.0887 -0.5710 -0.5522
 2279TIP3    H228253   4.031   6.500  10.989 -0.5731  1.3907  0.6828
 2280TIP3   OH228254   3.920   2.885   5.765 -0.0751  0.7518  0.0856
 2280TIP3    H128255   3.884   2.943   5.832  0.4016  2.1141 -0.7951
 2280TIP3    H228256   4.014   2.896   5.771 -0.0162  0.6874 -0.6274
 2281TIP3   OH228257   4.440   3.715  14.346 -0.0279  0.0778 -0.6675
 2281TIP3    H128258   4.420   3.628  14.312 -1.6517  1.3197 -3.2184
 2281TIP3    H228259   4.358   3.764  14.338  0.3918  1.4796  2.1756
 2282TIP3   OH228260   6.042   0.066  16.933 -0.5763 -0.6206  0.6697
 2282TIP3    H128261   6.031   0.160  16.940 -0.0151 -0.5199  0.2737
 2282TIP3    H228262   6.037   0.034  17.023  1.5772  0.0551  1.0819
 2283TIP3   OH228263   4.028   4.792   4.957  0.2796  0.2589  0.0198
 2283TIP3    H128264   3.980   4.797   4.875  1.6108 -0.3832 -0.8281
 2283TIP3    H228265   4.064   4.880   4.969  0.1644  0.3280 -0.1302
 2284TIP3   OH228266   2.821   4.487   4.641  0.0050 -0.0857 -0.7058
 2284TIP3    H128267   2.863   4.542   4.576  1.6552  0.9513  1.1267
 2284TIP3    H228268   2.867   4.506   4.723 -2.6199 -0.5305  1.0330
 2285TIP3   OH228269   1.062   4.732  14.200 -0.1700 -0.3860  0.4509
 2285TIP3    H128270   1.136   4.754  14.143 -0.8720 -1.1239 -0.7774
 2285TIP3    H228271   1.077   4.641  14.225  0.6587  0.2092  2.3201
 2286TIP3   OH228272   5.827   0.627  15.237 -0.4787 -0.0679  0.3599
 2286TIP3    H128273   5.852   0.673  15.317 -2.6628  0.8918  0.5783
 2286TIP3    H228274   5.853   0.686  15.166  0.0069 -0.1737  0.4512
 2287TIP3   OH228275   2.824   3.844  16.121  0.3964 -0.3171 -0.0638
 2287TIP3    H128276   2.811   3.792  16.200  1.5000 -1.8237 -0.8322
 2287TIP3    H228277   2.917   3.869  16.123  0.9504 -1.9414 -1.7268
 2288TIP3   OH228278   5.560   0.568  13.791 -0.5445 -0.8007  0.4233
 2288TIP3    H128279   5.553   0.623  13.869 -1.1703 -0.0821 -0.1230
 2288TIP3    H228280   5.616   0.495  13.818  0.2008  0.0296  1.2017
 2289TIP3   OH228281   2.928   3.306  12.829  0.6476  0.1677 -0.2898
 2289TIP3    H128282   2.874   3.306  12.908  0.0297  1.0662 -0.6964
 2289TIP3    H228283   3.018   3.301  12.862  0.3353 -1.6431  0.3766
 2290TIP3   OH228284   1.589   4.514  11.707 -0.4201 -0.0802  0.5359
 2290TIP3    H128285   1.657   4.581  11.706 -1.9175  1.4992 -0.7979
 2290TIP3    H228286   1.611   4.456  11.633  0.4643 -0.6722  1.2412
 2291TIP3   OH228287   2.572   0.412  10.482  0.0011  0.5311  0.3461
 2291TIP3    H128288   2.616   0.330  10.504 -0.1886  0.2292 -0.3535
 2291TIP3    H228289   2.565   0.460  10.565 -0.4455 -0.4323  0.8742
 2292TIP3   OH228290   3.568   2.587   2.537  0.5902  0.5936  0.5939
 2292TIP3    H128291   3.483   2.584   2.581  1.7976 -1.0625  3.0418
 2292TIP3    H228292   3.612   2.664   2.574  0.5716  0.8168  0.1563
 2293TIP3   OH228293   5.083   0.868   2.902  0.3868  0.4397  0.0014
 2293TIP3    H128294   5.105   0.793   2.957  0.0854 -0.3866 -0.9642
 2293TIP3    H228295   5.168   0.910   2.884  0.6678 -0.1993 -0.1823
 2294TIP3   OH228296   2.645   6.308   5.800 -0.1287  0.1572  0.5468
 2294TIP3    H128297   2.600   6.245   5.857 -1.1556  0.5281  0.1604
 2294TIP3    H228298   2.703   6.357   5.859  0.5995 -1.0538  0.8733
 2295TIP3   OH228299   0.535   6.556  17.063 -0.0324 -0.0690 -0.1742
 2295TIP3    H128300   0.625   6.524  17.055 -0.1826 -0.7319  0.6387
 2295TIP3    H228301   0.540   6.648  17.039  0.6161 -0.4165 -1.4662
 2296TIP3   OH228302   3.419   4.429   5.519  0.0016  0.4424 -0.1845
 2296TIP3    H128303   3.492   4.373   5.545  0.4024  0.8005 -0.5024
 2296TIP3    H228304   3.343   4.396   5.567  0.0136 -0.9897 -1.1143
 2297TIP3   OH228305   4.644   1.450  16.319  0.2408  0.1449  0.1448
 2297TIP3    H128306   4.557   1.453  16.279  0.1559 -1.1251  0.1703
 2297TIP3    H228307   4.638   1.377  16.382  1.4552 -0.2525 -0.1794
 2298TIP3   OH228308   3.451   3.963   5.626  0.8068  0.3869 -0.1161
 2298TIP3    H128309   3.538   3.990   5.657  0.9875 -0.9079  0.6121
 2298TIP3    H228310   3.469   3.894   5.562  0.3189 -0.0899  0.2487
 2299TIP3   OH228311   6.510   6.643  10.837  0.6686  0.0807 -0.3063
 2299TIP3    H128312   6.431   6.615  10.791  0.4023 -1.2526  0.8870
 2299TIP3    H228313   6.582   6.620  10.779  0.2438  0.4978 -1.0139
 2300TIP3   OH228314   5.112   3.019  12.038  0.2899  0.1867 -0.4790
 2300TIP3    H128315   5.204   2.998  12.055  0.3148  1.0882  0.6263
 2300TIP3    H228316   5.089   3.082  12.106 -1.8093 -1.6573  0.6480
 2301TIP3   OH228317   6.226   5.303  15.671 -0.2719 -0.0634  0.9454
 2301TIP3    H128318   6.313   5.279  15.639 -0.2768 -0.0069  0.8910
 2301TIP3    H228319   6.195   5.224  15.716 -1.5886 -1.2905 -1.9166
 2302TIP3   OH228320   3.437   0.721  14.722 -0.2944 -0.2425  0.4019
 2302TIP3    H128321   3.462   0.630  14.739 -0.1653  0.0004  1.6617
 2302TIP3    H228322   3.452   0.765  14.806  0.0020  1.0210 -0.2979
 2303TIP3   OH228323   4.181   5.008   4.911  0.3094 -0.0934 -0.0398
 2303TIP3    H128324   4.256   5.029   4.967  0.4278  0.8454 -0.5347
 2303TIP3    H228325   4.169   5.086   4.857 -0.0399 -0.8492 -1.0710
 2304TIP3   OH228326   5.755   0.526   1.904  0.3567  0.3514 -0.2158
 2304TIP3    H128327   5.791   0.458   1.847  1.1840  1.4179 -1.0047
 2304TIP3    H228328   5.792   0.508   1.990 -0.3650 -0.8758 -0.1383
 2305TIP3   OH228329   2.896   6.342  15.451  0.4291  0.0101 -0.2737
 2305TIP3    H128330   2.876   6.340  15.544 -1.4833 -1.9647 -0.6388
 2305TIP3    H228331   2.881   6.433  15.424 -0.6757  0.2285  1.0142
 2306TIP3   OH228332   0.436   3.034   2.098  0.2389 -0.5338  0.2023
 2306TIP3    H128333   0.395   3.067   2.019 -0.9557 -0.0816  0.9880
 2306TIP3    H228334   0.505   2.975   2.066  0.6593  0.6453 -1.1693
 2307TIP3   OH228335   1.391   6.339   3.729 -0.0143  0.3293 -0.1166
 2307TIP3    H128336   1.323   6.315   3.666  0.9216 -1.8541 -0.3902
 2307TIP3    H228337   1.413   6.257   3.773  1.6073  1.2032  0.7875
 2308TIP3   OH228338   5.143   5.200  17.406 -0.4215  0.4606  0.6478
 2308TIP3    H128339   5.138   5.111  17.372 -1.7571  0.2052  1.4013
 2308TIP3    H228340   5.054   5.234  17.396 -0.1837  1.3287  1.3529
 2309TIP3   OH228341   5.601   6.420   5.826 -0.1378  0.4204 -0.4023
 2309TIP3    H128342   5.626   6.410   5.918 -1.7186  0.3412  0.0601
 2309TIP3    H228343   5.667   6.477   5.788  0.9497 -0.1335  0.5990
 2310TIP3   OH228344   1.952   3.955   3.465 -0.3149 -0.6735  0.1611
 2310TIP3    H128345   1.871   3.930   3.422  0.7091 -0.7989 -1.8291
 2310TIP3    H228346   2.004   3.997   3.396  0.0745  2.3883  2.1233
 2311TIP3   OH228347   3.795   3.364   4.880  0.4780  0.2780 -0.7476
 2311TIP3    H128348   3.810   3.344   4.972 -1.7864 -1.5113 -0.6896
 2311TIP3    H228349   3.727   3.433   4.881  0.9047  0.7111 -1.0839
 2312TIP3   OH228350   4.168   4.600  12.557 -0.2464 -0.0834 -0.3987
 2312TIP3    H128351   4.219   4.671  12.597 -1.3086  1.7816 -2.1404
 2312TIP3    H228352   4.233   4.551  12.506  0.3606  0.1791  0.0970
 2313TIP3   OH228353   1.990   4.597  15.723  0.5862 -1.1651  0.0132
 2313TIP3    H128354   1.971   4.506  15.701  2.1023 -1.4068 -0.4292
 2313TIP3    H228355   2.078   4.612  15.690  1.0702 -0.0556  1.6550
 2314TIP3   OH228356   3.826   4.098  16.307  1.0543  0.7998 -0.4881
 2314TIP3    H128357   3.810   4.192  16.299 -0.8079  0.5279 -0.3550
 2314TIP3    H228358   3.790   4.060  16.226 -3.8688 -0.3513  1.8714
 2315TIP3   OH228359   4.176   4.336   1.667 -0.1392 -0.2709  0.0432
 2315TIP3    H128360   4.108   4.377   1.613  0.2498 -0.8298 -0.8840
 2315TIP3    H228361   4.258   4.364   1.627  0.1561 -0.5747  0.4380
 2316TIP3   OH228362   4.633   5.008  16.848 -0.0545  0.1757  0.2293
 2316TIP3    H128363   4.640   5.061  16.769  1.7282  0.8161  0.7780
 2316TIP3    H228364   4.544   5.025  16.880 -0.2075  1.2456 -0.6946
 2317TIP3   OH228365   6.068   4.729  11.271  0.0328 -0.1264  0.0122
 2317TIP3    H128366   6.106   4.694  11.191  2.5369 -0.8261  1.3843
 2317TIP3    H228367   6.055   4.652  11.327  2.1661  0.6152  1.7078
 2318TIP3   OH228368   5.923   0.160   2.244  0.3187 -0.2153  0.0239
 2318TIP3    H128369   6.011   0.134   2.272  1.7541  3.2301 -0.7539
 2318TIP3    H228370   5.865   0.094   2.282  3.1121 -1.8752  1.7285
 2319TIP3   OH228371   4.198   4.247   5.932 -0.2388  0.0824  0.0104
 2319TIP3    H128372   4.226   4.156   5.939 -0.6201 -0.3229 -2.7428
 2319TIP3    H228373   4.281   4.297   5.929 -0.0337 -0.0976  1.7309
 2320TIP3   OH228374   3.859   5.067   1.369 -0.2280  0.0552  0.0412
 2320TIP3    H128375   3.784   5.041   1.422  1.1438 -0.9725  1.5949
 2320TIP3    H228376   3.833   5.046   1.279 -2.0747  0.4668  0.4359
 2321TIP3   OH228377   5.369   6.674   5.002  0.5273 -0.1964  0.1627
 2321TIP3    H128378   5.316   6.599   5.030 -0.5105 -0.4480 -2.2037
 2321TIP3    H228379   5.459   6.642   5.007  0.1820 -1.1861  0.3565
 2322TIP3   OH228380   2.879   4.323   0.796  0.3842 -0.4594 -0.3021
 2322TIP3    H128381   2.964   4.280   0.807 -0.0995 -1.4698 -0.4095
 2322TIP3    H228382   2.885   4.403   0.849  1.1750 -0.8392  0.1949
 2323TIP3   OH228383   1.563   4.387   3.930  0.1502 -0.2851 -0.1360
 2323TIP3    H128384   1.585   4.297   3.905  0.2567 -0.7023  1.3529
 2323TIP3    H228385   1.470   4.383   3.951 -0.0422  0.1611 -0.8598
 2324TIP3   OH228386   4.087   5.039   2.181  0.0531  0.1896  0.2047
 2324TIP3    H128387   4.037   4.966   2.145 -0.0488  0.5897 -0.4842
 2324TIP3    H228388   4.040   5.117   2.153  1.1596  0.5771 -0.6338
 2325TIP3   OH228389   3.676   1.704   3.249  0.4465  0.2805 -0.7684
 2325TIP3    H128390   3.583   1.682   3.245  0.4945 -0.0182 -0.3445
 2325TIP3    H228391   3.680   1.796   3.223 -0.1098  0.6521  0.4001
 2326TIP3   OH228392   5.327   1.125   4.146 -0.2652  0.3298 -0.1265
 2326TIP3    H128393   5.235   1.148   4.134  0.0236  1.9397  0.4655
 2326TIP3    H228394   5.337   1.112   4.240  0.1872  0.4988 -0.1467
 2327TIP3   OH228395   4.187   1.474   5.439  0.3002 -0.0061 -0.3475
 2327TIP3    H128396   4.154   1.538   5.376 -1.3863  0.2148  0.7187
 2327TIP3    H228397   4.281   1.494   5.446  0.3698  0.4717 -2.1601
 2328TIP3   OH228398   1.640   4.158   5.112 -0.6105 -0.4530  0.5223
 2328TIP3    H128399   1.550   4.189   5.102 -0.6669 -0.3029  1.3697
 2328TIP3    H228400   1.694   4.234   5.094 -0.6350 -0.6246 -0.3046
 2329TIP3   OH228401   0.662   6.336   0.435 -0.5512 -0.3621 -0.2411
 2329TIP3    H128402   0.720   6.295   0.369 -1.0565 -0.8116 -0.4144
 2329TIP3    H228403   0.711   6.330   0.517 -0.8112 -1.7897 -0.1645
 2330TIP3   OH228404   4.438   5.231  11.975  0.5033 -0.4205  0.3334
 2330TIP3    H128405   4.511   5.293  11.984 -0.8991  1.3043  0.4077
 2330TIP3    H228406   4.457   5.184  11.894  1.6004  0.1168  0.2485
 2331TIP3   OH228407   3.033   6.671  12.481  0.2298  0.1650  0.0641
 2331TIP3    H128408   2.978   6.712  12.549 -0.8773  0.5197 -1.0109
 2331TIP3    H228409   3.068   6.744  12.431  1.4796 -0.0777  0.5601
 2332TIP3   OH228410   1.356   6.077   4.836  0.3294 -0.2980 -0.1523
 2332TIP3    H128411   1.375   6.164   4.800 -0.0314 -0.5800 -1.0707
 2332TIP3    H228412   1.261   6.075   4.844  0.4354 -0.0488  1.3771
 2333TIP3   OH228413   1.641   2.435  15.482 -0.4138 -0.6273  0.6748
 2333TIP3    H128414   1.709   2.377  15.515 -0.2050  0.0882  1.5474
 2333TIP3    H228415   1.560   2.385  15.488 -0.0230 -1.3629 -0.0461
 2334TIP3   OH228416   4.912   2.274   3.178  0.5318 -0.1278  0.4716
 2334TIP3    H128417   4.949   2.359   3.156 -0.4026  0.2739  0.3922
 2334TIP3    H228418   4.987   2.214   3.178  1.2440  0.7432  0.8138
 2335TIP3   OH228419   4.276   2.826  11.776 -0.1900  0.3039 -0.7593
 2335TIP3    H128420   4.190   2.835  11.733 -0.8623 -0.7612  0.2878
 2335TIP3    H228421   4.281   2.900  11.836 -2.1776 -1.6627  2.0549
 2336TIP3   OH228422   0.114   3.162   0.006 -0.0427  0.2194 -0.3492
 2336TIP3    H128423   0.053   3.105   0.052 -0.1460 -0.6182 -1.4952
 2336TIP3    H228424   0.200   3.135   0.037 -0.1896  0.8669  0.6687
 2337TIP3   OH228425   2.036   2.801  13.643 -0.1512  0.0209 -0.0138
 2337TIP3    H128426   2.124   2.792  13.680 -1.1451 -0.3470  2.4889
 2337TIP3    H228427   2.009   2.890  13.665 -0.9453 -0.3595  0.6460
 2338TIP3   OH228428   5.619   1.834  16.295  0.0797  0.3619 -0.5853
 2338TIP3    H128429   5.710   1.812  16.271 -0.6547 -1.0758 -2.3467
 2338TIP3    H228430   5.585   1.754  16.334 -0.8181  0.4055 -1.2359
 2339TIP3   OH228431   2.212   0.329  13.917 -0.1098  0.3333 -0.1103
 2339TIP3    H128432   2.255   0.366  13.840 -0.4026 -0.1435 -0.5119
 2339TIP3    H228433   2.163   0.402  13.954  1.7805  1.1540  0.9249
 2340TIP3   OH228434   0.677   1.028   2.021 -0.3588 -0.0354 -0.4662
 2340TIP3    H128435   0.685   0.937   1.995  0.5598 -0.5700  1.5018
 2340TIP3    H228436   0.746   1.073   1.973  0.4373 -0.7339  0.0031
 2341TIP3   OH228437   4.382   2.392   2.712  0.1129 -0.4666  0.2059
 2341TIP3    H128438   4.361   2.393   2.619  0.4987  0.5913  0.1220
 2341TIP3    H228439   4.431   2.473   2.727 -1.7428  0.4310  1.7414
 2342TIP3   OH228440   1.763   5.003  14.017  0.3356  0.0765  0.3561
 2342TIP3    H128441   1.725   4.931  13.967 -2.1716  1.0498  0.7269
 2342TIP3    H228442   1.823   5.046  13.955  0.3939 -1.1480 -0.4675
 2343TIP3   OH228443   0.352   4.749  11.866  0.3628  0.3698 -0.4360
 2343TIP3    H128444   0.406   4.778  11.940 -0.8674  3.5337 -0.6084
 2343TIP3    H228445   0.393   4.789  11.789 -0.3347  0.0303 -0.9985
 2344TIP3   OH228446   5.054   2.772   2.666 -0.3477 -0.6630 -0.0928
 2344TIP3    H128447   5.128   2.710   2.666  0.2346  0.0040 -0.9596
 2344TIP3    H228448   5.044   2.797   2.757  1.7442  0.6494 -0.1444
 2345TIP3   OH228449   6.072   1.237  11.943 -0.5559  0.0846 -0.2341
 2345TIP3    H128450   6.029   1.248  11.858 -2.6901  0.9268  0.8962
 2345TIP3    H228451   6.056   1.146  11.967 -2.3220  0.5276  0.4322
 2346TIP3   OH228452   6.638   4.616  15.763  0.1035  0.0304  0.1310
 2346TIP3    H128453   6.648   4.685  15.697  0.8115 -0.2361 -0.0466
 2346TIP3    H228454   6.645   4.535  15.714  1.8306 -0.1853  0.6746
 2347TIP3   OH228455   5.754   0.885   4.996  0.4281  0.1122 -0.2823
 2347TIP3    H128456   5.798   0.964   4.962  0.8033  0.0022 -0.0545
 2347TIP3    H228457   5.825   0.829   5.026  0.1635 -0.3573 -0.5300
 2348TIP3   OH228458   3.752   2.958  12.006 -0.6508 -0.0655  0.8135
 2348TIP3    H128459   3.698   2.927  11.933 -0.9691  1.0883  0.5429
 2348TIP3    H228460   3.693   3.014  12.058  0.2156  1.0731  0.6170
 2349TIP3   OH228461   3.818   4.457   4.592  0.7415  0.1175  0.0434
 2349TIP3    H128462   3.763   4.534   4.598  0.0734 -0.4147  1.1586
 2349TIP3    H228463   3.766   4.392   4.545  0.5987 -0.2210  0.6548
 2350TIP3   OH228464   6.599   6.260  13.250  0.3807  0.2193  0.1184
 2350TIP3    H128465   6.599   6.250  13.345  0.9548  1.0698  0.2228
 2350TIP3    H228466   6.604   6.355  13.236  0.9380  0.0701 -0.7600
 2351TIP3   OH228467   3.458   6.216   1.605  0.4446  0.0451  0.1450
 2351TIP3    H128468   3.421   6.200   1.518 -0.0335  0.9706  0.1695
 2351TIP3    H228469   3.387   6.256   1.654  1.5175  2.0610  0.1362
 2352TIP3   OH228470   1.735   0.861  12.617  0.5668 -0.0700 -0.4522
 2352TIP3    H128471   1.656   0.807  12.609  0.6327 -0.2273 -0.0374
 2352TIP3    H228472   1.796   0.824  12.554  0.3508 -0.0191 -0.6945
 2353TIP3   OH228473   0.677   4.652   5.140  0.6672  0.7350 -0.0886
 2353TIP3    H128474   0.583   4.637   5.150  0.8894 -1.0625 -0.2773
 2353TIP3    H228475   0.709   4.664   5.229  0.1765  1.9947 -0.0716
 2354TIP3   OH228476   3.546   0.286   1.928  0.9542 -0.0503 -0.2759
 2354TIP3    H128477   3.466   0.330   1.899  0.1411 -0.8566  0.6751
 2354TIP3    H228478   3.603   0.357   1.956 -0.3956  0.4816  1.3840
 2355TIP3   OH228479   1.983   6.559   0.228 -0.0558 -0.0781  0.0732
 2355TIP3    H128480   2.045   6.543   0.299 -0.9874  1.6073  1.3511
 2355TIP3    H228481   1.914   6.495   0.242  0.4208 -0.6426 -0.1376
 2356TIP3   OH228482   3.997   1.669   5.258  0.6462 -0.0936 -0.0057
 2356TIP3    H128483   3.933   1.714   5.314 -0.7705 -0.2460 -1.4305
 2356TIP3    H228484   4.078   1.719   5.271  0.9100 -1.1382  3.4528
 2357TIP3   OH228485   0.743   5.082   4.574  0.5249 -0.1676  0.0445
 2357TIP3    H128486   0.681   5.114   4.509 -0.0718  0.3516  0.8489
 2357TIP3    H228487   0.805   5.155   4.585  1.0161 -0.5066 -0.4119
 2358TIP3   OH228488   0.415   6.564   2.021 -0.0434 -0.2530 -0.2445
 2358TIP3    H128489   0.418   6.528   2.109 -0.2744  0.0642 -0.1041
 2358TIP3    H228490   0.365   6.646   2.030 -1.0079 -0.7493 -0.8542
 2359TIP3   OH228491   4.080   5.770  12.804  0.5105  0.2352 -0.4109
 2359TIP3    H128492   4.111   5.834  12.741 -1.0351 -0.1498 -1.6189
 2359TIP3    H228493   4.128   5.690  12.782 -1.0372 -0.2888 -2.1037
 2360TIP3   OH228494   6.408   1.178  12.117  0.0812 -0.0811 -0.6808
 2360TIP3    H128495   6.349   1.147  12.049  0.7261 -0.4093 -1.0922
 2360TIP3    H228496   6.372   1.263  12.143 -2.1894 -1.4374  1.0219
 2361TIP3   OH228497   0.758   5.095   2.626 -0.1048 -0.1904 -0.7231
 2361TIP3    H128498   0.798   5.020   2.670 -0.9894  0.2919  1.0194
 2361TIP3    H228499   0.813   5.169   2.650 -0.2881  0.0006 -0.8870
 2362TIP3   OH228500   2.078   6.010   4.303  0.1920 -0.3997  0.4227
 2362TIP3    H128501   2.091   5.922   4.338 -2.6290 -1.3128 -0.5291
 2362TIP3    H228502   2.034   6.058   4.373 -0.4053 -0.4992  0.1216
 2363TIP3   OH228503   2.463   6.216   3.182 -0.0475 -0.3544  0.0545
 2363TIP3    H128504   2.406   6.148   3.219 -0.4542  0.2472  0.5483
 2363TIP3    H228505   2.451   6.208   3.087 -0.2490 -0.8367  0.1179
 2364TIP3   OH228506   3.957   2.569  13.565 -0.0617 -0.1852 -0.5829
 2364TIP3    H128507   3.964   2.563  13.661  1.6561  0.1348 -0.6461
 2364TIP3    H228508   3.892   2.503  13.542  1.6599 -2.4647  0.5785
 2365TIP3   OH228509   5.242   1.742  16.301 -0.7017  0.0159 -0.3308
 2365TIP3    H128510   5.303   1.678  16.263 -0.4377 -0.0301  0.1568
 2365TIP3    H228511   5.211   1.793  16.227 -0.2293 -0.1012 -0.6096
 2366TIP3   OH228512   2.816   6.603  13.349  0.0117  0.3247  0.7721
 2366TIP3    H128513   2.872   6.613  13.272  1.4245  0.3657  1.7655
 2366TIP3    H228514   2.877   6.601  13.423 -1.1185 -2.1859  1.7323
 2367TIP3   OH228515   3.952   1.054  15.417 -0.0249  0.4473 -0.0108
 2367TIP3    H128516   3.985   1.141  15.394 -0.0815  1.0919  2.1331
 2367TIP3    H228517   3.950   1.054  15.513 -1.1709 -1.4951  0.0089
 2368TIP3   OH228518   4.826   1.955   6.677  0.0564 -0.0137  0.3117
 2368TIP3    H128519   4.888   1.885   6.656  0.0248 -0.3306  1.2049
 2368TIP3    H228520   4.826   1.958   6.773 -3.8841 -2.4163  0.6027
 2369TIP3   OH228521   2.901   0.666  12.400 -0.0302 -0.1944 -0.1510
 2369TIP3    H128522   2.940   0.729  12.460 -2.9631  1.6318  0.0571
 2369TIP3    H228523   2.895   0.585  12.451  2.6097 -0.3527  0.0188
 2370TIP3   OH228524   5.260   6.589   2.002 -0.0285 -0.7257 -0.2433
 2370TIP3    H128525   5.268   6.541   2.084 -0.4028 -1.1268 -0.4366
 2370TIP3    H228526   5.186   6.548   1.957  1.2655 -1.6917 -1.5791
 2371TIP3   OH228527   2.756   6.339  14.249 -0.2768 -0.1673 -0.0596
 2371TIP3    H128528   2.741   6.428  14.282  1.4703  0.8313 -1.7586
 2371TIP3    H228529   2.713   6.338  14.164 -0.3035 -0.9702 -0.0419
 2372TIP3   OH228530   2.561   4.594   5.664  0.1411 -0.0259 -0.1984
 2372TIP3    H128531   2.562   4.498   5.666 -1.0125 -0.1147 -1.8410
 2372TIP3    H228532   2.567   4.616   5.571 -1.3724  1.4362  0.0029
 2373TIP3   OH228533   0.963   2.038  15.253 -0.5911  0.0965  0.2322
 2373TIP3    H128534   0.919   2.108  15.206  1.0766  1.2127  0.2168
 2373TIP3    H228535   0.896   1.971  15.267 -1.9151  1.1469 -0.8628
 2374TIP3   OH228536   0.892   0.490   4.979  0.1879 -0.7322 -0.0599
 2374TIP3    H128537   0.974   0.502   5.027 -0.1299 -0.6412  0.4713
 2374TIP3    H228538   0.918   0.489   4.887  0.7819 -0.6878  0.1008
 2375TIP3   OH228539   4.650   0.925  11.323 -0.1598  0.1578  0.0866
 2375TIP3    H128540   4.613   0.953  11.239  0.2139 -1.0406 -0.5141
 2375TIP3    H228541   4.690   1.004  11.360  0.8591  0.4477 -1.5248
 2376TIP3   OH228542   3.522   1.414   6.704  0.1872 -0.1998  0.3481
 2376TIP3    H128543   3.530   1.508   6.690 -2.1590 -0.1720 -1.4106
 2376TIP3    H228544   3.461   1.405   6.777  1.2884 -0.4009  1.2731
 2377TIP3   OH228545   5.110   4.210  14.992  0.1142  0.3379  0.1661
 2377TIP3    H128546   5.024   4.243  14.965  0.3845  1.7878  0.9557
 2377TIP3    H228547   5.092   4.150  15.064 -0.2267  1.2187  0.8445
 2378TIP3   OH228548   2.092   6.204  13.685  0.3749  0.2638  0.0255
 2378TIP3    H128549   2.000   6.201  13.660  0.1036 -2.0882  0.9481
 2378TIP3    H228550   2.140   6.202  13.602 -0.4040  0.7444 -0.4456
 2379TIP3   OH228551   1.596   4.189  13.827 -0.4564 -0.5114 -0.2407
 2379TIP3    H128552   1.684   4.153  13.815 -0.1669 -0.5305  1.5930
 2379TIP3    H228553   1.541   4.140  13.766  0.2668 -2.6870  0.7715
 2380TIP3   OH228554   1.017   4.040  16.951  0.4290 -0.0916  0.3239
 2380TIP3    H128555   1.068   4.111  16.991  1.4150  1.6636 -3.5317
 2380TIP3    H228556   1.049   4.036  16.861 -2.9157 -2.2583 -0.9595
 2381TIP3   OH228557   4.639   0.811   5.862  0.0916  0.3277 -0.7085
 2381TIP3    H128558   4.612   0.893   5.819  0.2569  0.8253  0.1244
 2381TIP3    H228559   4.706   0.775   5.803  0.7123  1.2824 -0.6122
 2382TIP3   OH228560   3.742   1.971  12.587  0.0773 -0.2788 -0.2650
 2382TIP3    H128561   3.757   1.948  12.679 -0.2590 -0.4024 -0.2411
 2382TIP3    H228562   3.784   2.057  12.577 -1.5203  0.6460  0.5064
 2383TIP3   OH228563   4.080   0.627  13.020 -0.5989  0.0605  0.0180
 2383TIP3    H128564   4.010   0.561  13.027 -0.7465 -0.0284 -1.8178
 2383TIP3    H228565   4.049   0.687  12.952  0.4408  0.8965  0.2606
 2384TIP3   OH228566   0.506   2.537   3.811  0.5525 -0.4598  0.0162
 2384TIP3    H128567   0.499   2.472   3.741  1.7278  0.3433 -0.8719
 2384TIP3    H228568   0.576   2.596   3.783 -0.3896  1.1271  0.8505
 2385TIP3   OH228569   5.299   4.620   5.203  0.4870 -0.1904  0.0612
 2385TIP3    H128570   5.349   4.676   5.263  1.0062 -0.8416  0.2544
 2385TIP3    H228571   5.209   4.651   5.211  0.6624  0.2023  0.6348
 2386TIP3   OH228572   4.959   2.960  15.903  0.2293 -0.0917  0.0830
 2386TIP3    H128573   4.988   2.896  15.968  1.7507 -0.5476 -0.9720
 2386TIP3    H228574   4.956   2.910  15.821  1.2177  1.1190 -0.7147
 2387TIP3   OH228575   1.336   4.619   2.060  0.7094  0.1977  0.1549
 2387TIP3    H128576   1.320   4.621   2.155  0.7553 -2.4830  0.3021
 2387TIP3    H228577   1.293   4.698   2.027  0.0167  0.8042  2.2985
 2388TIP3   OH228578   5.431   1.413  15.584  0.8014  0.4108  0.3717
 2388TIP3    H128579   5.522   1.439  15.594  0.5299  1.0754  1.1895
 2388TIP3    H228580   5.386   1.492  15.553  0.3766  0.2969  0.6825
 2389TIP3   OH228581   1.148   3.756  12.146 -0.5071 -0.0469 -0.1596
 2389TIP3    H128582   1.119   3.770  12.056 -1.9068 -2.0523 -0.1051
 2389TIP3    H228583   1.179   3.665  12.147  2.7658  0.9448  0.6337
 2390TIP3   OH228584   2.999   6.635  17.022  0.2572  0.7689  0.1269
 2390TIP3    H128585   2.935   6.569  17.050  0.9306  0.1422  0.2301
 2390TIP3    H228586   2.976   6.653  16.931 -0.3756  0.9304  0.3131
 2391TIP3   OH228587   6.643   4.464  15.408  0.3597  0.3457 -0.4780
 2391TIP3    H128588   6.685   4.421  15.482 -0.3841  2.2636  1.1724
 2391TIP3    H228589   6.680   4.422  15.331  1.7795 -1.1825  0.9553
 2392TIP3   OH228590   2.589   1.085  16.138 -0.2302  0.4717  0.0396
 2392TIP3    H128591   2.526   1.096  16.067 -0.8501 -1.1025  0.2918
 2392TIP3    H228592   2.596   1.171  16.178 -2.8311  0.5565  0.4732
 2393TIP3   OH228593   4.764   0.599  14.445 -0.0659  0.5349  0.1088
 2393TIP3    H128594   4.728   0.511  14.431  1.5747 -0.3085  0.8816
 2393TIP3    H228595   4.756   0.641  14.359 -1.8570  0.0483 -0.0137
 2394TIP3   OH228596   1.609   0.316  12.958 -0.1252 -0.1483 -0.0399
 2394TIP3    H128597   1.518   0.331  12.931 -1.0307 -0.4747  2.5432
 2394TIP3    H228598   1.642   0.403  12.980  1.1584  0.3636 -3.3693
 2395TIP3   OH228599   5.234   1.102  16.605  0.3779  0.6100  0.2899
 2395TIP3    H128600   5.313   1.141  16.642  0.0868  0.9350  0.5772
 2395TIP3    H228601   5.261   1.014  16.578  0.7911  0.6529  0.5508
 2396TIP3   OH228602   2.028   4.879   5.139 -0.1194  0.1799 -0.3727
 2396TIP3    H128603   2.033   4.860   5.045  1.6358 -0.3780 -0.1968
 2396TIP3    H228604   2.119   4.876   5.169 -0.7086 -0.2254  1.4761
 2397TIP3   OH228605   4.836   3.809  12.267  0.0299 -0.3015 -0.5235
 2397TIP3    H128606   4.834   3.721  12.230 -1.9828 -0.2033 -0.7743
 2397TIP3    H228607   4.749   3.844  12.249  0.0746  0.9630  1.4047
 2398TIP3   OH228608   3.230   5.636  16.682  0.0455  1.1218  0.4168
 2398TIP3    H128609   3.190   5.703  16.737 -0.0434  2.0265 -0.7305
 2398TIP3    H228610   3.162   5.612  16.619  0.5940  1.1105 -0.1882
 2399TIP3   OH228611   0.785   6.011   0.792  0.7132 -0.6165  0.0108
 2399TIP3    H128612   0.724   5.982   0.860 -0.7460  2.6786  0.2738
 2399TIP3    H228613   0.739   5.996   0.710  0.4067 -0.0359  0.0755
 2400TIP3   OH228614   1.110   4.073  15.402  0.0498 -0.0758 -0.0656
 2400TIP3    H128615   1.029   4.095  15.355  1.6768 -1.2149 -3.7578
 2400TIP3    H228616   1.146   4.158  15.429  0.0393  0.9534 -2.9185
 2401TIP3   OH228617   5.499   5.323  15.306  0.7087 -0.0446 -0.4151
 2401TIP3    H128618   5.447   5.328  15.386  1.2634 -0.4950 -0.0164
 2401TIP3    H228619   5.453   5.379  15.244  0.7728  1.0426  0.4947
 2402TIP3   OH228620   4.164   6.220  13.269  0.0483  0.2229  0.2224
 2402TIP3    H128621   4.184   6.311  13.246 -0.8957  0.7475  1.3659
 2402TIP3    H228622   4.249   6.177  13.270  0.7684  1.5737  1.6056
 2403TIP3   OH228623   3.121   4.760  14.976 -0.0858 -0.1443  0.3836
 2403TIP3    H128624   3.211   4.767  14.945 -0.2073 -1.1537 -0.2352
 2403TIP3    H228625   3.081   4.694  14.919 -1.3177  0.5442  0.4078
 2404TIP3   OH228626   4.666   6.544  11.436  0.1453 -0.1030 -0.0019
 2404TIP3    H128627   4.703   6.478  11.494  2.1896 -1.6163 -2.8034
 2404TIP3    H228628   4.738   6.605  11.421  0.0563 -0.3865 -1.7780
 2405TIP3   OH228629   2.236   2.505  11.999 -1.1043  0.4688 -0.0432
 2405TIP3    H128630   2.329   2.503  11.976 -1.5658 -2.6036 -2.1128
 2405TIP3    H228631   2.220   2.423  12.044 -2.6701  1.4189  1.2486
 2406TIP3   OH228632   6.277   5.695  11.304  0.2792 -0.0625 -0.0202
 2406TIP3    H128633   6.219   5.677  11.230 -1.7652  0.9476  1.2182
 2406TIP3    H228634   6.263   5.788  11.323  2.7456  0.3463  0.0398
 2407TIP3   OH228635   0.717   5.387   5.231 -0.3712  0.2876  0.2492
 2407TIP3    H128636   0.650   5.400   5.164  0.7284  0.9551 -0.7485
 2407TIP3    H228637   0.722   5.470   5.277 -1.1081 -0.1630  1.1829
 2408TIP3   OH228638   6.599   4.407   2.747  0.4778 -0.1875 -0.2019
 2408TIP3    H128639   6.693   4.418   2.735  0.4347  0.7850  0.1865
 2408TIP3    H228640   6.573   4.342   2.682  0.8041  2.2314 -2.9522
 2409TIP3   OH228641   3.083   5.178   0.356 -0.5679 -0.1602  0.4521
 2409TIP3    H128642   3.173   5.186   0.326  0.4219 -2.6619  2.3803
 2409TIP3    H228643   3.032   5.231   0.295  1.8886 -0.5614 -2.1276
 2410TIP3   OH228644   6.738   1.821   3.860 -0.2213  0.5392  0.1095
 2410TIP3    H128645   6.796   1.796   3.931  0.2212 -0.2285 -0.5084
 2410TIP3    H228646   6.763   1.764   3.787  0.6299  2.5371 -1.2549
 2411TIP3   OH228647   0.034   5.377  11.541  0.2964 -0.2653  0.3499
 2411TIP3    H128648   0.052   5.451  11.482  0.2721 -0.8712 -0.4330
 2411TIP3    H228649  -0.061   5.364  11.535  0.4465 -1.1465 -0.5090
 2412TIP3   OH228650   1.550   5.078   3.510 -0.1992 -0.5400  0.3377
 2412TIP3    H128651   1.517   5.122   3.589 -1.6946 -2.9812  1.2148
 2412TIP3    H228652   1.479   5.087   3.446  0.1342 -0.3455 -0.0075
 2413TIP3   OH228653   3.214   3.145   1.134  0.3396  0.4689 -0.3805
 2413TIP3    H128654   3.173   3.199   1.202  2.6494  0.5978  0.9869
 2413TIP3    H228655   3.150   3.075   1.118 -1.4134  1.9182 -0.0475
 2414TIP3   OH228656   1.120   2.826  15.780 -0.0382  0.4034 -0.1925
 2414TIP3    H128657   1.126   2.746  15.727  2.2921  1.5897 -1.9122
 2414TIP3    H228658   1.182   2.811  15.852 -0.0017  0.4380 -0.2168
 2415TIP3   OH228659   1.340   2.047  14.437 -0.6178  0.5381  0.0205
 2415TIP3    H128660   1.270   2.109  14.457  0.6288  2.0342 -0.0443
 2415TIP3    H228661   1.403   2.098  14.387  0.1410 -0.9875 -0.6348
 2416TIP3   OH228662   5.629   1.576  12.857 -0.2094  0.1294  0.1485
 2416TIP3    H128663   5.678   1.546  12.933 -0.3211 -1.8338 -0.4963
 2416TIP3    H228664   5.537   1.561  12.880 -0.1790 -2.2250 -0.9908
 2417TIP3   OH228665   0.928   1.822   2.719  0.1963  0.1058  0.4005
 2417TIP3    H128666   0.962   1.910   2.728 -1.4975  0.7309  1.0262
 2417TIP3    H228667   0.847   1.821   2.771 -0.9931 -1.1446 -1.3423
 2418TIP3   OH228668   6.220   5.671   0.816 -0.3470 -0.6834 -0.3315
 2418TIP3    H128669   6.190   5.750   0.771 -1.3643 -1.6710 -1.4383
 2418TIP3    H228670   6.275   5.627   0.751 -1.3384 -1.8214 -0.4268
 2419TIP3   OH228671   1.495   2.582   1.783 -0.0103  0.0094 -0.6655
 2419TIP3    H128672   1.419   2.542   1.741  0.2398  0.5458 -1.6591
 2419TIP3    H228673   1.495   2.672   1.751  0.1925  0.4395  0.5038
 2420TIP3   OH228674   3.179   1.935  13.539 -0.5454  0.7139  0.1175
 2420TIP3    H128675   3.124   1.857  13.537  2.0293 -1.1875 -0.5508
 2420TIP3    H228676   3.116   2.008  13.540 -3.1005 -1.1830 -3.2061
 2421TIP3   OH228677   6.049   3.220   5.628  0.2173  0.2283 -0.5110
 2421TIP3    H128678   5.978   3.165   5.663  0.8785  0.0478  0.6185
 2421TIP3    H228679   6.117   3.215   5.695  0.2823  2.4972 -0.3537
 2422TIP3   OH228680   6.178   1.139   4.635 -0.5733 -0.3553 -0.5681
 2422TIP3    H128681   6.120   1.087   4.580 -2.0329 -0.4228  0.9641
 2422TIP3    H228682   6.144   1.229   4.628 -0.3348 -0.2446 -0.3315
 2423TIP3   OH228683   0.125   0.820  12.319  0.1907 -0.5769 -0.1409
 2423TIP3    H128684   0.163   0.836  12.233 -0.2536 -0.9946 -0.4217
 2423TIP3    H228685   0.185   0.758  12.361  1.0573  0.5439  0.3316
 2424TIP3   OH228686   2.384   4.807  16.964 -0.0789  0.1412  0.6864
 2424TIP3    H128687   2.409   4.781  16.876 -1.7666 -1.2818  0.5879
 2424TIP3    H228688   2.462   4.850  16.999  0.9307 -0.1047 -1.1412
 2425TIP3   OH228689   1.491   5.879  13.026 -0.1959 -0.0230  0.3759
 2425TIP3    H128690   1.482   5.973  13.013  0.0427  0.1639  1.4758
 2425TIP3    H228691   1.485   5.842  12.938  3.6586  1.2966 -0.6353
 2426TIP3   OH228692   0.768   2.636  15.302 -0.4740  0.8900 -0.7411
 2426TIP3    H128693   0.724   2.565  15.256 -2.4842  1.6201 -0.0545
 2426TIP3    H228694   0.732   2.633  15.391  0.5568  1.8142 -0.2680
 2427TIP3   OH228695   2.241   0.965  14.252  0.1504  0.3981 -0.2979
 2427TIP3    H128696   2.165   0.907  14.264  0.6016  0.2132  2.4665
 2427TIP3    H228697   2.206   1.053  14.266  0.6523  0.1903  3.0481
 2428TIP3   OH228698   1.216   0.223  13.793 -0.1287  0.0850  0.2633
 2428TIP3    H128699   1.311   0.231  13.802 -0.1106  1.2785 -0.7712
 2428TIP3    H228700   1.182   0.311  13.812 -1.0381 -0.3099  0.5556
 2429TIP3   OH228701   1.464   4.515   1.466 -0.1467  0.4235  0.5131
 2429TIP3    H128702   1.429   4.433   1.501  2.2565  0.0579  2.3381
 2429TIP3    H228703   1.555   4.495   1.443  0.5671  2.5538  1.1676
 2430TIP3   OH228704   6.526   6.665  16.355 -0.0297  0.6816  0.2857
 2430TIP3    H128705   6.618   6.693  16.349  0.0773  0.2592 -0.1506
 2430TIP3    H228706   6.497   6.698  16.440  0.9937 -0.5119  1.1391
 2431TIP3   OH228707   4.178   6.705  16.207 -0.8180 -0.1524 -0.5968
 2431TIP3    H128708   4.196   6.623  16.253  0.4839  0.0690 -0.6705
 2431TIP3    H228709   4.086   6.699  16.182 -1.0233 -1.1263  0.3229
 2432TIP3   OH228710   4.009   3.022   0.972 -0.1562  0.7127  0.0723
 2432TIP3    H128711   4.012   2.943   1.026 -2.2284  0.9768  0.6837
 2432TIP3    H228712   4.082   3.012   0.911  0.2099 -1.2169  0.7358
 2433TIP3   OH228713   6.025   3.548   2.569  0.0061 -0.4592 -0.0240
 2433TIP3    H128714   6.070   3.474   2.611  0.3603 -0.3412 -0.1890
 2433TIP3    H228715   5.996   3.514   2.484 -1.1153 -0.8353  0.4899
 2434TIP3   OH228716   4.256   4.367  12.001  0.4391  0.0517  0.4416
 2434TIP3    H128717   4.261   4.353  11.906  0.3585 -0.7924  0.5479
 2434TIP3    H228718   4.345   4.391  12.026  0.1602  1.6877 -0.0390
 2435TIP3   OH228719   3.634   0.784   5.040 -0.2077  0.0998  0.4580
 2435TIP3    H128720   3.695   0.791   4.967 -1.8881 -2.0063 -1.2916
 2435TIP3    H228721   3.625   0.873   5.073  3.2229  0.5990  0.3918
 2436TIP3   OH228722   0.857   2.788   0.964 -0.7603 -0.2633 -0.1156
 2436TIP3    H128723   0.834   2.871   0.923 -0.5269 -0.7531 -1.2875
 2436TIP3    H228724   0.775   2.755   0.999 -0.8222  0.5388  0.5325
 2437TIP3   OH228725   5.478   1.256   5.124  1.2131  0.2183  0.2855
 2437TIP3    H128726   5.514   1.223   5.206  1.7591 -0.5843 -0.2535
 2437TIP3    H228727   5.385   1.237   5.129  1.4482 -1.0837  0.1696
 2438TIP3   OH228728   4.394   5.787   5.324  0.1874 -0.2037  0.1401
 2438TIP3    H128729   4.337   5.727   5.275  0.4488  0.4640 -1.0138
 2438TIP3    H228730   4.475   5.739   5.336  0.3758 -0.1323 -0.7313
 2439TIP3   OH228731   1.215   3.320  14.388 -0.1228 -0.1120  0.2702
 2439TIP3    H128732   1.172   3.243  14.426  0.2240 -0.3260  0.2310
 2439TIP3    H228733   1.148   3.360  14.332  0.0379 -1.0081 -0.5856
 2440TIP3   OH228734   4.408   0.187  13.321 -0.1495 -0.4133 -1.2628
 2440TIP3    H128735   4.457   0.266  13.301 -0.6637 -0.3248 -2.1964
 2440TIP3    H228736   4.466   0.115  13.295  0.1673 -0.3473 -0.7588
 2441TIP3   OH228737   2.962   5.828   2.354  0.0830 -0.1199  0.2432
 2441TIP3    H128738   2.900   5.849   2.284  0.4677  2.4483  0.5717
 2441TIP3    H228739   2.928   5.875   2.431  0.8309 -1.1282  1.2249
 2442TIP3   OH228740   5.471   6.469   3.083 -0.6934  0.0252  0.0908
 2442TIP3    H128741   5.460   6.428   2.997 -0.3582  0.2803 -0.0785
 2442TIP3    H228742   5.382   6.483   3.115 -0.8884 -3.0982  1.2648
 2443TIP3   OH228743   4.845   6.431  12.473 -0.5757 -0.0618 -0.1506
 2443TIP3    H128744   4.831   6.399  12.562  3.7869 -1.9340  0.0870
 2443TIP3    H228745   4.864   6.524  12.484 -0.6262 -0.1488  0.7673
 2444TIP3   OH228746   5.650   2.483   3.749  0.1597 -0.6210  0.2805
 2444TIP3    H128747   5.585   2.414   3.738 -0.4165  0.0917 -0.9914
 2444TIP3    H228748   5.705   2.476   3.671 -0.0278  0.4829  0.0451
 2445TIP3   OH228749   2.607   2.833   3.015  0.2227  0.0050 -0.0370
 2445TIP3    H128750   2.693   2.803   3.045 -0.4439 -1.5277  0.4883
 2445TIP3    H228751   2.618   2.847   2.921  0.5798 -2.2149 -0.3920
 2446TIP3   OH228752   4.679   6.682   5.455  0.5699  0.2515  0.2613
 2446TIP3    H128753   4.629   6.602   5.438  0.0856  0.7473 -0.7673
 2446TIP3    H228754   4.675   6.730   5.372  0.8152  1.3625  0.8814
 2447TIP3   OH228755   1.431   3.942   4.444 -0.0285  0.1805 -0.1727
 2447TIP3    H128756   1.450   4.000   4.370  0.7122  0.6855  0.4022
 2447TIP3    H228757   1.375   3.995   4.501 -0.3118 -0.0845 -0.2056
 2448TIP3   OH228758   1.271   5.892   2.498 -0.1560  0.1233  0.2411
 2448TIP3    H128759   1.231   5.821   2.448 -0.5458  0.4788  0.0404
 2448TIP3    H228760   1.359   5.901   2.461 -1.6011  2.9073 -3.1385
 2449TIP3   OH228761   6.013   2.534   3.312 -0.0728 -0.3354 -0.1170
 2449TIP3    H128762   5.973   2.620   3.319 -0.9890 -0.6747 -1.0285
 2449TIP3    H228763   6.066   2.539   3.232  0.8718 -0.2314  0.5024
 2450TIP3   OH228764   5.868   3.821   0.178 -0.0255  0.1709  0.3276
 2450TIP3    H128765   5.876   3.873   0.098  1.0293 -0.7522 -0.2062
 2450TIP3    H228766   5.797   3.861   0.227  0.3254  1.6933 -0.3679
 2451TIP3   OH228767   6.204   1.512   1.244  1.0710  0.2674  0.2776
 2451TIP3    H128768   6.253   1.533   1.324 -0.4849  0.5729  1.1858
 2451TIP3    H228769   6.251   1.558   1.175  0.5734  2.8275  1.5112
 2452TIP3   OH228770   4.791   5.935   2.175  0.5769  0.0357 -0.2115
 2452TIP3    H128771   4.746   5.858   2.212  0.4120  0.4822  0.5423
 2452TIP3    H228772   4.859   5.955   2.239  0.6044  0.5253 -0.3972
 2453TIP3   OH228773   4.797   4.221  11.251  0.0070  0.1852  0.3060
 2453TIP3    H128774   4.761   4.310  11.249 -0.4373  0.1208  2.6254
 2453TIP3    H228775   4.735   4.168  11.202  0.6308  1.2053 -1.7239
 2454TIP3   OH228776   5.427   4.897  15.927 -0.4438 -0.0332  0.2823
 2454TIP3    H128777   5.419   4.941  15.842 -2.8852  0.8247  0.8837
 2454TIP3    H228778   5.389   4.810  15.913  0.2456 -0.3299  0.2182
 2455TIP3   OH228779   5.886   1.348  16.511 -0.1753  1.1070 -0.0588
 2455TIP3    H128780   5.839   1.349  16.595  0.7345  3.6814  0.5034
 2455TIP3    H228781   5.901   1.255  16.494 -0.0129  0.4846  2.8771
 2456TIP3   OH228782   3.718   3.116   4.419 -0.0863 -0.0033  0.9779
 2456TIP3    H128783   3.630   3.078   4.410 -0.4872  0.7582  1.6657
 2456TIP3    H228784   3.704   3.202   4.457  0.6399  1.6918 -2.1944
 2457TIP3   OH228785   6.298   1.750   5.891  0.4019  0.2569  0.0750
 2457TIP3    H128786   6.352   1.720   5.964  2.0849  1.6984 -0.4969
 2457TIP3    H228787   6.222   1.792   5.933 -0.1171 -1.4363  0.9038
 2458TIP3   OH228788   4.568   0.505  11.517 -0.2960  0.0744  0.5637
 2458TIP3    H128789   4.539   0.593  11.537 -1.6099  0.2294 -1.7146
 2458TIP3    H228790   4.638   0.487  11.581 -2.0858  1.5255  3.0759
 2459TIP3   OH228791   6.232   4.168  12.732 -0.3090  0.1557 -0.1516
 2459TIP3    H128792   6.192   4.249  12.702  0.4217  0.7375  0.4208
 2459TIP3    H228793   6.312   4.195  12.778 -0.6655 -0.7865  1.0955
 2460TIP3   OH228794   2.383   3.438   1.770 -0.0138 -0.6735 -0.0270
 2460TIP3    H128795   2.429   3.430   1.854  1.7652  1.9929 -0.6145
 2460TIP3    H228796   2.424   3.514   1.728 -3.5122  0.5455 -1.6039
 2461TIP3   OH228797   0.759   1.974  11.272 -0.2754 -0.0246 -0.7990
 2461TIP3    H128798   0.829   1.916  11.243 -1.2655 -1.0691 -1.1678
 2461TIP3    H228799   0.771   2.054  11.220  0.3417 -0.3760 -1.2041
 2462TIP3   OH228800   1.141   4.707   1.778  0.2881  0.1512  0.1040
 2462TIP3    H128801   1.097   4.762   1.714  1.1345  0.8186  0.0788
 2462TIP3    H228802   1.234   4.722   1.763  0.5084  0.3723  1.5109
 2463TIP3   OH228803   0.779   2.444   1.554 -0.6255  0.5375 -0.0848
 2463TIP3    H128804   0.788   2.501   1.630  0.2920  0.9642 -0.5089
 2463TIP3    H228805   0.814   2.360   1.583  1.4836  1.2000 -0.5889
 2464TIP3   OH228806   3.730   0.264  17.366 -0.0332 -0.1215 -0.7304
 2464TIP3    H128807   3.782   0.279  17.287  2.5249 -0.2691  0.8437
 2464TIP3    H228808   3.774   0.312  17.435 -1.5113 -0.9560  0.8968
 2465TIP3   OH228809   1.513   2.698  14.653  0.0179 -0.4769 -0.8360
 2465TIP3    H128810   1.522   2.784  14.694 -1.0003 -0.5134 -0.5075
 2465TIP3    H228811   1.447   2.711  14.585  0.8986 -0.6780 -1.7545
 2466TIP3   OH228812   0.881   6.707  13.881  0.4833 -0.2760  0.7180
 2466TIP3    H128813   0.975   6.715  13.894  0.5050  0.0726  0.3284
 2466TIP3    H228814   0.858   6.626  13.927  1.3941 -1.7994 -1.3464
 2467TIP3   OH228815   2.173   5.705   6.066 -0.2051 -0.0304  0.1819
 2467TIP3    H128816   2.155   5.612   6.054 -0.3631  0.2131 -1.8044
 2467TIP3    H228817   2.097   5.738   6.113  0.2746 -1.0476  1.7526
 2468TIP3   OH228818   0.758   4.708   0.120 -0.1546 -0.3653 -0.2304
 2468TIP3    H128819   0.768   4.675   0.031  2.0342 -0.0335 -0.1490
 2468TIP3    H228820   0.789   4.636   0.176  1.5489  0.5602  0.0815
 2469TIP3   OH228821   1.346   5.687   6.562  0.0127  0.9690  0.0507
 2469TIP3    H128822   1.404   5.616   6.534 -0.8846  0.5600 -0.8634
 2469TIP3    H228823   1.277   5.688   6.495 -0.9961  1.4606  1.0731
 2470TIP3   OH228824   3.907   2.733  15.981 -0.0492 -0.1607  0.7895
 2470TIP3    H128825   3.902   2.792  15.906 -1.7313 -0.8965  0.2797
 2470TIP3    H228826   3.948   2.785  16.049  1.1241  0.6707 -0.4903
 2471TIP3   OH228827   4.599   6.664   6.395  0.3874 -0.0535 -0.2202
 2471TIP3    H128828   4.508   6.649   6.369  0.6446 -0.0975 -1.1346
 2471TIP3    H228829   4.594   6.685   6.488 -0.2556 -2.9538  0.4908
 2472TIP3   OH228830   1.725   3.454   3.072  0.5356 -0.0284 -0.4933
 2472TIP3    H128831   1.754   3.408   3.151 -0.7502 -0.2502 -0.1333
 2472TIP3    H228832   1.747   3.394   3.000  3.0230  0.7668 -0.5087
 2473TIP3   OH228833   2.055   5.033   6.048 -0.2275 -0.1373 -0.2942
 2473TIP3    H128834   2.105   5.077   5.980 -0.0976 -1.1680 -0.8837
 2473TIP3    H228835   2.034   5.102   6.111  1.0603  0.5113 -0.5443
 2474TIP3   OH228836   3.474   1.422  12.793 -0.4582  0.3902  0.2202
 2474TIP3    H128837   3.538   1.355  12.768 -0.6666  1.4874 -4.0070
 2474TIP3    H228838   3.393   1.373  12.805 -0.0982 -0.3786 -0.3764
 2475TIP3   OH228839   1.064   0.901   3.886  0.1853 -0.1027 -0.1358
 2475TIP3    H128840   1.145   0.948   3.902  0.4693 -1.1107  1.7136
 2475TIP3    H228841   1.000   0.943   3.944  0.0108 -0.8587  0.2318
 2476TIP3   OH228842   6.200   2.600  15.390 -0.0703 -0.5058  0.4471
 2476TIP3    H128843   6.224   2.657  15.463 -2.8959  1.0977  0.2430
 2476TIP3    H228844   6.147   2.531  15.430 -0.9626 -0.0688  0.0418
 2477TIP3   OH228845   4.540   2.919   1.146  0.9868 -0.3548  0.1143
 2477TIP3    H128846   4.599   2.846   1.130  1.9886 -0.2184  2.7474
 2477TIP3    H228847   4.528   2.920   1.241 -0.7333  1.5905 -0.0493
 2478TIP3   OH228848   2.247   6.633   5.777  0.4566  0.3935  0.0284
 2478TIP3    H128849   2.338   6.605   5.775 -0.2039 -1.9438 -1.4968
 2478TIP3    H228850   2.199   6.564   5.730 -2.0410  1.7583  0.3673
 2479TIP3   OH228851   1.798   4.728   0.637 -0.2873  0.2542 -0.1937
 2479TIP3    H128852   1.824   4.801   0.694  0.6254 -0.3687  0.2113
 2479TIP3    H228853   1.702   4.732   0.636 -0.2716  1.0840  0.3125
 2480TIP3   OH228854   2.654   5.207   0.849 -0.1982 -0.4673 -0.8975
 2480TIP3    H128855   2.586   5.140   0.857  0.1366 -0.6903  0.3804
 2480TIP3    H228856   2.607   5.287   0.823 -0.4588 -1.3915 -3.5668
 2481TIP3   OH228857   3.601   6.753  14.122  0.1509 -0.7689  0.4698
 2481TIP3    H128858   3.566   6.674  14.163 -0.9963 -0.5362 -0.0108
 2481TIP3    H228859   3.525   6.792  14.077  1.1837 -0.6496 -1.2792
 2482TIP3   OH228860   0.829   2.451  16.706  0.2450 -0.2182  0.1048
 2482TIP3    H128861   0.817   2.384  16.638  0.7560  0.8020 -1.0215
 2482TIP3    H228862   0.797   2.409  16.786  0.3828 -1.7418 -0.5966
 2483TIP3   OH228863   3.465   6.364   2.186 -0.3954 -0.0562 -0.2632
 2483TIP3    H128864   3.400   6.398   2.124 -0.3982 -0.9742 -0.7771
 2483TIP3    H228865   3.493   6.441   2.236  1.7892  1.3803 -3.3466
 2484TIP3   OH228866   3.028   4.379   1.145 -0.0658  0.2951  0.3469
 2484TIP3    H128867   3.036   4.458   1.199 -0.2619  0.5275  0.0357
 2484TIP3    H228868   2.935   4.372   1.125  0.1133  0.6849 -0.6690
 2485TIP3   OH228869   5.469   0.005   2.205 -0.0761 -0.1108  0.9125
 2485TIP3    H128870   5.382  -0.025   2.177  0.2997 -0.9772  0.6091
 2485TIP3    H228871   5.511   0.036   2.125  0.8528 -2.2099  0.5156
 2486TIP3   OH228872   0.725   6.330  14.339 -0.1617 -0.1104  0.3935
 2486TIP3    H128873   0.630   6.322  14.334 -0.2505 -1.2016  2.6160
 2486TIP3    H228874   0.740   6.424  14.349 -0.8056  0.3215 -2.1233
 2487TIP3   OH228875   3.622   5.854  14.798  0.0709 -0.8685 -0.2565
 2487TIP3    H128876   3.679   5.915  14.844 -0.7571  0.0486 -0.4004
 2487TIP3    H228877   3.563   5.820  14.865  0.5664 -1.5603 -0.1670
 2488TIP3   OH228878   3.627   0.642   1.955  0.3050 -0.1235  0.0663
 2488TIP3    H128879   3.611   0.732   1.928  0.3580  0.3679  1.5665
 2488TIP3    H228880   3.618   0.644   2.051 -1.7457 -2.1091  0.0099
 2489TIP3   OH228881   6.715   6.386  15.370 -0.0459 -0.3263 -0.3442
 2489TIP3    H128882   6.629   6.410  15.337  0.3886  0.7058 -0.7557
 2489TIP3    H228883   6.776   6.447  15.327  0.9139 -1.1703 -0.2248
 2490TIP3   OH228884   2.605   1.216   6.399  0.4251 -0.3657  0.2686
 2490TIP3    H128885   2.660   1.175   6.332  1.4981  0.5589  0.5600
 2490TIP3    H228886   2.526   1.161   6.402  0.3513 -0.4190 -1.7330
 2491TIP3   OH228887   6.596   5.652  16.233  0.3186 -0.1141 -0.1165
 2491TIP3    H128888   6.641   5.682  16.312  0.7432 -2.2871  0.5485
 2491TIP3    H228889   6.660   5.595  16.190 -0.7483 -0.8523 -0.7629
 2492TIP3   OH228890   1.905   6.057  14.793 -0.1589 -0.1976 -0.4102
 2492TIP3    H128891   1.851   5.998  14.740 -0.0614  0.4883 -1.2980
 2492TIP3    H228892   1.908   6.138  14.743 -0.5240  0.6805  0.9203
 2493TIP3   OH228893   3.632   3.169   3.743 -0.3210  0.5141 -0.4742
 2493TIP3    H128894   3.541   3.157   3.769 -0.1901 -0.2565 -0.3563
 2493TIP3    H228895   3.676   3.090   3.772  0.7516  1.6129  1.0434
 2494TIP3   OH228896   5.293   2.592   2.352  0.2100  0.3166 -0.5103
 2494TIP3    H128897   5.230   2.530   2.389  0.7979 -0.3923 -0.6902
 2494TIP3    H228898   5.352   2.539   2.298  1.8444  0.7424  0.7806
 2495TIP3   OH228899   2.126   2.186   1.248 -0.2822  0.6258 -0.1827
 2495TIP3    H128900   2.124   2.265   1.194  0.9162  0.8485  0.0710
 2495TIP3    H228901   2.218   2.159   1.247 -0.7584 -1.0789 -0.7039
 2496TIP3   OH228902   5.429   1.331  14.791 -0.4596  0.0638  0.3082
 2496TIP3    H128903   5.468   1.299  14.710 -1.1301 -0.1224  0.0526
 2496TIP3    H228904   5.495   1.389  14.828  0.1977 -0.5096  0.0586
 2497TIP3   OH228905   5.476   1.523   5.095 -0.2594 -1.0544  0.1184
 2497TIP3    H128906   5.472   1.430   5.073 -0.6515 -0.7186 -1.3350
 2497TIP3    H228907   5.416   1.533   5.169 -1.6644 -1.6519 -0.9034
 2498TIP3   OH228908   5.400   4.282  15.944  0.0130 -0.3823 -0.3359
 2498TIP3    H128909   5.392   4.220  15.871  1.4314  0.5378 -1.3361
 2498TIP3    H228910   5.316   4.328  15.946 -0.5523 -1.3796 -0.4709
 2499TIP3   OH228911   4.764   6.046  16.275  0.4271 -0.2239 -0.3456
 2499TIP3    H128912   4.735   6.117  16.218  0.8322  1.7257  1.7226
 2499TIP3    H228913   4.856   6.067  16.295 -0.3084  0.5496  2.8076
 2500TIP3   OH228914   5.011   3.207   3.715 -0.5804  0.2213  0.0347
 2500TIP3    H128915   5.004   3.168   3.802 -0.7349  0.1216 -0.0206
 2500TIP3    H228916   4.947   3.158   3.662  0.3168 -0.5056 -0.4185
 2501TIP3   OH228917   3.376   2.982  16.961 -0.0534 -0.2346  0.0897
 2501TIP3    H128918   3.438   3.007  17.029  0.2809  0.2791 -0.3942
 2501TIP3    H228919   3.417   3.011  16.879 -1.2752  0.8135 -0.1741
 2502TIP3   OH228920   0.990   1.741  15.321 -0.4482  0.1523  0.3943
 2502TIP3    H128921   0.972   1.671  15.384  0.4342 -0.8744 -0.4580
 2502TIP3    H228922   1.005   1.695  15.238 -0.1320  1.3757 -0.2470
 2503TIP3   OH228923   2.399   6.310  15.478 -0.1215  0.2916  0.2083
 2503TIP3    H128924   2.370   6.221  15.460 -1.6418  0.9484 -0.8460
 2503TIP3    H228925   2.448   6.336  15.400  1.0552  0.1234  0.8608
 2504TIP3   OH228926   3.906   2.704   6.875  0.6401  0.3316 -0.4280
 2504TIP3    H128927   3.968   2.741   6.813  0.7106  1.1449  0.1099
 2504TIP3    H228928   3.959   2.676   6.949  0.2684  2.7662  0.8829
 2505TIP3   OH228929   1.421   5.349  14.054  0.1159  0.7201 -0.2928
 2505TIP3    H128930   1.396   5.308  14.137  1.4450 -1.6462 -0.9813
 2505TIP3    H228931   1.361   5.314  13.989 -0.3351  1.8533 -0.5170
 2506TIP3   OH228932   4.952   2.354  11.864 -0.4682 -0.3614 -0.3213
 2506TIP3    H128933   4.941   2.448  11.847 -0.0209 -0.5155 -1.6050
 2506TIP3    H228934   4.949   2.346  11.959  0.1404  1.0410 -0.1602
 2507TIP3   OH228935   5.488   4.426   2.739  0.0189 -0.0638  0.0553
 2507TIP3    H128936   5.547   4.366   2.784 -0.8036 -1.9605 -1.3021
 2507TIP3    H228937   5.514   4.422   2.647  1.0523  3.0329  0.0763
 2508TIP3   OH228938   0.716   0.447  15.004  0.3175 -0.5838  0.7490
 2508TIP3    H128939   0.796   0.408  14.968  2.2086 -1.7851  5.5060
 2508TIP3    H228940   0.679   0.378  15.059 -0.5642  1.8132  3.4069
 2509TIP3   OH228941   6.374   2.843   5.969 -0.4273  0.2643  0.0336
 2509TIP3    H128942   6.395   2.919   5.913  1.1830  0.6693  1.1352
 2509TIP3    H228943   6.444   2.781   5.952 -0.7608 -0.2427  0.4944
 2510TIP3   OH228944   5.048   4.832   0.659  0.4111  0.0544 -0.2974
 2510TIP3    H128945   5.110   4.772   0.701 -0.8377 -1.6961 -0.8209
 2510TIP3    H228946   5.100   4.878   0.593  1.8175  0.9623  1.3413
 2511TIP3   OH228947   6.683   6.665   0.643  0.4433  0.2078 -0.0145
 2511TIP3    H128948   6.710   6.740   0.589 -0.5814 -0.6491 -1.7977
 2511TIP3    H228949   6.754   6.601   0.631 -0.0830 -0.2287 -0.9092
 2512TIP3   OH228950   0.380   4.969   0.302 -0.3372 -0.3432 -0.1552
 2512TIP3    H128951   0.337   4.889   0.331 -1.2051 -0.0494 -0.6086
 2512TIP3    H228952   0.469   4.962   0.336 -1.0653 -0.3876  1.8729
 2513TIP3   OH228953   4.805   0.169   1.217 -0.8718  0.0185  0.4208
 2513TIP3    H128954   4.843   0.082   1.233  2.0709  1.0742 -0.1849
 2513TIP3    H228955   4.753   0.158   1.138 -1.6067 -1.4495  1.0727
 2514TIP3   OH228956   1.588   0.871  13.815 -0.3416 -0.1571 -0.0853
 2514TIP3    H128957   1.558   0.918  13.737  0.5523 -0.2247 -0.4877
 2514TIP3    H228958   1.598   0.939  13.881 -1.0664 -0.0923 -0.0330
 2515TIP3   OH228959   1.388   5.756   4.190 -0.6786  0.3654  0.0482
 2515TIP3    H128960   1.318   5.745   4.254 -0.5605  1.1512  0.3161
 2515TIP3    H228961   1.365   5.694   4.120 -1.1434 -0.0462  0.5494
 2516TIP3   OH228962   1.246   3.123   5.248 -0.4948  0.4643  0.5207
 2516TIP3    H128963   1.320   3.174   5.281 -0.2430 -0.4861  1.4782
 2516TIP3    H228964   1.189   3.188   5.207 -0.1522  1.5241  1.6418
 2517TIP3   OH228965   0.246   0.430  11.455  0.2127 -0.1918  0.0112
 2517TIP3    H128966   0.273   0.512  11.413  0.8081 -0.6303 -0.4737
 2517TIP3    H228967   0.275   0.361  11.395 -1.9628 -0.7066 -0.5310
 2518TIP3   OH228968   0.419   3.051  14.023  0.1414  0.0418 -0.2531
 2518TIP3    H128969   0.417   2.962  14.058 -2.9247  0.3332  0.5795
 2518TIP3    H228970   0.349   3.054  13.958 -0.4693  2.0542  0.4069
 2519TIP3   OH228971   1.483   3.084  12.494  0.0596  0.0299  0.4120
 2519TIP3    H128972   1.524   3.022  12.553  1.5440 -0.6310 -1.2242
 2519TIP3    H228973   1.475   3.164  12.545  1.0610 -0.5712  1.5627
 2520TIP3   OH228974   6.148   5.483   2.743  0.2843  0.4191  0.3592
 2520TIP3    H128975   6.199   5.561   2.720 -0.1971  0.8833  0.8376
 2520TIP3    H228976   6.133   5.439   2.660 -0.0042  1.1890 -0.0052
 2521TIP3   OH228977   6.328   0.370   2.236 -0.0960 -0.3171  0.7927
 2521TIP3    H128978   6.317   0.287   2.283 -1.0221  0.5425  2.1643
 2521TIP3    H228979   6.403   0.355   2.178 -1.0110 -2.5024  0.0805
 2522TIP3   OH228980   2.556   4.380  16.180  0.0109 -0.0827  0.0746
 2522TIP3    H128981   2.498   4.371  16.104  0.3751  1.6520 -0.4495
 2522TIP3    H228982   2.498   4.393  16.254 -0.2982  0.9229 -0.3366
 2523TIP3   OH228983   6.093   0.308   2.686 -0.1202 -0.2109  0.2657
 2523TIP3    H128984   6.059   0.378   2.630  1.6495  1.2797  0.9288
 2523TIP3    H228985   6.075   0.227   2.637  1.1712  0.9797 -2.4207
 2524TIP3   OH228986   0.719   3.485   0.914 -0.0698  0.0238  0.3360
 2524TIP3    H128987   0.694   3.472   0.823  1.3245 -0.6408  0.0085
 2524TIP3    H228988   0.656   3.433   0.964 -0.7576  0.2761 -0.2515
 2525TIP3   OH228989   2.822   6.194  11.448 -0.1265  0.8107  0.0001
 2525TIP3    H128990   2.899   6.202  11.392  1.8006 -0.8783  2.2365
 2525TIP3    H228991   2.781   6.112  11.420  2.4111 -1.5501  2.6695
 2526TIP3   OH228992   2.385   1.149  15.624 -0.4570  0.1686 -0.0927
 2526TIP3    H128993   2.460   1.209  15.622 -0.8016  0.7923  2.3840
 2526TIP3    H228994   2.403   1.086  15.554  3.2849 -0.7664  1.4784
 2527TIP3   OH228995   4.245   3.736  13.280  0.4808 -0.2853 -0.3667
 2527TIP3    H128996   4.245   3.801  13.350 -0.5122 -0.7871  0.1272
 2527TIP3    H228997   4.225   3.654  13.324 -0.5572 -0.5479 -1.2899
 2528TIP3   OH228998   3.095   5.428   1.265  0.6075  0.2961  0.0365
 2528TIP3    H128999   3.017   5.483   1.261  1.3798  1.4513  0.4534
 2528TIP3    H229000   3.066   5.343   1.232 -1.3291  0.1302  1.9514
 2529TIP3   OH229001   5.380   4.118  14.067  0.3958 -0.1354  0.5186
 2529TIP3    H129002   5.335   4.061  14.005  0.8520  0.1170 -0.0530
 2529TIP3    H229003   5.310   4.160  14.117 -0.0978  1.2323 -1.2227
 2530TIP3   OH229004   6.694   1.507   1.221  0.1818  0.1796  0.1397
 2530TIP3    H129005   6.766   1.527   1.280  0.6971 -0.9102 -0.0966
 2530TIP3    H229006   6.692   1.580   1.159  1.2438  0.0957  0.0008
 2531TIP3   OH229007   3.435   2.127   0.057  0.5503 -0.5964  0.3041
 2531TIP3    H129008   3.422   2.218   0.031  0.9048 -0.8854 -0.9283
 2531TIP3    H229009   3.350   2.098   0.090 -0.5312 -0.8101 -2.4536
 2532TIP3   OH229010   1.967   2.214   4.653 -0.4020 -0.7361 -0.0239
 2532TIP3    H129011   1.975   2.119   4.663  1.8358 -0.5960  0.1220
 2532TIP3    H229012   2.049   2.240   4.611 -0.6776  1.2276  0.5650
 2533TIP3   OH229013   2.266   0.777   4.406  0.0490 -0.1822 -0.0014
 2533TIP3    H129014   2.285   0.822   4.488 -1.4825  0.3491  0.0841
 2533TIP3    H229015   2.238   0.846   4.346  0.4789 -0.6566 -0.7782
 2534TIP3   OH229016   5.569   5.431   0.146 -0.6456  0.8709 -0.0035
 2534TIP3    H129017   5.574   5.490   0.071  0.7080 -1.1284 -1.5804
 2534TIP3    H229018   5.509   5.362   0.119  1.1428 -0.7703  0.0245
 2535TIP3   OH229019   3.237   6.525  16.974 -0.9303  0.0860  0.5530
 2535TIP3    H129020   3.169   6.587  16.998 -0.2649  0.4805  1.5414
 2535TIP3    H229021   3.237   6.524  16.879 -0.1522  2.5598  0.4432
 2536TIP3   OH229022   4.007   1.122   2.562 -0.0334  0.0168 -0.0567
 2536TIP3    H129023   3.927   1.071   2.566 -0.6561  0.8861 -0.8867
 2536TIP3    H229024   4.070   1.065   2.518 -0.7029 -0.0823 -0.9279
 2537TIP3   OH229025   3.632   4.117  14.602  0.1317 -0.1383  0.4998
 2537TIP3    H129026   3.609   4.066  14.680  0.4190 -1.1991 -0.0794
 2537TIP3    H229027   3.553   4.114  14.547 -0.2153  0.9677  0.9229
 2538TIP3   OH229028   2.537   5.165   2.082 -0.2673  0.3721  0.2882
 2538TIP3    H129029   2.592   5.087   2.090 -0.4687  0.3682  1.7894
 2538TIP3    H229030   2.580   5.231   2.136 -0.2158  1.2581 -0.7996
 2539TIP3   OH229031   2.290   6.193   4.517  0.7016 -0.6400  0.0722
 2539TIP3    H129032   2.259   6.104   4.536 -3.3182  0.9688  2.4119
 2539TIP3    H229033   2.315   6.228   4.603  0.2379  1.1107 -0.4654
 2540TIP3   OH229034   4.117   0.288   2.500  0.4984 -0.0566  0.2699
 2540TIP3    H129035   4.139   0.374   2.536 -1.2835  0.1173  1.0720
 2540TIP3    H229036   4.032   0.301   2.457 -1.2282 -1.9237  2.7839
 2541TIP3   OH229037   2.334   0.735   1.114 -0.3039 -0.0392 -0.0863
 2541TIP3    H129038   2.420   0.723   1.155 -0.3463 -2.2195 -0.5252
 2541TIP3    H229039   2.274   0.741   1.189  0.2513  2.4498  0.2567
 2542TIP3   OH229040   1.063   4.993  16.994  0.0363 -0.3613 -0.0870
 2542TIP3    H129041   1.151   5.030  16.983  0.3209  0.1173  2.9078
 2542TIP3    H229042   1.049   4.940  16.916  2.1398  1.1859 -1.6163
 2543TIP3   OH229043   6.019   1.610   0.620 -0.4164  0.3241  0.0674
 2543TIP3    H129044   5.925   1.605   0.602 -0.5176 -0.6654  0.7293
 2543TIP3    H229045   6.033   1.699   0.653 -1.0687  0.5682 -0.3002
 2544TIP3   OH229046   2.642   1.696  13.083  0.0115 -0.3701 -0.1714
 2544TIP3    H129047   2.624   1.604  13.103 -2.9772  0.2479  0.5782
 2544TIP3    H229048   2.587   1.745  13.145  0.7500  1.9138 -1.2018
 2545TIP3   OH229049   3.537   2.221   5.527  0.3258  0.4413 -0.2340
 2545TIP3    H129050   3.509   2.218   5.619 -2.2977  2.1271 -0.8524
 2545TIP3    H229051   3.590   2.300   5.520  2.2342 -0.7367  0.1540
 2546TIP3   OH229052   6.066   0.249  15.185 -0.2356 -0.4002 -0.1220
 2546TIP3    H129053   6.020   0.176  15.143  0.0243 -0.8747  0.4155
 2546TIP3    H229054   6.097   0.303  15.112  1.3094 -1.8714 -0.6143
 2547TIP3   OH229055   5.300   5.365  11.402  0.5426 -0.3519  0.4079
 2547TIP3    H129056   5.373   5.324  11.450 -0.0467 -1.4130  0.4243
 2547TIP3    H229057   5.222   5.317  11.432 -0.1559  0.7122  0.3259
 2548TIP3   OH229058   3.524   1.266  13.996  0.3931 -0.1767  0.1527
 2548TIP3    H129059   3.482   1.350  14.013 -0.4697 -0.2882 -1.2854
 2548TIP3    H229060   3.583   1.253  14.071  0.2494  1.5015  0.5927
 2549TIP3   OH229061   4.336   2.035  14.414 -0.0375 -0.1791  0.2658
 2549TIP3    H129062   4.377   1.984  14.484  0.7967 -0.3308 -0.3158
 2549TIP3    H229063   4.256   2.070  14.453 -0.2982 -1.4127  0.8639
 2550TIP3   OH229064   6.003   4.085  14.151  0.5739 -0.7739 -0.0437
 2550TIP3    H129065   5.968   4.147  14.214  0.1926 -0.0799 -0.9243
 2550TIP3    H229066   5.939   4.014  14.149  1.0277 -1.2294  0.9911
 2551TIP3   OH229067   6.201   3.166  16.546  0.9973 -0.5879  0.2423
 2551TIP3    H129068   6.277   3.176  16.489  2.0709 -1.4595  1.4715
 2551TIP3    H229069   6.160   3.084  16.517 -0.0138  0.2964 -0.9723
 2552TIP3   OH229070   6.740   4.607   2.171 -0.1172  0.5907 -0.2717
 2552TIP3    H129071   6.744   4.533   2.111  1.0822  1.1522 -0.9101
 2552TIP3    H229072   6.731   4.567   2.258  3.0088 -0.4865 -0.3087
 2553TIP3   OH229073   5.529   1.648   0.459  0.3265 -0.3447  0.7292
 2553TIP3    H129074   5.442   1.647   0.418  0.1013 -2.5454  1.1239
 2553TIP3    H229075   5.585   1.691   0.394 -0.5322 -1.3885 -0.7798
 2554TIP3   OH229076   3.361   4.034   4.467 -0.4365 -0.5048 -0.3539
 2554TIP3    H129077   3.299   3.993   4.408 -1.6071  1.2851 -0.4248
 2554TIP3    H229078   3.307   4.077   4.533  0.6699  1.5502 -0.7174
 2555TIP3   OH229079   0.856   4.401   6.063  0.0245 -0.3389  0.5423
 2555TIP3    H129080   0.930   4.354   6.102  0.3640 -0.4124 -0.1713
 2555TIP3    H229081   0.782   4.341   6.071  0.0226 -0.2435  1.3133
 2556TIP3   OH229082   0.257   2.686   6.167 -0.1666  0.4144  0.1889
 2556TIP3    H129083   0.302   2.770   6.162 -3.3805  2.2145 -2.9513
 2556TIP3    H229084   0.195   2.696   6.238 -0.7936  0.8752 -0.4143
 2557TIP3   OH229085   4.425   3.847   6.057 -0.0213  0.0142 -0.0789
 2557TIP3    H129086   4.447   3.857   6.150 -0.7359  0.5451  0.0388
 2557TIP3    H229087   4.477   3.915   6.013 -0.5189  0.4970  0.0658
 2558TIP3   OH229088   6.421   0.641   1.056  0.2818  0.7952  0.1464
 2558TIP3    H129089   6.329   0.630   1.035 -0.1006  3.3127  0.2533
 2558TIP3    H229090   6.422   0.668   1.147  1.3323 -1.3069  0.8281
 2559TIP3   OH229091   4.482   5.344  12.946  0.0774  0.0804 -0.0997
 2559TIP3    H129092   4.388   5.355  12.934 -0.0731 -0.0880  0.8521
 2559TIP3    H229093   4.511   5.426  12.984  0.6763  0.8935 -2.1736
 2560TIP3   OH229094   0.466   1.870   3.157  0.0725 -0.1138  0.4286
 2560TIP3    H129095   0.436   1.959   3.136  1.0951  0.6144  1.8299
 2560TIP3    H229096   0.477   1.871   3.252  2.2719 -1.0178  0.2510
 2561TIP3   OH229097   4.412   6.245  12.962 -0.6951  0.0697  0.0218
 2561TIP3    H129098   4.392   6.151  12.968 -1.1088  0.1552  0.0546
 2561TIP3    H229099   4.505   6.251  12.981 -1.0826 -0.1189  2.3009
 2562TIP3   OH229100   1.489   2.010   0.595 -0.0650 -0.8575 -0.4323
 2562TIP3    H129101   1.513   2.098   0.566 -0.3836  0.3778  2.7188
 2562TIP3    H229102   1.434   1.977   0.524  0.2959  1.3506 -1.8615
 2563TIP3   OH229103   6.007   2.207  15.710  0.6111 -0.4127 -0.1427
 2563TIP3    H129104   5.965   2.131  15.750  0.7823 -0.9811 -1.0078
 2563TIP3    H229105   6.072   2.235  15.774 -1.3969  0.8211  1.4804
 2564TIP3   OH229106   5.688   3.581  12.134  0.2061 -0.1314  0.1505
 2564TIP3    H129107   5.749   3.645  12.099  2.2155 -0.4680  2.7280
 2564TIP3    H229108   5.728   3.496  12.116 -1.0400 -0.5662 -0.7438
 2565TIP3   OH229109   3.014   5.073  16.274 -0.4812 -0.3035 -0.1851
 2565TIP3    H129110   2.987   5.095  16.363 -0.5489 -0.7010 -0.1040
 2565TIP3    H229111   2.953   5.120  16.217  0.2304  0.8243 -0.0394
 2566TIP3   OH229112   1.915   5.191  12.267 -0.0392  0.3095 -0.3822
 2566TIP3    H129113   1.994   5.200  12.214 -0.2007 -0.1353 -0.7004
 2566TIP3    H229114   1.897   5.097  12.270 -0.0387  0.3241  0.4593
 2567TIP3   OH229115   3.822   5.937   0.302 -0.1521 -0.2463  0.3030
 2567TIP3    H129116   3.900   5.976   0.263  0.6604 -2.0651 -0.0151
 2567TIP3    H229117   3.752   5.953   0.239  0.5322 -0.7116 -0.6055
 2568TIP3   OH229118   5.040   5.431   3.342 -0.0925 -0.2894 -0.1085
 2568TIP3    H129119   5.016   5.462   3.254 -2.3525 -1.6622 -0.0670
 2568TIP3    H229120   5.090   5.351   3.327 -2.2081 -1.6708 -0.2258
 2569TIP3   OH229121   0.147   2.960  14.849 -0.4363  0.6587  0.2396
 2569TIP3    H129122   0.133   2.983  14.757 -1.0539  1.5666  0.5397
 2569TIP3    H229123   0.238   2.983  14.866  0.9034 -3.0517 -1.1098
 2570TIP3   OH229124   3.111   1.807   4.601 -0.0985 -0.1943 -0.2494
 2570TIP3    H129125   3.117   1.863   4.523 -0.7387  0.8446  0.4143
 2570TIP3    H229126   3.186   1.749   4.594 -0.0188  0.0190 -1.5304
 2571TIP3   OH229127   2.710   1.673   4.786  0.7855  0.2196  0.2658
 2571TIP3    H129128   2.631   1.724   4.805  0.0383 -0.8522  0.1529
 2571TIP3    H229129   2.782   1.733   4.803 -0.0836  1.6739 -0.9423
 2572TIP3   OH229130   4.591   4.063  12.394  0.7293  0.2719 -0.8289
 2572TIP3    H129131   4.607   4.016  12.312 -0.2365  0.9929 -1.4390
 2572TIP3    H229132   4.524   4.127  12.373 -1.8736 -1.5656  1.2511
 2573TIP3   OH229133   3.224   3.427   1.410  0.0008  0.5809 -0.4905
 2573TIP3    H129134   3.266   3.377   1.479 -0.4532 -0.7893 -1.1816
 2573TIP3    H229135   3.293   3.445   1.347  0.0841  0.5081 -0.4196
 2574TIP3   OH229136   0.098   5.261  17.140 -0.0654 -0.2991  0.0354
 2574TIP3    H129137   0.075   5.264  17.233  1.3766 -0.8619  0.4400
 2574TIP3    H229138   0.016   5.236  17.096 -0.3910 -1.7067  1.3366
 2575TIP3   OH229139   1.327   3.607   4.469  0.2000  0.1890  0.2166
 2575TIP3    H129140   1.260   3.638   4.531  1.6565  1.0171  1.4666
 2575TIP3    H229141   1.409   3.609   4.520  0.9736 -2.2508 -0.7837
 2576TIP3   OH229142   5.008   5.691  14.203 -0.4533  0.4861  0.2269
 2576TIP3    H129143   5.036   5.648  14.123 -0.5226  1.2959 -0.2447
 2576TIP3    H229144   5.066   5.657  14.271 -1.4280 -1.4440  0.1685
 2577TIP3   OH229145   0.264   1.105  12.030  0.1151 -0.4198 -0.4076
 2577TIP3    H129146   0.174   1.075  12.012  0.4297 -1.4201 -0.3645
 2577TIP3    H229147   0.297   1.133  11.944 -0.0366 -0.6078 -0.5276
 2578TIP3   OH229148   2.386   0.486  10.920  0.4935 -0.6123  0.3647
 2578TIP3    H129149   2.424   0.496  11.007  0.5454  2.1386  0.1297
 2578TIP3    H229150   2.315   0.423  10.931  0.8889 -0.7528  2.2763
 2579TIP3   OH229151   0.855   3.864  14.445  0.1844  0.2595 -0.0227
 2579TIP3    H129152   0.765   3.883  14.419  0.8463  1.5015 -1.5967
 2579TIP3    H229153   0.887   3.945  14.485  1.1642  0.4896 -1.2084
 2580TIP3   OH229154   1.767   4.470  12.804 -0.0564 -0.2653 -0.4428
 2580TIP3    H129155   1.748   4.459  12.711  0.7912 -1.1851 -0.5291
 2580TIP3    H229156   1.826   4.397  12.825 -0.6353 -0.3667  0.9314
 2581TIP3   OH229157   0.660   5.211  11.199 -0.2514 -0.4249  0.1742
 2581TIP3    H129158   0.742   5.167  11.175  0.0929  0.2416  0.1144
 2581TIP3    H229159   0.638   5.175  11.284 -0.6527 -1.6582 -0.4277
 2582TIP3   OH229160   1.797   1.877  17.334  0.3852  0.1005  0.1928
 2582TIP3    H129161   1.890   1.870  17.312 -0.0544  1.3219 -2.5014
 2582TIP3    H229162   1.773   1.966  17.307 -1.0905  0.6915  3.0481
 2583TIP3   OH229163   4.237   1.657   4.673  0.1109  0.5477 -0.0788
 2583TIP3    H129164   4.274   1.585   4.724  1.4574  1.0622 -0.2830
 2583TIP3    H229165   4.165   1.691   4.727 -2.5633 -2.7378 -1.2028
 2584TIP3   OH229166   2.024   3.900  16.912  0.7912  0.4298  0.6578
 2584TIP3    H129167   2.084   3.940  16.850 -0.6811  1.9683  0.1445
 2584TIP3    H229168   2.080   3.857  16.977  2.4029  1.5116  0.0139
 2585TIP3   OH229169   4.139   5.150   4.570  0.4902 -0.0794  0.1412
 2585TIP3    H129170   4.155   5.205   4.647  1.2000 -0.3173  0.1686
 2585TIP3    H229171   4.212   5.169   4.512  0.7866 -1.0671  0.1862
 2586TIP3   OH229172   3.113   6.107  13.632 -0.0670  0.1771 -0.4352
 2586TIP3    H129173   3.039   6.168  13.633  0.5487  0.9892 -1.6467
 2586TIP3    H229174   3.075   6.024  13.606 -0.5056  0.6913 -1.4924
 2587TIP3   OH229175   6.505   0.528   0.062  0.3162 -0.4909 -0.3656
 2587TIP3    H129176   6.555   0.452   0.090  0.4645  0.8505  3.6933
 2587TIP3    H229177   6.415   0.510   0.090  0.6307  1.2791  2.1582
 2588TIP3   OH229178   3.782   4.167  11.768  0.3077  0.0964 -0.2642
 2588TIP3    H129179   3.689   4.181  11.781  0.0252 -1.5954 -0.2721
 2588TIP3    H229180   3.788   4.112  11.690  1.4230  1.5508 -1.2688
 2589TIP3   OH229181   0.526   1.290  12.444 -0.0068  0.0607  0.4441
 2589TIP3    H129182   0.514   1.241  12.363  0.4115 -0.9685  0.9821
 2589TIP3    H229183   0.509   1.226  12.513  1.7028  0.3615  1.1837
 2590TIP3   OH229184   1.450   1.929  12.751 -0.6735 -0.1745  0.5318
 2590TIP3    H129185   1.396   1.919  12.672  1.0363  0.4855 -0.7746
 2590TIP3    H229186   1.386   1.935  12.822 -2.2793 -0.7341 -0.7758
 2591TIP3   OH229187   4.549   5.446   1.395  0.6464  0.0226  0.2429
 2591TIP3    H129188   4.610   5.484   1.333  0.9401 -0.8210  0.0019
 2591TIP3    H229189   4.563   5.351   1.388  0.2078 -0.1169  1.1025
 2592TIP3   OH229190   2.911   2.416  13.587 -0.1467 -0.5073 -0.0285
 2592TIP3    H129191   2.841   2.417  13.522  0.0646 -1.8345 -0.3217
 2592TIP3    H229192   2.868   2.435  13.670 -0.6021  0.1155 -0.3966
 2593TIP3   OH229193   0.270   3.735  12.736  0.2743 -0.4385  0.2770
 2593TIP3    H129194   0.225   3.654  12.713 -1.0109  0.0771  0.9098
 2593TIP3    H229195   0.345   3.706  12.789 -0.0834 -1.2173  0.3743
 2594TIP3   OH229196   4.835   5.118   2.702  0.4455  0.1080 -0.3998
 2594TIP3    H129197   4.784   5.037   2.710 -0.9908  1.0549  0.4527
 2594TIP3    H229198   4.899   5.099   2.633 -2.0535 -0.6359 -2.6659
 2595TIP3   OH229199   1.253   2.519   5.230 -0.7091 -0.1671  0.8434
 2595TIP3    H129200   1.284   2.452   5.291  1.4570 -0.1032 -0.1078
 2595TIP3    H229201   1.300   2.598   5.255  1.4135 -0.4759 -1.7206
 2596TIP3   OH229202   1.047   0.117   1.421  0.1817 -0.6245  0.0694
 2596TIP3    H129203   1.057   0.152   1.510  1.3092 -2.2841  0.6386
 2596TIP3    H229204   0.962   0.151   1.392  0.1044  0.5267  1.4920
 2597TIP3   OH229205   5.698   4.594  12.072  0.3209  0.6410  0.2855
 2597TIP3    H129206   5.751   4.570  11.996  1.9908  2.2822  0.8465
 2597TIP3    H229207   5.630   4.651  12.037  1.3264  1.7257  0.0274
 2598TIP3   OH229208   1.953   6.051  12.132 -0.5537  0.1476 -0.1913
 2598TIP3    H129209   1.936   6.110  12.206 -1.3102  0.6551 -0.7645
 2598TIP3    H229210   2.027   6.090  12.086 -0.8702  0.4960 -0.4055
 2599TIP3   OH229211   5.839   5.888   4.912 -0.2738  0.3135  0.2303
 2599TIP3    H129212   5.913   5.948   4.903 -0.2777  0.3903  0.6561
 2599TIP3    H229213   5.872   5.818   4.968 -0.1096 -0.3597 -0.6954
 2600TIP3   OH229214   1.856   4.347   5.748 -0.1664  0.7213  0.2612
 2600TIP3    H129215   1.906   4.399   5.811  0.6281 -0.5579  0.7400
 2600TIP3    H229216   1.834   4.267   5.796 -2.4000  1.0948 -0.0562
 2601TIP3   OH229217   2.648   4.256   2.926  0.6590 -0.1981  0.3989
 2601TIP3    H129218   2.701   4.324   2.966  1.5748 -0.7110  0.0870
 2601TIP3    H229219   2.605   4.299   2.852  0.1256  0.3771  1.0296
 2602TIP3   OH229220   0.759   6.066  15.409 -0.3230  0.0739  0.0736
 2602TIP3    H129221   0.686   6.090  15.467 -0.4699  0.6121 -0.3222
 2602TIP3    H229222   0.719   6.052  15.324 -0.3209 -2.1757  0.3781
 2603TIP3   OH229223   1.421   0.148   5.605  0.5102 -0.5503  1.0810
 2603TIP3    H129224   1.413   0.242   5.591 -1.8579 -0.6083  1.6031
 2603TIP3    H229225   1.492   0.121   5.547  0.5882  1.3904  0.1954
 2604TIP3   OH229226   3.709   2.804   2.607  0.0422 -0.3235  0.7602
 2604TIP3    H129227   3.722   2.796   2.512 -1.0369 -0.1806  0.5933
 2604TIP3    H229228   3.798   2.809   2.642  0.7523  5.6072 -0.7575
 2605TIP3   OH229229   1.690   4.602   4.046  0.2931 -0.6604  0.4834
 2605TIP3    H129230   1.646   4.517   4.036 -1.1344 -0.2124  2.3769
 2605TIP3    H229231   1.623   4.666   4.020  1.1413 -0.0749 -0.2976
 2606TIP3   OH229232   2.556   4.453  11.183 -0.0024 -0.2000 -0.0393
 2606TIP3    H129233   2.627   4.497  11.135  1.3571  0.9680  2.7903
 2606TIP3    H229234   2.528   4.382  11.125  0.9569  1.5279 -2.8158
 2607TIP3   OH229235   3.206   4.888   1.821 -0.2474  0.0428  0.2163
 2607TIP3    H129236   3.275   4.822   1.820 -0.7027 -0.4646  1.0132
 2607TIP3    H229237   3.252   4.971   1.827  0.3061 -0.2878  0.6947
 2608TIP3   OH229238   0.032   1.088  16.869  0.1991 -0.4608  0.2827
 2608TIP3    H129239   0.083   1.056  16.943  0.7780  1.6404  0.8561
 2608TIP3    H229240   0.096   1.128  16.810 -0.5745  0.9426  0.3301
 2609TIP3   OH229241   3.988   5.019  12.213 -0.4315 -0.3391  0.1575
 2609TIP3    H129242   3.972   5.019  12.119 -2.1971 -0.5270  0.4254
 2609TIP3    H229243   4.033   4.936  12.230  0.6559  0.0673 -0.5990
 2610TIP3   OH229244   4.357   4.660  14.631 -0.3420 -0.2883  0.2028
 2610TIP3    H129245   4.356   4.622  14.719  0.8607 -1.8164 -0.3769
 2610TIP3    H229246   4.399   4.592  14.577 -2.4886 -0.0768 -1.8696
 2611TIP3   OH229247   2.971   2.105  13.591 -0.2322 -0.0459 -0.4733
 2611TIP3    H129248   2.908   2.054  13.642 -0.2382  0.0348 -0.4011
 2611TIP3    H229249   2.945   2.196  13.604  0.0224  0.0021 -0.2746
 2612TIP3   OH229250   4.598   1.103  16.950  0.1022 -0.3949 -0.7758
 2612TIP3    H129251   4.567   1.128  17.037  0.3527  0.5030 -0.9353
 2612TIP3    H229252   4.644   1.020  16.964  0.7833  0.1087  0.0896
 2613TIP3   OH229253   5.723   6.318  14.948 -0.0289  0.0091  0.4035
 2613TIP3    H129254   5.683   6.298  15.033  0.5364 -1.8313  0.2830
 2613TIP3    H229255   5.667   6.275  14.884 -1.3880  2.7397 -0.3982
 2614TIP3   OH229256   3.358   5.127   1.695  0.0194  0.1915 -0.2830
 2614TIP3    H129257   3.391   5.170   1.617  1.0164 -0.9011 -0.5001
 2614TIP3    H229258   3.435   5.084   1.733 -0.4887  0.4877  1.1677
 2615TIP3   OH229259   2.785   1.470  14.431 -0.1011  0.2796  0.2244
 2615TIP3    H129260   2.867   1.435  14.466  0.3858  2.6655  1.7097
 2615TIP3    H229261   2.718   1.407  14.458  1.0915 -1.2684 -0.2732
 2616TIP3   OH229262   0.265   5.796  14.303 -0.5188  0.2179 -0.0457
 2616TIP3    H129263   0.309   5.860  14.248 -1.0809 -0.2478 -1.0553
 2616TIP3    H229264   0.207   5.849  14.359  0.2452  0.7102  0.2942
 2617TIP3   OH229265   5.829   1.552   5.982 -0.2144  0.0609 -0.2096
 2617TIP3    H129266   5.736   1.531   5.977 -0.3697  0.9434 -1.7557
 2617TIP3    H229267   5.872   1.477   5.941 -0.3438  0.2323 -0.6626
 2618TIP3   OH229268   0.172   2.257  15.408 -0.2513  0.1049  0.4317
 2618TIP3    H129269   0.181   2.208  15.490  1.1191  1.9095  1.4292
 2618TIP3    H229270   0.262   2.275  15.381 -0.6356 -1.0597 -1.9172
 2619TIP3   OH229271   5.543   0.784  13.983 -0.2137  1.1017  0.0658
 2619TIP3    H129272   5.495   0.857  13.942 -0.5091  0.8862  0.0249
 2619TIP3    H229273   5.506   0.778  14.071 -1.4374 -0.1173 -0.4880
 2620TIP3   OH229274   5.023   6.739  16.051  0.5722  0.5724 -0.1011
 2620TIP3    H129275   5.007   6.707  16.139 -0.8841  2.1543  0.2706
 2620TIP3    H229276   4.941   6.724  16.004  1.3224 -0.2514 -1.2273
 2621TIP3   OH229277   3.654   0.958  16.795 -0.6303  0.4953 -0.3855
 2621TIP3    H129278   3.673   0.937  16.704  0.3201  1.4804 -0.4344
 2621TIP3    H229279   3.695   1.043  16.809 -1.5011  0.7542  0.7252
 2622TIP3   OH229280   4.305   4.490   3.255  0.1874 -0.1060 -0.2098
 2622TIP3    H129281   4.311   4.399   3.226  1.9137  0.6461 -2.4510
 2622TIP3    H229282   4.237   4.528   3.200 -1.6683 -0.3216  1.7856
 2623TIP3   OH229283   4.696   5.582  13.998  0.0172  0.0568  0.4332
 2623TIP3    H129284   4.721   5.569  13.907  0.3525 -1.8796  0.7445
 2623TIP3    H229285   4.623   5.521  14.011 -1.5803  1.9876  0.8691
 2624TIP3   OH229286   4.263   5.955   0.304 -0.4646 -0.1123  0.2373
 2624TIP3    H129287   4.213   5.987   0.229  0.7611 -1.4783 -1.2114
 2624TIP3    H229288   4.304   6.034   0.340 -1.3037  0.6062 -0.3199
 2625TIP3   OH229289   4.025   1.396   0.075 -0.7935  0.5460 -0.0809
 2625TIP3    H129290   4.120   1.393   0.082 -0.5222 -0.5898 -2.7957
 2625TIP3    H229291   4.001   1.481   0.111  0.9946  0.1408  2.3452
 2626TIP3   OH229292   5.686   3.471   3.796 -0.0820  0.2307 -0.1242
 2626TIP3    H129293   5.701   3.378   3.810  0.5987  0.5143  1.2940
 2626TIP3    H229294   5.764   3.513   3.833 -1.5640  1.4803  1.8195
 2627TIP3   OH229295   1.802   3.497   2.255 -0.6896  0.1081  0.1188
 2627TIP3    H129296   1.841   3.533   2.175 -0.1581 -1.0201 -0.1533
 2627TIP3    H229297   1.878   3.479   2.312 -1.0821  1.3422  1.1003
 2628TIP3   OH229298   1.877   1.173  16.423  0.1056 -0.0715 -0.4172
 2628TIP3    H129299   1.860   1.239  16.490 -0.6573  0.0583 -0.7366
 2628TIP3    H229300   1.900   1.094  16.473 -3.6401 -0.9587  0.2237
 2629TIP3   OH229301   1.062   3.069   4.532 -0.1518  0.2124 -0.1779
 2629TIP3    H129302   1.047   3.049   4.624  0.9783  1.0879  0.2080
 2629TIP3    H229303   1.028   2.992   4.486 -1.5655  0.1468  0.8846
 2630TIP3   OH229304   2.522   5.577   3.694 -0.1923 -0.1621 -0.0365
 2630TIP3    H129305   2.502   5.572   3.601  1.4927 -0.5052 -0.4093
 2630TIP3    H229306   2.523   5.486   3.724  1.8973 -0.2795 -0.3194
 2631TIP3   OH229307   6.136   6.721  13.968  0.0755  0.2806 -0.0431
 2631TIP3    H129308   6.056   6.721  13.914  0.9302 -1.3573 -1.4011
 2631TIP3    H229309   6.179   6.639  13.946  1.2988  0.3310  1.9756
 2632TIP3   OH229310   1.347   5.556  11.689  0.3504 -0.4110 -0.6695
 2632TIP3    H129311   1.382   5.467  11.687 -1.2522 -1.0853 -0.3899
 2632TIP3    H229312   1.266   5.551  11.638  1.3650  1.4443 -2.6168
 2633TIP3   OH229313   2.908   5.097  16.537  0.1999 -0.0908 -0.4258
 2633TIP3    H129314   2.963   5.026  16.571 -0.5378 -0.2567  0.4790
 2633TIP3    H229315   2.926   5.171  16.596  0.2992  0.2069 -0.8238
 2634TIP3   OH229316   5.260   1.895   1.383  0.0466  0.3059  0.1653
 2634TIP3    H129317   5.178   1.886   1.432 -0.6425  0.3498 -0.9538
 2634TIP3    H229318   5.285   1.805   1.362 -0.1443  0.3305 -0.1764
 2635TIP3   OH229319   3.353   4.315  15.330  0.4621  0.5257 -0.2651
 2635TIP3    H129320   3.271   4.330  15.376  0.3157 -2.9571  0.9183
 2635TIP3    H229321   3.421   4.328  15.396  0.4461 -1.3993  0.2095
 2636TIP3   OH229322   1.298   2.791  14.890 -0.1088 -0.4526 -0.1442
 2636TIP3    H129323   1.257   2.809  14.805  0.0464 -0.8787 -0.3098
 2636TIP3    H229324   1.318   2.698  14.888  2.2196 -0.0039 -0.6783
 2637TIP3   OH229325   0.011   6.405  15.825 -0.3183 -0.0623  0.6120
 2637TIP3    H129326   0.086   6.457  15.796 -3.0614  3.7807 -0.3010
 2637TIP3    H229327   0.018   6.405  15.921  0.5959  0.5815  0.5602
 2638TIP3   OH229328   2.009   0.653  16.120  0.6021  0.8355 -0.2682
 2638TIP3    H129329   1.963   0.704  16.052 -1.3679  1.2491  1.2900
 2638TIP3    H229330   1.997   0.704  16.200  2.6346  0.2081  0.4945
 2639TIP3   OH229331   3.888   0.511  14.971  0.2346  0.3109  0.1615
 2639TIP3    H129332   3.954   0.447  14.945 -0.9224 -0.1131 -1.9155
 2639TIP3    H229333   3.818   0.459  15.009 -1.2963  0.0864 -2.7342
 2640TIP3   OH229334   3.473   3.495  16.002  0.3435 -0.7160  0.2098
 2640TIP3    H129335   3.455   3.438  16.076 -0.6144  1.0483  1.4188
 2640TIP3    H229336   3.562   3.528  16.017  0.1075 -0.2722  0.6576
 2641TIP3   OH229337   6.475   2.687  15.020 -0.2340  0.9609 -0.0112
 2641TIP3    H129338   6.547   2.743  14.991 -0.8284  2.0952  0.6048
 2641TIP3    H229339   6.518   2.617  15.070  0.6365 -0.0046 -2.0166
 2642TIP3   OH229340   1.016   2.805   5.408  0.1244 -0.4025 -0.3131
 2642TIP3    H129341   1.100   2.843   5.431 -0.1798  0.1440 -0.0943
 2642TIP3    H229342   1.004   2.732   5.469 -0.6439  0.9892  1.2647
 2643TIP3   OH229343   0.050   5.539  14.659 -0.2570 -0.1832 -0.1594
 2643TIP3    H129344   0.054   5.579  14.572 -1.6197 -0.2598 -0.2818
 2643TIP3    H229345   0.053   5.613  14.720 -0.5429 -0.0457 -0.3121
 2644TIP3   OH229346   5.796   2.331  13.702 -0.3597  0.4079 -0.1697
 2644TIP3    H129347   5.830   2.419  13.687  0.1196  0.5360  1.5484
 2644TIP3    H229348   5.736   2.339  13.776 -1.7850 -0.3930 -1.1808
 2645TIP3   OH229349   4.076   3.265  15.507  0.6074  0.0098  0.0170
 2645TIP3    H129350   4.001   3.206  15.502  2.5796 -2.7490  0.5099
 2645TIP3    H229351   4.049   3.333  15.569 -2.3913  0.7595 -1.8947
 2646TIP3   OH229352   3.857   0.570   1.310 -0.2364 -0.4650 -0.1914
 2646TIP3    H129353   3.895   0.655   1.287  0.6813 -0.3594  1.5736
 2646TIP3    H229354   3.777   0.593   1.359  1.0503 -0.5158  2.0485
 2647TIP3   OH229355   1.691   2.986   4.245  0.4021  0.2034  0.2810
 2647TIP3    H129356   1.767   2.932   4.264  0.4385  1.0695  3.0014
 2647TIP3    H229357   1.677   3.038   4.325 -1.6234  1.7796 -0.9799
 2648TIP3   OH229358   3.117   4.874   1.025 -0.1705  0.4465 -0.5426
 2648TIP3    H129359   3.198   4.910   1.063  1.1722 -0.0142 -2.7793
 2648TIP3    H229360   3.136   4.867   0.932 -2.3798 -0.9019 -0.9504
 2649TIP3   OH229361   0.120   5.499  13.146  0.3692 -0.5538 -0.0503
 2649TIP3    H129362   0.127   5.466  13.236 -1.0202 -1.4862 -0.2326
 2649TIP3    H229363   0.206   5.534  13.126  0.7263 -0.3898  1.6230
 2650TIP3   OH229364   5.746   6.500   4.814  0.5153 -0.3309  0.5325
 2650TIP3    H129365   5.797   6.579   4.798  0.7662 -0.6976 -0.5916
 2650TIP3    H229366   5.702   6.516   4.898  0.9056  0.8079  0.5377
 2651TIP3   OH229367   1.702   5.311   0.609 -0.0782 -0.0207 -0.0613
 2651TIP3    H129368   1.725   5.239   0.667 -0.3553  0.4866  0.7065
 2651TIP3    H229369   1.611   5.293   0.583 -0.5621  0.6384  1.0833
 2652TIP3   OH229370   5.028   4.475  15.150  0.3425  0.1631 -0.6120
 2652TIP3    H129371   4.985   4.453  15.067 -1.7241  0.6193  0.2710
 2652TIP3    H229372   5.121   4.465  15.132  0.0096  1.0173 -3.2165
 2653TIP3   OH229373   3.893   5.182   5.978  0.2020 -0.0082 -0.1148
 2653TIP3    H129374   3.905   5.223   5.892  0.6632 -1.4930 -0.7764
 2653TIP3    H229375   3.872   5.091   5.959  0.3079 -0.3646  1.3527
 2654TIP3   OH229376   2.009   3.736  17.411  0.1252  0.1867 -0.1504
 2654TIP3    H129377   1.914   3.732  17.402  0.1575  0.1223 -0.5031
 2654TIP3    H229378   2.027   3.698  17.496 -0.2473  1.2380  0.4169
 2655TIP3   OH229379   4.257   0.959  12.025 -0.4818 -0.2680 -0.0073
 2655TIP3    H129380   4.169   0.922  12.021 -0.4472 -0.3439 -0.0590
 2655TIP3    H229381   4.243   1.052  12.045 -0.6465  0.0289 -1.3791
 2656TIP3   OH229382   5.463   0.591   0.953 -0.0588  0.6342  0.0051
 2656TIP3    H129383   5.457   0.567   1.045 -1.0972  0.2785 -0.1414
 2656TIP3    H229384   5.413   0.673   0.946  0.0318  0.6707 -0.2451
 2657TIP3   OH229385   6.434   0.256  15.183 -0.2987 -0.1322  0.3031
 2657TIP3    H129386   6.441   0.202  15.105 -0.0383  1.7702 -1.0625
 2657TIP3    H229387   6.525   0.270  15.210 -0.2968  0.5778 -0.0560
 2658TIP3   OH229388   2.815   1.531   3.559 -0.2396  0.1818 -0.0674
 2658TIP3    H129389   2.729   1.494   3.538 -0.6277  0.4354  1.0120
 2658TIP3    H229390   2.846   1.566   3.475 -0.9295 -0.4236 -0.5945
 2659TIP3   OH229391   4.868   0.389  16.731 -0.5925  0.3012 -0.1282
 2659TIP3    H129392   4.875   0.479  16.698  0.9246 -0.3764 -1.8114
 2659TIP3    H229393   4.816   0.343  16.665 -0.6499 -0.2481  0.2963
 2660TIP3   OH229394   1.324   4.564   1.245 -0.4202  0.9041  0.2361
 2660TIP3    H129395   1.389   4.546   1.314 -1.4148 -0.1295  0.9344
 2660TIP3    H229396   1.252   4.607   1.291  0.4585  3.7327 -0.8425
 2661TIP3   OH229397   4.859   3.386  16.309  0.3132  0.0475  0.0646
 2661TIP3    H129398   4.881   3.413  16.220 -0.1732 -0.4932 -0.2333
 2661TIP3    H229399   4.938   3.343  16.341  0.7071  0.8238  0.1341
 2662TIP3   OH229400   4.582   3.470   3.593  0.2800  0.1735  0.0595
 2662TIP3    H129401   4.546   3.470   3.505 -0.2110 -2.0007  0.2045
 2662TIP3    H229402   4.576   3.379   3.622  0.1143  0.8728  2.4706
 2663TIP3   OH229403   4.437   1.393  12.844  0.2421  0.2229 -0.6028
 2663TIP3    H129404   4.392   1.315  12.813  0.5898  0.3363 -1.4315
 2663TIP3    H229405   4.371   1.442  12.893  0.3089 -1.1280  0.9403
 2664TIP3   OH229406   4.333   6.332  12.151  0.4682  0.6123 -0.1193
 2664TIP3    H129407   4.351   6.414  12.196 -0.2596  0.4888  0.4408
 2664TIP3    H229408   4.248   6.304  12.188  1.1567 -0.8623  0.4172
 2665TIP3   OH229409   2.107   4.967  15.287  0.2262 -0.0903  0.2970
 2665TIP3    H129410   2.066   4.956  15.201  0.6804  1.5865 -0.1805
 2665TIP3    H229411   2.200   4.978  15.267  0.4146 -0.2417  1.0594
 2666TIP3   OH229412   6.481   6.327   3.698  0.3673  0.2328 -0.2825
 2666TIP3    H129413   6.558   6.313   3.753 -0.1219  0.7960  0.5642
 2666TIP3    H229414   6.481   6.421   3.681  0.4549  0.0770 -1.1708
 2667TIP3   OH229415   0.709   3.996   4.840  0.1541 -0.5316 -0.0671
 2667TIP3    H129416   0.638   4.054   4.869  1.2068 -0.2529  2.1856
 2667TIP3    H229417   0.789   4.041   4.866  1.2446 -0.8252 -2.5804
 2668TIP3   OH229418   1.557   0.190  11.305  0.0112 -0.3191  0.2276
 2668TIP3    H129419   1.628   0.254  11.314 -0.1824  0.1052 -1.1274
 2668TIP3    H229420   1.530   0.196  11.213 -1.6551 -0.6111  0.6661
 2669TIP3   OH229421   2.836   2.544  11.889  0.4945  0.4439  0.1224
 2669TIP3    H129422   2.755   2.595  11.886  0.0711 -0.2626 -1.1008
 2669TIP3    H229423   2.878   2.571  11.970 -0.5883  1.4034  0.3902
 2670TIP3   OH229424   6.600   2.063  11.519 -0.3850 -0.1396 -0.6365
 2670TIP3    H129425   6.688   2.076  11.485 -0.3898 -0.8875 -0.9542
 2670TIP3    H229426   6.565   1.991  11.467 -0.5286 -1.0888  0.7256
 2671TIP3   OH229427   2.538   5.356  16.179 -0.3074  0.2930 -0.3524
 2671TIP3    H129428   2.459   5.329  16.227 -1.9852  0.9548 -2.5856
 2671TIP3    H229429   2.593   5.399  16.245 -1.7359 -0.3319  1.3055
 2672TIP3   OH229430   0.185   3.916   6.040 -0.2888 -0.3008 -0.4061
 2672TIP3    H129431   0.205   3.993   6.093 -0.3137 -0.1349 -0.6357
 2672TIP3    H229432   0.090   3.910   6.041 -0.3892  0.5877 -1.6586
 2673TIP3   OH229433   0.959   3.607   5.990  0.2407 -0.0562 -0.6312
 2673TIP3    H129434   1.015   3.582   6.063  1.1470 -0.3025 -1.3808
 2673TIP3    H229435   0.966   3.702   5.985 -1.4237  0.1997  0.8210
 2674TIP3   OH229436   5.611   3.395  16.517 -0.6512 -0.2757  0.3395
 2674TIP3    H129437   5.696   3.365  16.484 -0.2693  2.2921 -1.2429
 2674TIP3    H229438   5.556   3.403  16.439 -0.9370  2.2504  0.7062
 2675TIP3   OH229439   0.274   6.525   1.684 -0.2432  0.0748  0.5671
 2675TIP3    H129440   0.358   6.527   1.638  0.1646 -1.0684  1.2078
 2675TIP3    H229441   0.274   6.440   1.729 -0.9852  0.7716  1.9589
 2676TIP3   OH229442   2.446   2.543   3.098 -0.6552  0.4739 -0.0731
 2676TIP3    H129443   2.418   2.634   3.115  0.3549  0.6641  0.6959
 2676TIP3    H229444   2.365   2.493   3.098 -1.0875  1.0868  1.5353
 2677TIP3   OH229445   3.061   4.160   6.678  0.3268 -0.0269  0.1028
 2677TIP3    H129446   3.065   4.203   6.592 -1.2564 -1.6518 -0.8476
 2677TIP3    H229447   3.060   4.233   6.740  4.0072  1.1969 -1.0005
 2678TIP3   OH229448   4.881   4.040  11.772 -0.5820  0.0809  0.7469
 2678TIP3    H129449   4.930   4.042  11.854 -0.1401 -0.1702  0.4898
 2678TIP3    H229450   4.886   4.130  11.739  0.3433 -0.1030  0.3527
 2679TIP3   OH229451   3.231   4.353  10.882 -0.3715  0.1098  0.6205
 2679TIP3    H129452   3.142   4.381  10.864  0.1015  0.9900 -0.4689
 2679TIP3    H229453   3.222   4.272  10.932 -1.7710 -0.2896 -0.2473
 2680TIP3   OH229454   2.625   1.447  14.701  0.4411 -1.0834  0.1755
 2680TIP3    H129455   2.543   1.463  14.748  0.8210 -0.3170  0.5817
 2680TIP3    H229456   2.604   1.375  14.641 -1.1620  0.5494 -1.3191
 2681TIP3   OH229457   3.488   2.308  11.378  0.0398 -0.2288  0.3081
 2681TIP3    H129458   3.439   2.235  11.414  0.9810 -1.0181  0.0264
 2681TIP3    H229459   3.470   2.304  11.284  0.0952 -0.1026  0.2923
 2682TIP3   OH229460   3.675   5.033  13.989  0.1731 -0.3738 -0.3686
 2682TIP3    H129461   3.657   5.124  14.010 -1.9494 -0.5080 -1.3631
 2682TIP3    H229462   3.667   5.028  13.894 -1.2227 -1.8499 -0.2180
 2683TIP3   OH229463   1.196   2.272  13.275  0.5050  0.1558  0.6659
 2683TIP3    H129464   1.233   2.310  13.355 -0.4400  1.7430  0.4071
 2683TIP3    H229465   1.102   2.280  13.287  0.2597 -2.1014  0.5258
 2684TIP3   OH229466   1.134   6.738  12.538  0.0922 -0.1717 -0.1483
 2684TIP3    H129467   1.154   6.751  12.445  0.3605 -0.7334 -0.1696
 2684TIP3    H229468   1.140   6.644  12.551 -1.9044 -0.3198  0.0073
 2685TIP3   OH229469   5.091   0.782   1.530  0.0253  0.3684 -0.2346
 2685TIP3    H129470   5.113   0.689   1.532 -2.3775 -0.2849 -0.5245
 2685TIP3    H229471   5.162   0.823   1.480  1.4077 -1.1982  0.3537
 2686TIP3   OH229472   2.477   3.829   2.852  0.0417 -0.1471  0.4837
 2686TIP3    H129473   2.547   3.894   2.863 -0.0800 -0.0037  0.4262
 2686TIP3    H229474   2.437   3.822   2.939  1.0449 -1.2978  0.8684
 2687TIP3   OH229475   2.702   0.660  17.374 -0.3177  0.7889 -0.8443
 2687TIP3    H129476   2.743   0.667  17.460  0.7071  0.8292 -1.3140
 2687TIP3    H229477   2.638   0.731  17.371 -1.3447 -0.0388  0.3840
 2688TIP3   OH229478   6.194   0.386   0.496  0.6895  0.1621  0.3105
 2688TIP3    H129479   6.284   0.371   0.465  0.0254 -0.2956 -1.5383
 2688TIP3    H229480   6.204   0.444   0.571  2.4866  0.6450 -0.2468
 2689TIP3   OH229481   2.232   3.421   0.329  0.0776  0.3603 -0.4521
 2689TIP3    H129482   2.314   3.387   0.292  0.0620 -0.3582  0.1524
 2689TIP3    H229483   2.247   3.422   0.424 -0.2243  1.2853 -0.3997
 2690TIP3   OH229484   5.729   3.822   1.975  0.2166  0.3985 -0.5803
 2690TIP3    H129485   5.823   3.838   1.977  0.1611  0.7155  1.3537
 2690TIP3    H229486   5.715   3.749   2.035 -0.6487 -0.5655 -1.8893
 2691TIP3   OH229487   5.781   2.871  12.005  0.2357  0.5563  0.3958
 2691TIP3    H129488   5.799   2.803  11.940  2.8282 -0.4724  2.0474
 2691TIP3    H229489   5.852   2.934  11.995  0.6946  0.3731  2.1652
 2692TIP3   OH229490   1.457   2.504   4.575 -0.0269  0.4492  0.0813
 2692TIP3    H129491   1.446   2.428   4.517  1.1840  0.2608  0.0711
 2692TIP3    H229492   1.493   2.468   4.656 -2.5684  0.5765  1.3740
 2693TIP3   OH229493   4.731   1.479  16.006  0.1408 -0.1930 -0.3873
 2693TIP3    H129494   4.771   1.437  15.930  0.0496  1.2807 -1.2800
 2693TIP3    H229495   4.654   1.523  15.971 -1.1417 -1.2825  0.9553
 2694TIP3   OH229496   4.708   1.304  17.277 -0.4935  0.5425  0.5526
 2694TIP3    H129497   4.801   1.301  17.299 -0.7687 -0.3287  1.6922
 2694TIP3    H229498   4.704   1.276  17.186  0.3866  0.9461  0.3774
 2695TIP3   OH229499   6.161   5.970   6.571  0.3205 -0.1089 -0.2746
 2695TIP3    H129500   6.069   5.989   6.554  0.8617  1.3695 -1.8145
 2695TIP3    H229501   6.182   5.898   6.511  0.2752 -0.1785 -0.2075
 2696TIP3   OH229502   1.534   1.080   2.083  0.1743 -0.2466  0.6900
 2696TIP3    H129503   1.530   0.995   2.125  0.6107 -0.3477  0.5280
 2696TIP3    H229504   1.624   1.109   2.094 -0.2617  0.7732  1.8661
 2697TIP3   OH229505   2.774   1.866  13.388  0.2393 -0.3073  0.5676
 2697TIP3    H129506   2.856   1.835  13.426  1.3543 -0.8207 -2.0354
 2697TIP3    H229507   2.779   1.961  13.393  0.2382 -0.3671  1.8643
 2698TIP3   OH229508   4.939   6.693  16.320 -0.3560  0.0590 -0.1400
 2698TIP3    H129509   4.848   6.724  16.321 -0.2085  0.7049  2.7523
 2698TIP3    H229510   4.933   6.601  16.296 -1.9189 -0.1703  0.9588
 2699TIP3   OH229511   0.156   0.050  13.603 -0.0674 -0.7211  0.1132
 2699TIP3    H129512   0.226   0.112  13.624 -0.9795  0.0419  0.9857
 2699TIP3    H229513   0.139   0.004  13.686 -0.3522 -1.1621 -0.1855
 2700TIP3   OH229514   5.124   3.905   3.349  0.4734 -0.7631 -0.1623
 2700TIP3    H129515   5.141   3.984   3.400  0.9922 -1.5531  0.9377
 2700TIP3    H229516   5.179   3.914   3.271 -1.1674  0.9834 -1.1989
 2701TIP3   OH229517   6.350   2.403   2.863  0.1325  0.1361  0.1208
 2701TIP3    H129518   6.349   2.307   2.870 -0.7467  0.1035 -0.3902
 2701TIP3    H229519   6.356   2.420   2.769  0.2357  0.5863  0.2098
 2702TIP3   OH229520   4.115   3.634   6.325 -0.6640  0.0511  0.3648
 2702TIP3    H129521   4.080   3.723   6.316  1.3338  0.8115 -0.6312
 2702TIP3    H229522   4.040   3.577   6.310 -2.0575  1.5445  1.2888
 2703TIP3   OH229523   5.723   4.138  14.807 -0.5245  0.0089 -0.2078
 2703TIP3    H129524   5.788   4.097  14.749  1.9162  0.9837  1.6862
 2703TIP3    H229525   5.709   4.074  14.876  0.6152  0.8685  0.8696
 2704TIP3   OH229526   1.246   1.680   0.440  0.5454  0.0035  0.7807
 2704TIP3    H129527   1.255   1.775   0.436 -1.6361  0.2746  0.9016
 2704TIP3    H229528   1.225   1.654   0.350 -0.1567 -0.1788  0.9915
 2705TIP3   OH229529   6.652   6.113  16.060  0.2622 -0.5851  0.1327
 2705TIP3    H129530   6.567   6.069  16.070 -0.8467  1.4820  0.4126
 2705TIP3    H229531   6.634   6.186  16.001  1.8341 -0.0376  0.2877
 2706TIP3   OH229532   5.927   1.939  12.154  0.2233 -0.4138  0.4015
 2706TIP3    H129533   5.853   1.904  12.204  1.6468 -0.9860  2.2266
 2706TIP3    H229534   5.899   1.932  12.062 -2.8733  1.5760  1.0557
 2707TIP3   OH229535   5.447   1.754   5.872  0.8881 -0.0168 -0.4447
 2707TIP3    H129536   5.475   1.696   5.943  1.0077  0.0798 -0.4156
 2707TIP3    H229537   5.417   1.833   5.915 -1.1559 -0.7782 -0.3100
 2708TIP3   OH229538   5.751   2.981  14.926 -0.1737 -0.2035 -0.6933
 2708TIP3    H129539   5.777   2.954  15.014  0.1635  1.9425 -0.0702
 2708TIP3    H229540   5.834   2.990  14.879 -0.1554  0.8661 -0.4974
 2709TIP3   OH229541   4.093   5.616   5.460 -0.2821  0.6623  0.2601
 2709TIP3    H129542   4.118   5.701   5.495  1.1052 -0.0170  0.9998
 2709TIP3    H229543   4.160   5.595   5.395 -0.4268 -0.0072  0.3147
 2710TIP3   OH229544   4.370   0.140   0.079  0.2792 -0.0398 -0.7284
 2710TIP3    H129545   4.288   0.126   0.126 -0.3288  0.1839 -1.7026
 2710TIP3    H229546   4.395   0.052   0.049 -0.9623  0.2019 -2.6160
 2711TIP3   OH229547   3.792   6.312  12.235  0.2730 -0.0963 -0.2123
 2711TIP3    H129548   3.740   6.392  12.232 -1.6149 -1.2210  0.4133
 2711TIP3    H229549   3.821   6.305  12.326 -1.4802 -1.2100  0.3088
 2712TIP3   OH229550   4.903   0.405   5.532  0.1367 -0.4411  0.3763
 2712TIP3    H129551   4.970   0.336   5.528  1.5717  0.9451 -2.2654
 2712TIP3    H229552   4.951   0.483   5.560 -0.5471  0.3612 -0.6156
 2713TIP3   OH229553   5.300   3.920  17.086 -0.7449 -0.5053 -0.3163
 2713TIP3    H129554   5.279   4.002  17.132 -0.5523  0.8665 -2.5173
 2713TIP3    H229555   5.224   3.905  17.029 -0.1575 -1.0852 -0.9591
 2714TIP3   OH229556   2.931   4.171   4.801 -0.1039  0.3811 -0.2562
 2714TIP3    H129557   2.858   4.111   4.787 -0.5890  0.9327 -0.1736
 2714TIP3    H229558   2.978   4.173   4.717 -1.4396  1.6398 -1.0337
 2715TIP3   OH229559   0.092   5.037  13.609  0.1314  0.5436 -0.3670
 2715TIP3    H129560   0.134   4.957  13.640 -0.3416  0.3215 -0.2842
 2715TIP3    H229561   0.069   5.020  13.518 -0.8928  0.1883 -0.0623
 2716TIP3   OH229562   6.428   6.166   1.888  0.6329 -0.3906  0.0347
 2716TIP3    H129563   6.402   6.205   1.972  0.3210  1.4845 -0.8683
 2716TIP3    H229564   6.349   6.125   1.855  0.8416 -1.4369  0.7844
 2717TIP3   OH229565   2.029   6.630   0.614  0.7633  0.0225  0.1347
 2717TIP3    H129566   1.981   6.713   0.618 -0.1767 -0.5250  0.6506
 2717TIP3    H229567   1.969   6.570   0.570  1.2108 -0.5339  0.2779
 2718TIP3   OH229568   0.682   1.951   2.952  0.2174 -0.2952 -0.0655
 2718TIP3    H129569   0.699   2.011   3.025 -2.4375 -0.3475  0.7239
 2718TIP3    H229570   0.614   1.893   2.985 -2.2904  0.6683 -3.0463
 2719TIP3   OH229571   0.121   1.901  14.407  0.6224 -0.3516 -0.8926
 2719TIP3    H129572   0.164   1.825  14.369 -0.3918 -0.5401 -1.7006
 2719TIP3    H229573   0.147   1.974  14.351  2.3984  0.1161  0.4541
 2720TIP3   OH229574   1.832   5.249   2.264 -0.0273 -0.4341 -0.3661
 2720TIP3    H129575   1.840   5.309   2.338  0.3745  0.4149 -1.0632
 2720TIP3    H229576   1.886   5.174   2.288 -0.8201 -0.6812  0.6747
 2721TIP3   OH229577   0.034   1.839   2.844  0.2325  0.7399  0.1033
 2721TIP3    H129578   0.062   1.806   2.929  1.2745 -2.2620 -1.2714
 2721TIP3    H229579   0.107   1.819   2.785 -1.3992  0.4860 -1.9490
 2722TIP3   OH229580   1.462   6.232   4.546  0.3573 -0.2069 -0.3287
 2722TIP3    H129581   1.397   6.174   4.506  0.3980 -0.9625  0.6559
 2722TIP3    H229582   1.416   6.272   4.619  0.3534  0.9734 -0.9550
 2723TIP3   OH229583   3.938   0.629   3.333 -0.2277 -0.4891  0.4235
 2723TIP3    H129584   3.990   0.663   3.260 -0.4017 -1.1049  0.0089
 2723TIP3    H229585   3.863   0.587   3.292  0.0091 -1.4216  0.9206
 2724TIP3   OH229586   0.218   5.837  16.183  0.3796  0.3876 -0.1461
 2724TIP3    H129587   0.264   5.919  16.163  0.1588  0.4998 -0.1902
 2724TIP3    H229588   0.271   5.797  16.253  1.2480 -0.0852 -1.0480
 2725TIP3   OH229589   2.687   1.138  11.223 -0.3791  0.1709  0.4173
 2725TIP3    H129590   2.726   1.208  11.275  2.5658 -1.0508  0.0248
 2725TIP3    H229591   2.674   1.067  11.286 -0.5842  0.0393  0.2256
 2726TIP3   OH229592   0.203   5.429  16.251  0.8952  0.5061 -0.8408
 2726TIP3    H129593   0.289   5.464  16.230  0.8016 -0.1890 -2.5680
 2726TIP3    H229594   0.177   5.381  16.172 -0.3604 -0.6984  0.2557
 2727TIP3   OH229595   0.301   0.709  14.244  0.2286 -0.6287  1.2016
 2727TIP3    H129596   0.378   0.675  14.291 -0.5752  0.0066  3.0907
 2727TIP3    H229597   0.279   0.790  14.290 -0.1201  0.5217 -0.8793
 2728TIP3   OH229598   2.959   0.637   3.968 -0.6624  0.0648 -0.3547
 2728TIP3    H129599   2.937   0.562   4.023 -1.8175  0.8238  0.2588
 2728TIP3    H229600   3.049   0.620   3.939  0.3578 -0.0007  2.4736
 2729TIP3   OH229601   6.359   5.023  16.776 -0.8132  0.0985  0.9057
 2729TIP3    H129602   6.448   4.988  16.781 -0.5136  0.6806 -0.1546
 2729TIP3    H229603   6.371   5.117  16.763 -1.5450 -0.0196 -0.9091
 2730TIP3   OH229604   4.599   6.332  12.338 -0.1308  0.5146  0.4739
 2730TIP3    H129605   4.530   6.384  12.379  1.1447  1.0604  2.0154
 2730TIP3    H229606   4.675   6.390  12.335 -0.1275  0.5611 -2.8331
 2731TIP3   OH229607   5.356   0.832  16.600  0.0299  0.0154 -0.4528
 2731TIP3    H129608   5.327   0.793  16.682 -1.4669  2.2207  0.1487
 2731TIP3    H229609   5.444   0.798  16.587  0.1344 -0.7386  1.8439
 2732TIP3   OH229610   4.750   4.103   1.023 -0.3925  0.4180  0.3127
 2732TIP3    H129611   4.665   4.067   1.045 -0.7048  1.6670  1.2631
 2732TIP3    H229612   4.742   4.197   1.042  1.0510  0.6307 -0.0036
 2733TIP3   OH229613   3.455   4.655  13.823 -0.1609  0.3282 -0.1154
 2733TIP3    H129614   3.454   4.586  13.889  0.7260  1.1490  0.7814
 2733TIP3    H229615   3.539   4.644  13.778  0.0429  0.8919  0.1182
 2734TIP3   OH229616   2.596   0.540  10.758  0.4658  0.0384  0.2020
 2734TIP3    H129617   2.641   0.529  10.842 -0.5962  3.2945  1.3470
 2734TIP3    H229618   2.503   0.546  10.781 -0.1312 -1.5338 -1.5580
 2735TIP3   OH229619   5.961   4.859   0.931  0.2636  0.2033 -0.3022
 2735TIP3    H129620   5.962   4.940   0.880 -0.8997  0.1312 -0.4750
 2735TIP3    H229621   5.907   4.880   1.007  1.7757  0.2366  0.8016
 2736TIP3   OH229622   3.521   2.762  15.132  0.5701  0.6105 -0.5513
 2736TIP3    H129623   3.499   2.837  15.077 -1.7223 -0.2612 -0.9177
 2736TIP3    H229624   3.518   2.686  15.073 -0.3551 -0.1538  0.4354
 2737TIP3   OH229625   0.975   0.646  13.473  0.5793 -0.2358 -0.3122
 2737TIP3    H129626   1.070   0.657  13.471  0.8527 -1.7344  1.7878
 2737TIP3    H229627   0.944   0.713  13.534  0.5711 -1.1620  0.7306
 2738TIP3   OH229628   4.456   5.145   1.944 -0.0273  0.2756 -0.5868
 2738TIP3    H129629   4.501   5.199   1.879  1.7945  0.3531  0.6411
 2738TIP3    H229630   4.413   5.208   2.002 -0.5703  0.2650 -0.9783
 2739TIP3   OH229631   1.926   5.970   3.773 -1.1451  0.4834  0.7654
 2739TIP3    H129632   1.907   5.946   3.683 -1.6916  0.1079  0.9719
 2739TIP3    H229633   1.953   5.888   3.814  3.3824  1.3112 -0.0665
 2740TIP3   OH229634   4.763   5.663  13.496 -0.2508  0.2845  0.1454
 2740TIP3    H129635   4.683   5.650  13.547  0.1251  0.3783  0.7734
 2740TIP3    H229636   4.761   5.755  13.470  0.0253  0.4830  0.8166
 2741TIP3   OH229637   2.464   3.805   2.019  0.1815 -0.3649  0.2131
 2741TIP3    H129638   2.517   3.859   2.079  1.2402 -1.1877  0.0528
 2741TIP3    H229639   2.374   3.827   2.040  0.5682  0.3702  1.1758
 2742TIP3   OH229640   6.609   0.420   5.036  0.1334 -0.2549  0.4045
 2742TIP3    H129641   6.686   0.367   5.016  0.5170  0.4224  0.0281
 2742TIP3    H229642   6.642   0.488   5.094 -0.0861  0.2830 -0.0865
 2743TIP3   OH229643   5.637   6.728   2.667  0.0178  0.6013 -0.7675
 2743TIP3    H129644   5.545   6.755   2.671 -0.5572 -0.7766 -2.9268
 2743TIP3    H229645   5.641   6.649   2.720 -0.7943 -0.9866 -2.9174
 2744TIP3   OH229646   4.023   5.496   5.006  0.5612  0.1533 -0.1349
 2744TIP3    H129647   4.098   5.534   5.053  0.7358 -1.2529  0.7744
 2744TIP3    H229648   3.949   5.551   5.032  0.8866  0.1803  0.7881
 2745TIP3   OH229649   6.416   0.657  11.188 -0.0450 -0.1841 -0.3421
 2745TIP3    H129650   6.500   0.627  11.223  0.2885  1.2736  0.2081
 2745TIP3    H229651   6.424   0.647  11.093 -0.3583 -2.7252 -0.1729
 2746TIP3   OH229652   0.007   2.037  11.282  0.4006  0.6017 -0.1635
 2746TIP3    H129653   0.043   1.950  11.268 -1.1823 -0.1314  0.1487
 2746TIP3    H229654   0.010   2.078  11.195  0.5263 -0.0157 -0.4550
 2747TIP3   OH229655   5.829   5.385  15.027  0.5206  0.1578 -0.0163
 2747TIP3    H129656   5.762   5.362  15.092 -0.2823  3.9771  0.7459
 2747TIP3    H229657   5.800   5.340  14.947 -1.8916  0.1081  0.7857
 2748TIP3   OH229658   1.978   1.444   0.680 -0.7786  0.8636  0.7706
 2748TIP3    H129659   2.055   1.418   0.730  0.0507 -0.9359 -1.2728
 2748TIP3    H229660   1.947   1.523   0.723 -0.2853 -0.6263  4.1821
 2749TIP3   OH229661   6.742   5.950  16.277  0.7174 -0.1824 -0.1441
 2749TIP3    H129662   6.719   6.006  16.202  0.4666 -0.7072 -0.4604
 2749TIP3    H229663   6.807   5.889  16.242  1.7959  0.5719  0.4664
 2750TIP3   OH229664   4.467   2.698   2.176  0.4726 -0.2015 -0.1245
 2750TIP3    H129665   4.394   2.675   2.118  0.6319  0.6397 -0.6833
 2750TIP3    H229666   4.537   2.727   2.116  1.0489 -0.4322  0.4329
 2751TIP3   OH229667   4.423   3.979  14.193 -0.3857 -0.2302  0.2845
 2751TIP3    H129668   4.499   3.947  14.241 -0.0643  0.3681  0.1742
 2751TIP3    H229669   4.348   3.956  14.249 -0.0665 -0.1271  0.7571
 2752TIP3   OH229670   1.616   1.105   4.174  0.7889  0.8155 -0.3872
 2752TIP3    H129671   1.654   1.105   4.086 -0.5457  2.0159 -1.0106
 2752TIP3    H229672   1.637   1.192   4.209 -0.1875  1.0077 -0.2357
 2753TIP3   OH229673   4.134   3.322   4.116  0.5808  0.1858 -0.1262
 2753TIP3    H129674   4.127   3.355   4.027  1.4083  0.7975  0.0217
 2753TIP3    H229675   4.056   3.267   4.128  0.5718 -0.0697 -1.2843
 2754TIP3   OH229676   0.433   2.187  15.102 -0.0095 -0.1547  0.1439
 2754TIP3    H129677   0.488   2.163  15.027  0.9587 -0.8835  1.0544
 2754TIP3    H229678   0.484   2.160  15.178 -0.7532  1.0142  1.0911
 2755TIP3   OH229679   1.262   1.074   1.378  0.1336  0.3183 -0.2173
 2755TIP3    H129680   1.230   1.160   1.404  1.1943  0.6012  0.2170
 2755TIP3    H229681   1.242   1.067   1.285 -0.9239  0.5767 -0.0296
 2756TIP3   OH229682   6.573   4.789  14.682 -0.5116 -0.3481 -0.4577
 2756TIP3    H129683   6.593   4.700  14.712  0.3746 -0.7777 -2.1616
 2756TIP3    H229684   6.644   4.842  14.716 -0.4722 -0.4873 -0.3203
 2757TIP3   OH229685   0.799   4.529  12.912  0.6813  0.1470 -0.1213
 2757TIP3    H129686   0.732   4.551  12.976  0.0914  0.1143 -0.7207
 2757TIP3    H229687   0.768   4.568  12.830  2.0266  1.2491 -0.1444
 2758TIP3   OH229688   6.101   4.003  15.560 -0.0909 -0.3859 -0.4624
 2758TIP3    H129689   6.137   4.088  15.536 -1.1252  0.5327  1.0065
 2758TIP3    H229690   6.056   3.973  15.481  1.4923 -0.2705 -1.4493
 2759TIP3   OH229691   6.544   2.155   5.425  0.1173 -0.5807  0.0975
 2759TIP3    H129692   6.519   2.160   5.517  1.7173 -0.4099  0.5376
 2759TIP3    H229693   6.491   2.083   5.390 -2.3481  0.9063  0.5149
 2760TIP3   OH229694   3.981   4.997  17.278  0.3564  0.0222 -0.9558
 2760TIP3    H129695   3.996   4.903  17.272  0.4777  0.0841 -1.7958
 2760TIP3    H229696   3.899   5.005  17.327  0.0983 -0.5510 -1.2771
 2761TIP3   OH229697   4.927   3.827  13.063 -0.1345  0.2866 -0.3860
 2761TIP3    H129698   4.961   3.895  13.122  1.2703  0.9837 -1.9236
 2761TIP3    H229699   4.836   3.815  13.091  0.0400  1.6833  0.9298
 2762TIP3   OH229700   4.977   2.386  12.405  0.1060  0.2549  0.1240
 2762TIP3    H129701   4.884   2.365  12.415  0.2987 -0.4038  0.6183
 2762TIP3    H229702   5.007   2.403  12.494  0.5479  0.0634  0.0143
 2763TIP3   OH229703   2.747   3.616  11.717 -0.0998 -0.1187 -0.1359
 2763TIP3    H129704   2.722   3.655  11.633  2.6095 -3.0967 -2.5735
 2763TIP3    H229705   2.680   3.548  11.732 -1.9542  1.9286  1.5247
 2764TIP3   OH229706   6.106   4.828   5.251  0.4822  0.3336 -0.3442
 2764TIP3    H129707   6.085   4.902   5.194 -0.8894 -1.0690 -1.7482
 2764TIP3    H229708   6.021   4.791   5.275  0.9671  0.9900  2.9266
 2765TIP3   OH229709   0.120   3.136   4.031 -0.3107 -0.2216 -0.1013
 2765TIP3    H129710   0.190   3.086   4.072  0.7752  2.8372  2.1851
 2765TIP3    H229711   0.044   3.121   4.088 -0.4886 -0.5771 -0.4239
 2766TIP3   OH229712   0.885   2.192  15.641 -0.1625  0.1273  0.1502
 2766TIP3    H129713   0.902   2.101  15.618  2.4585  0.3368  0.9588
 2766TIP3    H229714   0.826   2.187  15.717 -0.3194 -0.8538 -0.0210
 2767TIP3   OH229715   3.163   6.530   4.271  0.1315 -0.1695 -0.0430
 2767TIP3    H129716   3.067   6.535   4.280  0.0936  0.7732 -0.7749
 2767TIP3    H229717   3.194   6.614   4.306  0.6597 -0.2821 -0.2394
 2768TIP3   OH229718   3.741   6.029   4.382  0.1478 -0.4292  0.1081
 2768TIP3    H129719   3.749   5.946   4.335  0.7864 -0.5007  0.3369
 2768TIP3    H229720   3.741   6.095   4.313 -1.8730 -0.6793 -0.1833
 2769TIP3   OH229721   2.957   5.003   6.521 -0.6381 -0.0576 -0.4583
 2769TIP3    H129722   2.988   5.092   6.539 -0.3165 -0.4531  1.1422
 2769TIP3    H229723   3.036   4.954   6.499 -0.3367 -0.5667  1.5017
 2770TIP3   OH229724   1.372   2.760   4.537  0.4065  0.1034 -0.5412
 2770TIP3    H129725   1.393   2.669   4.556  0.3549  0.3828  0.9103
 2770TIP3    H229726   1.453   2.808   4.555  0.0693  0.5013 -0.0496
 2771TIP3   OH229727   5.763   1.753  13.807  0.0639  0.3833 -0.2539
 2771TIP3    H129728   5.818   1.693  13.756  0.2242 -0.8574  1.3049
 2771TIP3    H229729   5.799   1.750  13.895 -0.4997  2.1151  0.0795
 2772TIP3   OH229730   2.789   0.097  11.420 -0.9962 -0.3138 -0.1308
 2772TIP3    H129731   2.879   0.094  11.388 -1.1244  0.9104 -0.6975
 2772TIP3    H229732   2.797   0.098  11.515 -0.4059 -0.2328 -0.1767
 2773TIP3   OH229733   4.673   0.766  16.107  0.0240 -0.0106  0.0011
 2773TIP3    H129734   4.721   0.685  16.092 -1.6934 -1.0732  0.0653
 2773TIP3    H229735   4.587   0.739  16.139 -0.6051  1.8310  0.0270
 2774TIP3   OH229736   6.118   2.677   6.327  0.6263  0.0001  0.0551
 2774TIP3    H129737   6.139   2.584   6.322 -0.1975 -0.1512 -0.9462
 2774TIP3    H229738   6.026   2.680   6.352  1.1191  0.6013  1.9436
 2775TIP3   OH229739   5.111   6.450  12.296 -0.3940  0.0277 -0.7776
 2775TIP3    H129740   5.186   6.467  12.239  0.1385  0.7186  0.0943
 2775TIP3    H229741   5.083   6.536  12.326 -0.2191 -0.3423  0.5348
 2776TIP3   OH229742   3.669   1.715   2.925  0.3062  0.0649  0.1117
 2776TIP3    H129743   3.764   1.715   2.933  0.4659 -0.2432 -1.5541
 2776TIP3    H229744   3.642   1.801   2.959  1.1243 -0.0004  0.9510
 2777TIP3   OH229745   3.752   2.927   3.809  0.4724  0.2444 -0.1967
 2777TIP3    H129746   3.694   2.855   3.832  0.9188 -1.1005 -2.8579
 2777TIP3    H229747   3.830   2.912   3.863  0.5839 -1.3722 -0.7329
 2778TIP3   OH229748   4.001   2.833  16.246  0.0550 -0.3690  0.6359
 2778TIP3    H129749   3.920   2.812  16.293  0.8381 -0.3025  2.0803
 2778TIP3    H229750   4.070   2.790  16.297  0.9980  0.1316 -0.1900
 2779TIP3   OH229751   1.436   0.500   2.049 -0.0608 -0.1591 -0.5187
 2779TIP3    H129752   1.402   0.492   2.138 -1.0001 -2.4792 -1.0099
 2779TIP3    H229753   1.463   0.411   2.025 -1.9065 -0.1175 -3.3019
 2780TIP3   OH229754   0.423   0.745   0.045 -0.2846  0.1538 -0.1236
 2780TIP3    H129755   0.441   0.814   0.108 -0.9498  0.9212 -0.7557
 2780TIP3    H229756   0.502   0.692   0.044 -0.3803 -0.0554  1.5728
 2781TIP3   OH229757   0.924   5.411  12.152 -0.1246  0.3737  0.2920
 2781TIP3    H129758   0.862   5.484  12.152  0.3765  0.8320  1.6010
 2781TIP3    H229759   0.953   5.404  12.061 -1.2814  0.8428 -0.1310
 2782TIP3   OH229760   1.755   0.209   2.150 -0.6521 -0.5547  0.5302
 2782TIP3    H129761   1.773   0.283   2.093  0.5712 -0.3424  1.1540
 2782TIP3    H229762   1.786   0.132   2.102 -0.2118 -0.4470  0.6384
 2783TIP3   OH229763   0.286   1.947   1.393  0.4214  0.9118  0.3386
 2783TIP3    H129764   0.334   1.986   1.466  1.8664 -0.6318  0.2997
 2783TIP3    H229765   0.319   1.992   1.315  1.0325  0.6316  0.4201
 2784TIP3   OH229766   3.253   2.837   2.755  0.5106 -0.3581  0.4345
 2784TIP3    H129767   3.166   2.876   2.765  1.8569  3.0263 -0.0058
 2784TIP3    H229768   3.250   2.794   2.670 -0.9071 -0.8854  0.7209
 2785TIP3   OH229769   1.734   0.709   0.182 -0.3483  0.4467 -0.6392
 2785TIP3    H129770   1.738   0.746   0.094  0.4768  0.0830 -0.7661
 2785TIP3    H229771   1.824   0.716   0.215 -0.6666  0.6495  0.2064
 2786TIP3   OH229772   4.151   5.427   6.065  0.0435 -0.0504  0.0161
 2786TIP3    H129773   4.160   5.495   5.997  0.0154  0.6898  0.7395
 2786TIP3    H229774   4.187   5.468   6.144 -1.9931 -0.0555  0.9995
 2787TIP3   OH229775   3.958   4.739   2.618  0.2463  0.1025  0.3281
 2787TIP3    H129776   3.877   4.699   2.649 -0.0590  0.7373  0.3633
 2787TIP3    H229777   4.019   4.728   2.690  0.4860 -1.2108 -0.0458
 2788TIP3   OH229778   4.039   4.634  13.158 -0.2178 -0.1340 -0.0035
 2788TIP3    H129779   3.970   4.663  13.217 -0.6650  0.7077 -0.9007
 2788TIP3    H229780   3.996   4.571  13.100  0.0487 -0.4485  0.1374
 2789TIP3   OH229781   3.893   6.444  16.111  0.4570 -0.4045 -0.0787
 2789TIP3    H129782   3.949   6.495  16.169  0.9733  0.2821 -1.1470
 2789TIP3    H229783   3.936   6.358  16.106  0.0201 -0.7094  1.0894
 2790TIP3   OH229784   3.542   1.116   4.046 -0.0897 -0.4385  0.3855
 2790TIP3    H129785   3.462   1.142   4.091 -1.1129  0.1795 -1.6631
 2790TIP3    H229786   3.563   1.191   3.990  0.9168 -1.2878 -0.4207
 2791TIP3   OH229787   0.308   2.718  14.617  0.0862 -0.0730  0.5653
 2791TIP3    H129788   0.325   2.811  14.603  1.2480 -0.1836  1.1852
 2791TIP3    H229789   0.345   2.675  14.540  1.6450 -0.2129  1.3731
 2792TIP3   OH229790   3.095   2.058   4.860  0.1070 -0.5774 -0.0969
 2792TIP3    H129791   3.114   2.141   4.817  0.5095  0.3425  1.7624
 2792TIP3    H229792   3.178   2.032   4.901 -0.0428 -1.8532 -0.5404
 2793TIP3   OH229793   1.202   0.177   0.558  0.3450  0.2538 -0.3301
 2793TIP3    H129794   1.271   0.113   0.576  0.5400  0.6031  0.1880
 2793TIP3    H229795   1.225   0.212   0.472  2.0610  1.8875  0.6975
 2794TIP3   OH229796   2.608   3.845   3.362  0.1909 -0.3514  0.5768
 2794TIP3    H129797   2.516   3.871   3.351  0.5938  0.8451 -0.1131
 2794TIP3    H229798   2.625   3.857   3.456  0.1698  1.3537  0.4022
 2795TIP3   OH229799   4.791   5.909   4.843  0.3193  0.2282 -0.5165
 2795TIP3    H129800   4.725   5.977   4.854 -2.3269 -2.1655 -0.6943
 2795TIP3    H229801   4.828   5.897   4.931 -1.0012  0.1575  0.0420
 2796TIP3   OH229802   3.765   2.888   0.351 -0.0589  0.9083  0.0660
 2796TIP3    H129803   3.756   2.983   0.364  2.6174  1.2582 -0.1351
 2796TIP3    H229804   3.858   2.875   0.334 -0.6332 -1.5756 -1.6904
 2797TIP3   OH229805   3.822   0.111  13.975  0.3474  0.3241 -0.0215
 2797TIP3    H129806   3.854   0.042  13.918 -0.3705 -0.6128  0.6824
 2797TIP3    H229807   3.777   0.065  14.046  2.9452  1.2835  2.4461
 2798TIP3   OH229808   0.735   2.762   1.429  0.0394  0.0968  0.5108
 2798TIP3    H129809   0.694   2.840   1.393  0.7740 -0.1664 -0.9653
 2798TIP3    H229810   0.827   2.770   1.405  0.0857 -1.3084  0.1283
 2799TIP3   OH229811   5.031   0.861   3.882 -0.0676  0.3734 -0.3972
 2799TIP3    H129812   5.049   0.889   3.971  1.3751 -1.2111 -0.1621
 2799TIP3    H229813   5.032   0.766   3.885 -1.0236  0.2735 -1.9238
 2800TIP3   OH229814   0.765   4.948   1.721  0.0809  0.2400 -0.0186
 2800TIP3    H129815   0.748   5.028   1.672 -0.1337  1.7013  2.2808
 2800TIP3    H229816   0.685   4.897   1.712 -0.4794  1.1011 -0.0402
 2801TIP3   OH229817   5.587   4.213   4.717  0.6083 -0.3836  0.4833
 2801TIP3    H129818   5.606   4.125   4.748  0.6357 -1.0756 -1.3610
 2801TIP3    H229819   5.669   4.244   4.678  0.7484  0.6877  1.5636
 2802TIP3   OH229820   2.635   5.040   1.367 -0.1012 -0.2615  0.0491
 2802TIP3    H129821   2.709   5.000   1.412 -0.7436 -0.7327  0.7065
 2802TIP3    H229822   2.673   5.078   1.287  0.6974 -1.2101 -0.0376
 2803TIP3   OH229823   1.479   3.053  13.432  0.0652 -0.7594  0.3224
 2803TIP3    H129824   1.445   3.085  13.349  1.5672 -1.2718 -0.5284
 2803TIP3    H229825   1.436   3.107  13.498  0.1000  0.8178 -0.8874
 2804TIP3   OH229826   1.199   4.865  15.220 -0.0187 -0.2612  0.1976
 2804TIP3    H129827   1.224   4.843  15.310  1.3197 -0.9864 -0.3115
 2804TIP3    H229828   1.281   4.858  15.171 -0.5747  0.9057 -0.9436
 2805TIP3   OH229829   2.798   0.412   0.597 -0.4648 -0.1644  0.0289
 2805TIP3    H129830   2.741   0.351   0.644  0.7058 -1.9306 -0.7744
 2805TIP3    H229831   2.739   0.483   0.571 -1.7683 -0.6698  1.3944
 2806TIP3   OH229832   3.087   0.573  14.909 -0.4661 -0.3325  0.2768
 2806TIP3    H129833   3.041   0.556  14.828  0.8158  1.4782 -0.9233
 2806TIP3    H229834   3.049   0.654  14.942 -1.3565 -1.3418  1.8188
 2807TIP3   OH229835   0.754   4.177   2.313 -0.0273 -0.0895 -0.0435
 2807TIP3    H129836   0.769   4.099   2.366 -1.8087 -2.2820 -2.5304
 2807TIP3    H229837   0.830   4.183   2.256  0.9465  1.1259  1.2936
 2808TIP3   OH229838   0.874   6.196  14.149 -0.3645 -0.3497 -0.1908
 2808TIP3    H129839   0.867   6.258  14.077  1.5703  1.5943  1.1822
 2808TIP3    H229840   0.828   6.238  14.222  0.9526 -0.5036  0.7678
 2809TIP3   OH229841   1.648   0.392   2.364 -0.0434 -0.1002  0.0812
 2809TIP3    H129842   1.703   0.379   2.442  0.5504 -1.5939 -0.5525
 2809TIP3    H229843   1.675   0.323   2.303 -0.7207  0.8326 -1.3380
 2810TIP3   OH229844   3.297   2.337  15.068 -0.4749 -0.2703  0.2224
 2810TIP3    H129845   3.341   2.317  15.151 -0.6415  1.1133  0.6730
 2810TIP3    H229846   3.265   2.253  15.037  2.1249 -1.2927  0.0730
 2811TIP3   OH229847   0.248   1.259   5.515 -0.5567  0.2015  0.5130
 2811TIP3    H129848   0.219   1.347   5.492 -1.5201 -0.6986 -2.0657
 2811TIP3    H229849   0.340   1.257   5.490 -1.6820 -0.9085 -4.5053
 2812TIP3   OH229850   5.371   5.190   1.824 -0.2207 -0.4776 -0.0843
 2812TIP3    H129851   5.289   5.141   1.819 -0.7050  0.4284 -2.1857
 2812TIP3    H229852   5.411   5.179   1.738  1.8884 -0.8662  0.8901
 2813TIP3   OH229853   3.037   4.835  12.842 -0.0318 -0.1860 -0.4270
 2813TIP3    H129854   3.072   4.803  12.925 -2.1513 -0.2839  0.4841
 2813TIP3    H229855   3.108   4.820  12.779  1.7513  0.1968  1.3965
 2814TIP3   OH229856   1.249   1.638  14.162 -0.0426  0.0097  0.0261
 2814TIP3    H129857   1.301   1.648  14.242  0.1106 -0.4533 -0.0126
 2814TIP3    H229858   1.263   1.719  14.113  1.0920 -0.3474 -0.2493
 2815TIP3   OH229859   1.911   2.953  16.813 -0.1332 -0.0748  0.4495
 2815TIP3    H129860   1.834   2.905  16.782 -0.5852  0.1291  1.2469
 2815TIP3    H229861   1.978   2.885  16.825  0.0259 -0.1767 -0.8391
 2816TIP3   OH229862   6.233   1.212   3.093  0.6686 -0.1186 -0.5301
 2816TIP3    H129863   6.187   1.137   3.131  2.3049 -0.7156  0.4185
 2816TIP3    H229864   6.317   1.214   3.140  0.6049  2.4395 -0.3977
 2817TIP3   OH229865   4.345   0.369  16.973 -0.0584 -0.5596  0.1914
 2817TIP3    H129866   4.343   0.406  17.061  0.2486 -0.6411  0.2304
 2817TIP3    H229867   4.277   0.417  16.926  1.4839  1.3104 -0.2539
 2818TIP3   OH229868   1.116   5.908   4.534  0.3030  0.6344  0.0785
 2818TIP3    H129869   1.160   5.880   4.614  0.7441 -0.0817 -0.3955
 2818TIP3    H229870   1.050   5.970   4.563 -0.1753 -0.3131  1.1069
 2819TIP3   OH229871   2.196   1.210   3.524  0.1850  0.7685 -0.2211
 2819TIP3    H129872   2.121   1.198   3.465  0.4345 -0.9145 -0.2327
 2819TIP3    H229873   2.241   1.126   3.523  0.7223  0.9939  1.6650
 2820TIP3   OH229874   0.276   3.482   4.391 -0.3409  0.1869 -0.0624
 2820TIP3    H129875   0.247   3.530   4.469  0.7803 -0.8224  1.0221
 2820TIP3    H229876   0.285   3.392   4.420 -0.1835 -0.2734 -1.4613
 2821TIP3   OH229877   3.591   3.798  14.618  0.6724  0.1680 -0.4592
 2821TIP3    H129878   3.516   3.808  14.559  0.0246  1.2023  0.5139
 2821TIP3    H229879   3.650   3.739  14.571 -1.0115 -1.1833 -0.9924
 2822TIP3   OH229880   6.408   4.726   6.097  0.0752  0.0196 -0.2039
 2822TIP3    H129881   6.484   4.668   6.088 -0.0252 -0.2957  0.9164
 2822TIP3    H229882   6.444   4.809   6.129  0.2786  0.7703 -2.2105
 2823TIP3   OH229883   3.876   6.673  17.048  0.0234 -0.0863 -0.4889
 2823TIP3    H129884   3.814   6.743  17.071  0.2074  0.2062 -0.8710
 2823TIP3    H229885   3.853   6.650  16.958 -0.1200 -0.6156 -0.3207
 2824TIP3   OH229886   1.239   1.149   3.406 -0.1332  0.7037 -0.1756
 2824TIP3    H129887   1.319   1.157   3.457 -1.1917  0.2411  1.6284
 2824TIP3    H229888   1.213   1.240   3.387  0.2168  0.8815  0.1959
 2825TIP3   OH229889   4.363   0.425  12.461 -1.3198 -0.0648 -0.1860
 2825TIP3    H129890   4.340   0.416  12.368 -1.4167 -0.4372 -0.1247
 2825TIP3    H229891   4.431   0.360  12.476  1.5587  2.5546 -0.9456
 2826TIP3   OH229892   5.668   5.659  16.952 -0.0979 -0.3821  0.3218
 2826TIP3    H129893   5.715   5.582  16.986 -1.5034 -1.6423 -0.4527
 2826TIP3    H229894   5.603   5.622  16.893 -1.6735  1.3446  0.9060
 2827TIP3   OH229895   1.208   2.186  12.587  0.3780 -0.1958  0.3708
 2827TIP3    H129896   1.265   2.245  12.536  2.9672 -1.1673  1.9153
 2827TIP3    H229897   1.144   2.245  12.628  0.5489  1.0395 -1.0377
 2828TIP3   OH229898   1.216   6.738   5.760 -0.2842  0.5909  0.0759
 2828TIP3    H129899   1.182   6.746   5.849 -1.4328  1.2626 -0.4102
 2828TIP3    H229900   1.196   6.821   5.718 -1.4140 -0.3524 -1.3678
 2829TIP3   OH229901   0.976   6.325  12.055  0.0791  0.5644  0.1498
 2829TIP3    H129902   1.067   6.294  12.056 -0.5675 -1.4591 -0.3237
 2829TIP3    H229903   0.982   6.416  12.027  1.9578  0.4629  0.1198
 2830TIP3   OH229904   3.022   1.088   3.823  0.1896 -0.0045 -0.3216
 2830TIP3    H129905   3.030   1.167   3.771  0.7103 -0.4644 -0.9642
 2830TIP3    H229906   3.110   1.072   3.857  0.3703 -0.9326 -1.1627
 2831TIP3   OH229907   0.907   6.180  11.245  0.4986  0.0879  0.4447
 2831TIP3    H129908   0.929   6.272  11.264  0.8416  0.1189 -0.0828
 2831TIP3    H229909   0.820   6.184  11.204  2.1153  0.6339 -3.3697
 2832TIP3   OH229910   3.301   2.623   3.294 -0.2946 -1.0871 -0.2242
 2832TIP3    H129911   3.360   2.593   3.363  0.0028  0.5530  0.2676
 2832TIP3    H229912   3.290   2.547   3.237 -0.3731 -2.4166  1.4990
 2833TIP3   OH229913   3.062   3.955   0.931 -0.5588  0.0556 -0.1709
 2833TIP3    H129914   3.121   4.014   0.978  1.2889 -1.0959 -0.9486
 2833TIP3    H229915   3.002   3.923   0.998  1.8134 -1.3205  1.4451
 2834TIP3   OH229916   5.194   0.464  16.176  0.3977  0.0946 -0.4626
 2834TIP3    H129917   5.269   0.416  16.211  1.7502  2.1008 -0.4668
 2834TIP3    H229918   5.118   0.424  16.219  1.2038 -3.2197 -1.8093
 2835TIP3   OH229919   2.370   1.944  17.074  0.3286  0.2497  0.6982
 2835TIP3    H129920   2.288   1.989  17.054  0.2906  0.0994  0.5159
 2835TIP3    H229921   2.439   2.004  17.045  0.2693 -0.2337 -0.4701
 2836TIP3   OH229922   1.734   1.504   0.286 -0.1607 -0.4204 -0.3500
 2836TIP3    H129923   1.713   1.521   0.378  4.1577 -1.8369  1.1420
 2836TIP3    H229924   1.766   1.588   0.253  1.9546 -0.7452  0.7345
 2837TIP3   OH229925   1.979   3.057  13.690 -0.0945 -0.1501 -0.2010
 2837TIP3    H129926   1.898   3.095  13.656  0.9569  1.0072 -1.5354
 2837TIP3    H229927   1.994   3.103  13.773 -0.7598 -0.3214  0.0199
 2838TIP3   OH229928   4.706   3.630   1.213 -0.4357 -0.3077  0.1356
 2838TIP3    H129929   4.679   3.688   1.141 -1.9930  0.3018  1.1460
 2838TIP3    H229930   4.798   3.612   1.196  0.1542  2.5444 -0.2190
 2839TIP3   OH229931   3.518   5.036  12.503 -0.7047  0.4756 -0.5973
 2839TIP3    H129932   3.602   5.047  12.458 -0.2815  0.2760  0.1351
 2839TIP3    H229933   3.536   5.060  12.594 -0.9027 -1.6292  0.0361
 2840TIP3   OH229934   5.633   3.092  13.241  0.4955  0.3254  0.6379
 2840TIP3    H129935   5.589   3.140  13.171 -1.3698 -0.9606  0.8212
 2840TIP3    H229936   5.569   3.090  13.312  0.9899 -1.2953  1.0906
 2841TIP3   OH229937   2.078   1.195   4.055 -0.0910 -1.1992 -0.3146
 2841TIP3    H129938   2.115   1.231   3.975  0.7870 -0.5370  0.3617
 2841TIP3    H229939   2.024   1.265   4.090 -1.0386 -1.7332 -0.6674
 2842TIP3   OH229940   0.763   4.034   1.329  0.0836  0.1396 -0.0625
 2842TIP3    H129941   0.693   3.978   1.363  0.9590 -1.6924 -1.0962
 2842TIP3    H229942   0.803   3.982   1.259  0.2691  2.5208 -1.8517
 2843TIP3   OH229943   5.194   3.973   5.260 -0.5059  0.3684  0.4998
 2843TIP3    H129944   5.236   3.889   5.241 -0.9172 -0.1473  1.7220
 2843TIP3    H229945   5.101   3.958   5.243 -0.7120  0.2594  1.6399
 2844TIP3   OH229946   2.382   5.159   3.950  0.2289  0.1645 -0.0066
 2844TIP3    H129947   2.295   5.172   3.912  0.5056 -1.3973 -1.2757
 2844TIP3    H229948   2.413   5.077   3.912  1.4326 -0.3701  2.0003
 2845TIP3   OH229949   0.603   3.885   5.488  0.5735  0.2172  0.2046
 2845TIP3    H129950   0.697   3.901   5.487  0.5173  0.5959  0.4605
 2845TIP3    H229951   0.578   3.892   5.580  0.0204  1.8422 -0.0390
 2846TIP3   OH229952   6.388   6.704   3.156 -0.0911  0.0016  0.1427
 2846TIP3    H129953   6.460   6.664   3.204 -0.1390 -0.0598  0.1645
 2846TIP3    H229954   6.427   6.776   3.108 -0.0290  0.0152  0.2143
 2847TIP3   OH229955   4.249   3.170   1.875 -0.8234  0.0689 -0.3352
 2847TIP3    H129956   4.340   3.175   1.905 -1.1118 -1.6929  1.0162
 2847TIP3    H229957   4.233   3.254   1.833  1.0077  0.9584  0.6144
 2848TIP3   OH229958   5.476   3.206  13.049 -0.2111  0.6044 -0.1192
 2848TIP3    H129959   5.498   3.299  13.057 -2.8983  1.4760 -1.8060
 2848TIP3    H229960   5.500   3.183  12.959 -1.0988  0.1369 -0.2455
 2849TIP3   OH229961   3.070   3.596   3.891  0.1625 -0.5069 -0.4349
 2849TIP3    H129962   3.107   3.593   3.802  0.1576  0.1618 -0.4594
 2849TIP3    H229963   3.141   3.563   3.947  0.1906 -0.8601 -0.6758
 2850TIP3   OH229964   6.341   0.480  16.993  0.0138 -0.4431 -0.0965
 2850TIP3    H129965   6.292   0.511  17.069  1.6489  1.5508  0.2133
 2850TIP3    H229966   6.380   0.397  17.022  0.2420  0.0681  1.0968
 2851TIP3   OH229967   0.364   4.810  17.059 -0.5775 -0.6470 -0.3526
 2851TIP3    H129968   0.421   4.751  17.109 -0.5802  0.0222  0.4478
 2851TIP3    H229969   0.336   4.876  17.122 -0.3476  0.3778 -1.2995
 2852TIP3   OH229970   4.048   3.650   2.635  0.4907 -0.0426 -0.3930
 2852TIP3    H129971   4.088   3.585   2.578 -1.3115 -1.3158 -0.2777
 2852TIP3    H229972   4.013   3.600   2.709 -1.6094  0.8896 -0.6644
 2853TIP3   OH229973   5.927   4.117   2.978  0.6194  0.6438  0.4347
 2853TIP3    H129974   5.916   4.184   3.046  2.0691  0.2738  1.0887
 2853TIP3    H229975   5.898   4.036   3.019  0.2091  0.6406  0.1389
 2854TIP3   OH229976   1.320   1.353  15.693 -0.4628  0.0576 -0.3411
 2854TIP3    H129977   1.245   1.318  15.741 -0.4864  0.1574 -0.3050
 2854TIP3    H229978   1.299   1.445  15.679 -0.8010 -0.1423 -1.2101
 2855TIP3   OH229979   0.767   3.386   3.468  0.0293 -0.2917 -0.2897
 2855TIP3    H129980   0.686   3.386   3.418 -0.0637 -0.2939 -0.1395
 2855TIP3    H229981   0.809   3.303   3.446  1.5347  1.0414 -2.8466
 2856TIP3   OH229982   4.484   2.925  16.919  0.4098  0.5644  0.5976
 2856TIP3    H129983   4.543   2.878  16.978 -1.1239 -0.1514  1.6264
 2856TIP3    H229984   4.465   2.862  16.849  0.8322  0.7887  0.2756
 2857TIP3   OH229985   3.582   2.883  15.842 -0.1096  0.0037  0.2589
 2857TIP3    H129986   3.515   2.898  15.776 -0.2456  0.3897  0.4821
 2857TIP3    H229987   3.615   2.795  15.823  1.6364  1.0229 -1.9139
 2858TIP3   OH229988   1.872   3.213   0.573  0.2207  0.3885  0.1004
 2858TIP3    H129989   1.869   3.295   0.526 -0.8685  0.4748  0.2803
 2858TIP3    H229990   1.819   3.153   0.521  1.1617 -0.2687 -0.1330
 2859TIP3   OH229991   0.173   6.459  14.419 -0.1469 -0.1050 -0.1628
 2859TIP3    H129992   0.103   6.524  14.414 -0.4441 -0.1694  2.0895
 2859TIP3    H229993   0.127   6.375  14.411 -0.6315 -0.2135  2.5850
 2860TIP3   OH229994   4.824   0.196  16.159  0.8327  0.4624 -0.5754
 2860TIP3    H129995   4.884   0.130  16.126 -0.1083 -0.1157 -1.1975
 2860TIP3    H229996   4.745   0.147  16.183  0.1787  1.3291 -0.8946
 2861TIP3   OH229997   4.045   1.638   0.575 -0.3119 -0.5018 -0.6479
 2861TIP3    H129998   4.010   1.617   0.661  0.0978  0.6658 -0.1858
 2861TIP3    H229999   4.125   1.686   0.592 -0.2587 -0.1869 -1.6840
 2862TIP3   OH230000   6.617   5.085  11.659  0.7625 -0.0411  0.6988
 2862TIP3    H130001   6.524   5.069  11.674  0.5354  0.8111  0.3039
 2862TIP3    H230002   6.628   5.178  11.678  1.1756  0.2629 -0.8657
 2863TIP3   OH230003   1.279   5.789  16.669  0.2776  0.1473  0.1150
 2863TIP3    H130004   1.307   5.781  16.760  1.3963  2.1442  0.0089
 2863TIP3    H230005   1.283   5.700  16.635  0.6607 -0.5185  1.7773
 2864TIP3   OH230006   6.612   5.575   5.148 -0.8775  0.1382 -0.1616
 2864TIP3    H130007   6.674   5.585   5.075 -0.7408 -0.4836 -0.1341
 2864TIP3    H230008   6.628   5.652   5.203 -2.1542  1.5296 -1.6450
 2865TIP3   OH230009   6.687   0.315  15.260 -0.3579 -0.4093 -0.1449
 2865TIP3    H130010   6.729   0.389  15.217 -0.3126 -0.2329  0.1962
 2865TIP3    H230011   6.682   0.341  15.352 -0.6214 -0.7018 -0.0763
 2866TIP3   OH230012   6.545   4.597   5.462 -0.0643 -0.1737  0.0850
 2866TIP3    H130013   6.538   4.588   5.557 -0.8830  1.5291  0.2343
 2866TIP3    H230014   6.516   4.512   5.428  1.5104 -1.2804  1.3375
 2867TIP3   OH230015   2.504   2.913   1.145 -0.0308  0.0328  0.3958
 2867TIP3    H130016   2.516   2.856   1.221 -0.9771  0.4124  0.8501
 2867TIP3    H230017   2.448   2.862   1.086 -1.0015  0.5295  0.8679
 2868TIP3   OH230018   6.557   3.946  16.403  0.0073  0.1171 -0.2840
 2868TIP3    H130019   6.494   3.982  16.466  0.2658  0.4018 -0.1824
 2868TIP3    H230020   6.537   3.992  16.321 -2.2334 -2.2725 -1.2194
 2869TIP3   OH230021   4.735   6.431  14.266  0.5771  0.3095 -0.0422
 2869TIP3    H130022   4.650   6.474  14.270  0.7702  1.2762 -3.1660
 2869TIP3    H230023   4.717   6.340  14.288 -1.2841  0.4994 -0.5650
 2870TIP3   OH230024   2.118   5.778   0.545  0.1305 -0.3024 -0.1545
 2870TIP3    H130025   2.093   5.745   0.631 -0.6091 -0.5913 -0.4692
 2870TIP3    H230026   2.086   5.711   0.484  0.4535  0.0052 -0.6687
 2871TIP3   OH230027   6.754   5.286  12.947  0.0623 -0.7127  0.4911
 2871TIP3    H130028   6.702   5.237  12.884 -2.1973  0.9179  0.9789
 2871TIP3    H230029   6.731   5.247  13.032  0.5966 -0.7662  0.6169
 2872TIP3   OH230030   5.892   2.181   3.901 -0.0150 -0.4447 -0.1897
 2872TIP3    H130031   5.846   2.265   3.906  0.0717 -0.3670 -0.6478
 2872TIP3    H230032   5.947   2.188   3.823  0.7294 -0.5624  0.3147
 2873TIP3   OH230033   4.855   3.151  12.910 -0.3151 -0.0758  0.0390
 2873TIP3    H130034   4.899   3.153  12.995 -0.6534 -0.4312  0.2260
 2873TIP3    H230035   4.897   3.221  12.860 -0.1127  0.1369  0.4973
 2874TIP3   OH230036   2.258   6.730   4.164  0.1534 -0.1596 -0.2462
 2874TIP3    H130037   2.200   6.760   4.094 -1.4163 -0.4018  0.9050
 2874TIP3    H230038   2.261   6.803   4.226  0.4308 -0.4435  0.0835
 2875TIP3   OH230039   0.817   5.057  15.371  0.2540 -0.4578  0.2226
 2875TIP3    H130040   0.730   5.083  15.339 -0.1360 -0.5008  1.2040
 2875TIP3    H230041   0.808   5.058  15.466  1.8387  1.2112  0.3976
 2876TIP3   OH230042   6.490   1.220   3.878  0.0703  0.2908  0.0916
 2876TIP3    H130043   6.409   1.191   3.920 -0.1188  1.5168  0.6179
 2876TIP3    H230044   6.553   1.150   3.896 -1.1045 -1.1472 -1.1740
 2877TIP3   OH230045   0.788   1.213   2.998  0.0654  0.3488  0.4005
 2877TIP3    H130046   0.819   1.197   3.087 -0.2788  1.7309  0.7913
 2877TIP3    H230047   0.713   1.155   2.988  0.8426 -0.7176  0.5601
 2878TIP3   OH230048   3.362   6.041  16.769  0.3463  0.4073 -0.3458
 2878TIP3    H130049   3.304   6.099  16.818  0.9507 -0.2909  1.2806
 2878TIP3    H230050   3.304   5.993  16.709 -1.0116 -1.0110  1.9290
 2879TIP3   OH230051   4.020   1.438  11.468 -0.3998 -1.1261 -0.0691
 2879TIP3    H130052   4.054   1.523  11.442 -0.3820 -0.6915  1.3045
 2879TIP3    H230053   3.934   1.456  11.506 -0.1892 -1.6340  0.6994
 2880TIP3   OH230054   0.597   4.199  15.158 -0.4063  0.6083  0.0019
 2880TIP3    H130055   0.572   4.287  15.183  0.4466  1.4729 -2.0113
 2880TIP3    H230056   0.646   4.209  15.077  1.4843 -1.5200  0.7485
 2881TIP3   OH230057   4.712   3.770   1.684  0.1875  0.1005  0.1005
 2881TIP3    H130058   4.758   3.747   1.603  1.5670  1.1155  0.5477
 2881TIP3    H230059   4.648   3.836   1.657  0.4274  0.2031 -0.2288
 2882TIP3   OH230060   5.267   6.183  13.897 -0.0643 -0.1527  0.1376
 2882TIP3    H130061   5.282   6.202  13.805  1.8699  1.0774  0.6530
 2882TIP3    H230062   5.258   6.087  13.900 -0.1826 -0.2123 -1.3146
 2883TIP3   OH230063   5.516   0.787  13.004 -0.1680 -0.7302  0.1715
 2883TIP3    H130064   5.533   0.765  12.913  0.2980  0.4230 -0.0445
 2883TIP3    H230065   5.603   0.804  13.041 -0.4531  0.2567  0.4213
 2884TIP3   OH230066   6.334   3.810   4.896  0.5310 -0.0870  0.0461
 2884TIP3    H130067   6.316   3.874   4.827  0.1533 -0.8760 -0.6162
 2884TIP3    H230068   6.250   3.796   4.939  0.3495 -0.9573 -0.5561
 2885TIP3   OH230069   3.752   6.472  13.317  0.1665  0.4193 -0.2342
 2885TIP3    H130070   3.722   6.483  13.227 -0.1209  2.2590  0.0456
 2885TIP3    H230071   3.672   6.458  13.368  0.4900 -4.4156 -0.6005
 2886TIP3   OH230072   0.790   0.702  12.265 -0.7972 -0.5344  0.3609
 2886TIP3    H130073   0.879   0.709  12.297 -0.3163 -1.5017 -0.6541
 2886TIP3    H230074   0.776   0.607  12.255 -1.7445 -0.3719  0.0316
 2887TIP3   OH230075   4.044   3.093   3.419 -0.1150  0.2369  0.7767
 2887TIP3    H130076   4.038   3.129   3.331  0.4466  1.2444  1.1274
 2887TIP3    H230077   3.967   3.128   3.465 -0.4312 -0.3219  0.6704
 2888TIP3   OH230078   0.441   2.694   5.967 -0.2855  0.1012 -0.7388
 2888TIP3    H130079   0.464   2.787   5.972 -0.9472  0.4089 -2.6296
 2888TIP3    H230080   0.378   2.681   6.039 -0.4482  1.2048 -0.6604
 2889TIP3   OH230081   4.425   3.163  14.323 -0.4283 -0.1552  0.2741
 2889TIP3    H130082   4.473   3.212  14.390 -1.1216 -1.0424  1.4594
 2889TIP3    H230083   4.493   3.113  14.278 -0.1055 -0.7781  1.4046
 2890TIP3   OH230084   4.875   6.176   5.754  0.0440  0.6054  0.2807
 2890TIP3    H130085   4.928   6.105   5.719 -1.0793 -1.5289  2.5924
 2890TIP3    H230086   4.935   6.224   5.812  0.5612  1.0107 -0.5710
 2891TIP3   OH230087   2.276   0.788   1.419 -0.4910  0.0681 -0.5266
 2891TIP3    H130088   2.206   0.732   1.386 -1.3296  0.5635  0.3670
 2891TIP3    H230089   2.318   0.735   1.487 -2.1473  0.9408  1.2834
 2892TIP3   OH230090   0.181   3.641   3.430 -0.2472  0.5049 -0.1125
 2892TIP3    H130091   0.125   3.673   3.359  1.0497  0.3219 -1.2621
 2892TIP3    H230092   0.252   3.705   3.437 -0.2981  0.4723  0.9661
 2893TIP3   OH230093   4.439   1.469   0.812  0.5572 -0.4098  0.0057
 2893TIP3    H130094   4.515   1.411   0.816 -0.3912 -1.7093 -0.2531
 2893TIP3    H230095   4.404   1.469   0.901 -0.5024 -1.7259 -0.3878
 2894TIP3   OH230096   5.359   1.379   1.111 -0.0845  0.2901 -0.2165
 2894TIP3    H130097   5.428   1.393   1.047 -0.0138  1.2838  0.0627
 2894TIP3    H230098   5.311   1.302   1.079  0.0069  0.7191 -1.4020
 2895TIP3   OH230099   3.392   0.309  11.897  0.0691  0.2052 -0.1768
 2895TIP3    H130100   3.457   0.357  11.949  0.2380  0.2779 -0.4542
 2895TIP3    H230101   3.313   0.362  11.903  0.7249  1.5225 -1.9774
 2896TIP3   OH230102   4.470   4.839   0.022 -0.2646 -0.1318  0.8317
 2896TIP3    H130103   4.451   4.797  -0.062  1.9619  0.6135 -0.1235
 2896TIP3    H230104   4.481   4.932   0.000 -0.2887  0.1815  2.0718
 2897TIP3   OH230105   2.689   6.597  10.944  0.1324  0.4214 -0.3837
 2897TIP3    H130106   2.689   6.614  11.038  0.5125 -0.0425 -0.2939
 2897TIP3    H230107   2.616   6.649  10.910  0.1233  0.7518  0.1353
 2898TIP3   OH230108   4.048   2.106   4.779  0.0563  0.0205 -0.0219
 2898TIP3    H130109   4.104   2.151   4.842 -1.1382  1.2724  0.1871
 2898TIP3    H230110   4.000   2.176   4.736 -1.6120 -1.0354  0.0600
 2899TIP3   OH230111   3.550   1.907  14.931 -0.1942 -0.1083  0.4723
 2899TIP3    H130112   3.627   1.911  14.987 -0.3034  0.9476  0.5748
 2899TIP3    H230113   3.564   1.978  14.868 -0.7204 -0.4064  0.0153
 2900TIP3   OH230114   4.940   1.390   1.162  0.2482 -0.0525 -0.4482
 2900TIP3    H130115   4.954   1.312   1.109 -1.0227 -1.0521  0.6308
 2900TIP3    H230116   5.025   1.406   1.204  0.4336 -1.0493 -0.4238
 2901TIP3   OH230117   6.500   4.060  16.155  0.0148 -0.6200 -0.7238
 2901TIP3    H130118   6.414   4.049  16.115 -0.9529  3.8431 -0.2746
 2901TIP3    H230119   6.561   4.041  16.083 -1.5644  1.8837 -2.9422
 2902TIP3   OH230120   4.087   3.795   3.040 -0.2739 -0.5370 -0.3623
 2902TIP3    H130121   4.136   3.872   3.011  1.3624 -1.1511  0.6506
 2902TIP3    H230122   4.053   3.819   3.127 -0.1173 -0.8002 -0.2263
 2903TIP3   OH230123   2.588   2.035  13.564  0.4172  0.0436  0.0742
 2903TIP3    H130124   2.668   1.999  13.604  1.0833 -0.3488 -1.5347
 2903TIP3    H230125   2.619   2.081  13.486 -0.8618  0.5978 -0.1262
 2904TIP3   OH230126   2.436   5.690  14.755  0.0543  0.0083  0.2692
 2904TIP3    H130127   2.378   5.616  14.774 -1.5726  1.3984  0.9130
 2904TIP3    H230128   2.462   5.722  14.841 -2.0016  2.2401  0.1517
 2905TIP3   OH230129   0.363   5.634  14.932 -0.1690  0.2687  0.3086
 2905TIP3    H130130   0.272   5.628  14.963  0.4025  0.9986  2.2710
 2905TIP3    H230131   0.400   5.548  14.948 -0.0273  0.4902  1.2136
 2906TIP3   OH230132   4.733   1.363  14.024 -0.1753 -0.0828 -0.2292
 2906TIP3    H130133   4.710   1.450  14.056 -0.2548  0.3776 -1.4905
 2906TIP3    H230134   4.662   1.307  14.055 -0.9962  0.6109 -0.8069
 2907TIP3   OH230135   2.803   4.503   0.610 -0.0952 -0.4868  0.0994
 2907TIP3    H130136   2.832   4.433   0.668 -0.9515 -0.7147  0.2688
 2907TIP3    H230137   2.884   4.543   0.577  0.4757 -2.7631 -1.5128
 2908TIP3   OH230138   3.684   3.614  14.171  0.6691 -0.1587  0.4444
 2908TIP3    H130139   3.705   3.521  14.161  0.8997 -0.1844  1.0926
 2908TIP3    H230140   3.746   3.659  14.113 -0.5427 -0.4849 -1.1638
 2909TIP3   OH230141   6.309   2.225  17.310 -0.1617 -0.6078 -0.3691
 2909TIP3    H130142   6.230   2.175  17.290 -1.1685  0.4477  0.7785
 2909TIP3    H230143   6.306   2.300  17.251 -0.4970 -0.0997  0.2900
 2910TIP3   OH230144   6.652   1.427  15.729 -0.0376  0.1879  0.1271
 2910TIP3    H130145   6.682   1.393  15.813  0.4766 -1.3024 -0.6290
 2910TIP3    H230146   6.727   1.418  15.671 -0.7459  0.0515 -0.7955
 2911TIP3   OH230147   1.911   5.167  11.472 -0.0198 -0.2627 -0.7550
 2911TIP3    H130148   2.005   5.176  11.488 -0.4773  1.2891  1.5020
 2911TIP3    H230149   1.878   5.119  11.548 -1.2187  0.3503 -0.8666
 2912TIP3   OH230150   6.174   5.508   5.153  0.3714 -0.1373  0.5816
 2912TIP3    H130151   6.233   5.546   5.219  0.9895  0.3740 -0.2453
 2912TIP3    H230152   6.219   5.523   5.070  0.0605 -1.6341  0.1156
 2913TIP3   OH230153   3.935   0.920  15.095 -0.9226 -0.1470 -0.3427
 2913TIP3    H130154   4.029   0.939  15.101 -1.0504  1.2435 -2.0631
 2913TIP3    H230155   3.910   0.898  15.185  1.0295 -0.5595  0.1613
 2914TIP3   OH230156   6.449   3.372  14.126  0.2249  0.1035 -0.2228
 2914TIP3    H130157   6.384   3.363  14.057  0.5618  1.0947 -0.6900
 2914TIP3    H230158   6.497   3.452  14.103  1.7576 -0.7241 -0.0270
 2915TIP3   OH230159   3.859   0.219  16.099 -0.0736 -0.1279 -0.3562
 2915TIP3    H130160   3.876   0.148  16.161  1.2449  0.9140  0.5199
 2915TIP3    H230161   3.774   0.254  16.126  0.2360 -0.0370  0.5367
 2916TIP3   OH230162   1.414   6.653  12.322  0.1445  0.2607 -0.2312
 2916TIP3    H130163   1.394   6.741  12.290  2.5295  2.0273  2.6364
 2916TIP3    H230164   1.496   6.629  12.277  1.0519  0.8212  1.0534
 2917TIP3   OH230165   0.365   4.139  15.453  0.2706 -0.1808 -0.1486
 2917TIP3    H130166   0.435   4.074  15.449  0.4969  0.0708 -0.3570
 2917TIP3    H230167   0.403   4.212  15.502  0.4481  0.3063 -0.9866
 2918TIP3   OH230168   2.012   3.290   2.823  0.1060 -0.2025  0.0941
 2918TIP3    H130169   2.086   3.273   2.764 -0.8119  0.4181 -1.2814
 2918TIP3    H230170   2.044   3.358   2.882  0.8058 -0.3231 -0.1356
 2919TIP3   OH230171   5.351   0.426  15.788 -0.3533 -0.0602  0.0862
 2919TIP3    H130172   5.420   0.469  15.837 -0.4981  0.3161 -0.0373
 2919TIP3    H230173   5.378   0.334  15.783  0.1406  0.0886  0.0271
 2920TIP3   OH230174   6.549   2.500  14.033 -0.4767  0.0418 -0.0502
 2920TIP3    H130175   6.499   2.476  13.955  0.0739 -0.9967 -0.0994
 2920TIP3    H230176   6.593   2.419  14.059 -0.8979  0.2816  1.5270
 2921TIP3   OH230177   3.768   4.756  12.879 -0.3717  0.1647 -0.0037
 2921TIP3    H130178   3.821   4.696  12.825  0.3781  1.5262 -0.8641
 2921TIP3    H230179   3.725   4.813  12.815 -0.4571  1.0160  0.7926
 2922TIP3   OH230180   5.819   0.038  13.892  0.1676  0.0503  0.1613
 2922TIP3    H130181   5.773   0.120  13.910 -1.6123 -0.6261 -0.9664
 2922TIP3    H230182   5.759  -0.030  13.924  0.7310 -0.8527 -0.6619
 2923TIP3   OH230183   2.559   3.197   5.758  0.2807 -0.1832  0.0030
 2923TIP3    H130184   2.486   3.162   5.810 -0.6782 -0.4423 -1.4521
 2923TIP3    H230185   2.636   3.151   5.792 -0.5461 -1.5475  0.1402
 2924TIP3   OH230186   0.557   4.609  12.369  0.0640 -0.0663 -0.3389
 2924TIP3    H130187   0.540   4.515  12.379  0.2180  0.0106  0.7782
 2924TIP3    H230188   0.478   4.651  12.403  0.0527  0.2226 -0.7107
 2925TIP3   OH230189   6.728   4.644   0.702  0.1092  0.0601  0.3358
 2925TIP3    H130190   6.744   4.553   0.677 -0.2914 -0.6995  2.6218
 2925TIP3    H230191   6.637   4.660   0.677 -0.0509 -0.4173  0.6035
 2926TIP3   OH230192   5.068   5.997   1.194  0.0244 -0.5368  0.0885
 2926TIP3    H130193   5.100   6.024   1.108 -0.6635  2.4461  0.6639
 2926TIP3    H230194   4.984   5.954   1.176 -0.6754  1.0918 -0.6909
 2927TIP3   OH230195   1.985   4.481   1.521  0.0234  0.2971  0.0284
 2927TIP3    H130196   1.960   4.439   1.603 -1.5800 -0.6794 -0.9154
 2927TIP3    H230197   1.987   4.410   1.457 -1.6477  1.4335 -1.3734
 2928TIP3   OH230198   3.800   0.187   4.508 -0.1332  0.3256 -0.1427
 2928TIP3    H130199   3.757   0.145   4.583  0.7469  0.5320  0.5048
 2928TIP3    H230200   3.883   0.219   4.544  0.8944 -0.6876 -1.5018
 2929TIP3   OH230201   5.478   2.409   1.238  0.3480 -0.5963 -0.7012
 2929TIP3    H130202   5.505   2.427   1.328 -1.2396 -0.5642 -0.1977
 2929TIP3    H230203   5.405   2.347   1.247 -0.3877  0.0536 -1.9083
 2930TIP3   OH230204   1.593   4.548  16.811  0.6092  0.5179 -0.1014
 2930TIP3    H130205   1.562   4.466  16.772  0.4697 -0.6089  2.2072
 2930TIP3    H230206   1.665   4.521  16.869  1.0166  2.1232  0.1869
 2931TIP3   OH230207   1.565   3.082  13.951  0.1521  0.1854  0.6167
 2931TIP3    H130208   1.481   3.126  13.946  0.1813  0.1926 -0.0079
 2931TIP3    H230209   1.564   3.021  13.877  1.1946  1.0984 -0.1885
 2932TIP3   OH230210   1.814   0.106   1.177 -0.4735  0.2666  0.8295
 2932TIP3    H130211   1.825   0.199   1.157  1.7979 -0.3987 -1.6109
 2932TIP3    H230212   1.722   0.089   1.158 -0.1096  1.3019 -2.6887
 2933TIP3   OH230213   6.050   4.319   3.148 -0.0701  0.3702  0.3735
 2933TIP3    H130214   6.034   4.410   3.124  0.5727 -0.1062 -2.1231
 2933TIP3    H230215   6.141   4.303   3.124 -0.7717 -1.4831 -1.4229
 2934TIP3   OH230216   5.600   5.694   3.440  0.3320 -0.0532  0.3642
 2934TIP3    H130217   5.572   5.770   3.390 -0.2957 -0.3081  0.3239
 2934TIP3    H230218   5.520   5.647   3.460  0.8333 -1.5550 -0.9819
 2935TIP3   OH230219   1.449   1.612  13.219  0.3430 -0.0347  1.1567
 2935TIP3    H130220   1.373   1.592  13.163  4.0856  0.4352 -5.0567
 2935TIP3    H230221   1.445   1.707  13.232  0.2349  0.1204  0.0921
 2936TIP3   OH230222   3.746   0.528  13.576 -0.3178 -0.9709 -0.7481
 2936TIP3    H130223   3.811   0.548  13.509 -0.8078  0.8437 -0.7494
 2936TIP3    H230224   3.795   0.489  13.647  0.5109 -1.1570 -1.4098
 2937TIP3   OH230225   5.982   1.166   1.756 -0.1495 -0.0935  0.3332
 2937TIP3    H130226   5.965   1.261   1.750 -0.2350  0.0303  2.0178
 2937TIP3    H230227   5.907   1.132   1.805 -0.3187 -1.1203 -0.5981
 2938TIP3   OH230228   3.953   3.441   2.347  0.3110  0.1849  0.1318
 2938TIP3    H130229   3.938   3.350   2.373  1.3969 -0.0401  0.0090
 2938TIP3    H230230   4.041   3.461   2.378  0.4616  0.8822 -0.6933
 2939TIP3   OH230231   4.107   3.122  17.124 -0.1821 -0.1181  0.0433
 2939TIP3    H130232   4.193   3.146  17.157  0.1077  0.8133 -1.3218
 2939TIP3    H230233   4.124   3.077  17.041 -0.9551 -1.3044  0.4914
 2940TIP3   OH230234   5.819   5.112   0.394  0.0652  0.4386 -0.0757
 2940TIP3    H130235   5.747   5.078   0.447 -1.3643  3.7462  0.3587
 2940TIP3    H230236   5.898   5.097   0.447 -0.8656  0.5357  1.3936
 2941TIP3   OH230237   6.018   6.195   3.563 -0.1511 -0.4718 -0.0430
 2941TIP3    H130238   6.092   6.217   3.618  0.7568  1.2364 -1.8251
 2941TIP3    H230239   6.018   6.262   3.494 -1.3056 -2.3699 -2.0236
 2942TIP3   OH230240   1.087   6.574  13.504  0.4221  0.0818 -0.3025
 2942TIP3    H130241   1.108   6.613  13.589  0.4631  0.7130 -0.6001
 2942TIP3    H230242   1.148   6.616  13.443  0.3247 -0.2963 -0.6630
 2943TIP3   OH230243   4.931   0.655  13.659 -0.0454  0.6187  0.1688
 2943TIP3    H130244   4.890   0.590  13.716  1.1189  1.7380  2.4110
 2943TIP3    H230245   4.999   0.696  13.713  1.1792  1.7485 -2.0582
 2944TIP3   OH230246   5.583   0.992   2.385 -0.1763 -0.6913 -0.0936
 2944TIP3    H130247   5.541   1.075   2.365  0.5116 -0.2783  0.1475
 2944TIP3    H230248   5.676   1.006   2.364  0.4814 -0.4547  2.5781
 2945TIP3   OH230249   2.148   5.825  14.667  0.7164 -0.2227  0.5148
 2945TIP3    H130250   2.056   5.822  14.693  0.1033 -0.1943 -1.5072
 2945TIP3    H230251   2.187   5.889  14.727 -0.5553 -0.2478  1.4165
 2946TIP3   OH230252   1.229   0.592   4.581  0.4019 -0.0937 -0.1235
 2946TIP3    H130253   1.155   0.635   4.623  0.6603 -0.2709  0.5340
 2946TIP3    H230254   1.269   0.659   4.526 -0.2406  0.0009 -0.4857
 2947TIP3   OH230255   6.155   3.231  14.431  0.1013  0.1415 -0.0142
 2947TIP3    H130256   6.210   3.267  14.362 -0.0419 -1.0671 -0.7732
 2947TIP3    H230257   6.187   3.273  14.511  1.5477  0.1148 -0.5504
 2948TIP3   OH230258   5.970   1.633  14.572 -0.1696  0.1272  0.5345
 2948TIP3    H130259   5.942   1.721  14.596  0.8953  0.4168  0.7563
 2948TIP3    H230260   6.041   1.646  14.510 -1.6504 -0.6069 -1.4555
 2949TIP3   OH230261   3.103   3.407  16.547 -0.7225 -0.2419 -0.7006
 2949TIP3    H130262   3.029   3.356  16.515 -1.2655 -0.0892  0.2604
 2949TIP3    H230263   3.104   3.486  16.493 -1.9547  0.2648 -0.0351
 2950TIP3   OH230264   4.184   1.362  14.733 -0.4040  0.4503  0.1527
 2950TIP3    H130265   4.176   1.433  14.797 -0.5998  1.1860 -0.6678
 2950TIP3    H230266   4.113   1.302  14.754 -0.7527  0.9254  0.3314
 2951TIP3   OH230267   2.546   2.293   0.905 -0.4495  0.7218 -0.1166
 2951TIP3    H130268   2.603   2.236   0.956  0.8698  1.7630 -0.3643
 2951TIP3    H230269   2.497   2.235   0.847  1.2473 -0.1093 -0.7483
 2952TIP3   OH230270   2.866   6.070  17.287  0.1900  0.0956  0.2941
 2952TIP3    H130271   2.780   6.110  17.287  0.1260  0.0514  2.1093
 2952TIP3    H230272   2.927   6.143  17.295  0.2905  0.0803 -0.2979
 2953TIP3   OH230273   4.453   2.132  13.052 -0.6205  0.2488 -0.0208
 2953TIP3    H130274   4.437   2.137  13.146  2.1149  1.7754  0.4760
 2953TIP3    H230275   4.523   2.195  13.036 -0.6749 -0.2890 -3.0293
 2954TIP3   OH230276   6.683   5.171  16.775 -0.4732 -0.3683 -0.4526
 2954TIP3    H130277   6.694   5.097  16.834  1.4562  1.6627  1.9435
 2954TIP3    H230278   6.599   5.209  16.800  0.6164  0.8777  1.6950
 2955TIP3   OH230279   6.309   1.718  15.620  0.2005  0.1035  0.4776
 2955TIP3    H130280   6.332   1.811  15.623 -1.5464  0.6220 -0.6181
 2955TIP3    H230281   6.295   1.694  15.711 -0.9401  1.3845  0.6755
 2956TIP3   OH230282   4.635   4.563   3.263  0.3483 -0.0455 -0.2499
 2956TIP3    H130283   4.633   4.652   3.296  0.1544 -0.7462  1.7628
 2956TIP3    H230284   4.544   4.536   3.258  0.4157 -0.2181 -0.6066
 2957TIP3   OH230285   6.554   0.561   3.127  0.3280  0.0787  0.3078
 2957TIP3    H130286   6.475   0.512   3.104 -2.1990  3.4154  1.0015
 2957TIP3    H230287   6.603   0.566   3.045 -1.1106 -0.5708 -0.6465
 2958TIP3   OH230288   2.388   5.598  12.459  0.5472 -0.3241  0.2037
 2958TIP3    H130289   2.351   5.681  12.490  2.5893  1.0327 -0.7415
 2958TIP3    H230290   2.433   5.621  12.377 -0.2983 -2.7484 -1.0442
 2959TIP3   OH230291   1.585   2.126  14.917  0.2479  0.2437 -0.2748
 2959TIP3    H130292   1.533   2.126  14.836 -2.1212 -1.1677  1.1385
 2959TIP3    H230293   1.524   2.155  14.984  1.6725 -0.2680  1.3097
 2960TIP3   OH230294   1.475   0.916  16.816  0.2095  0.2307 -0.2273
 2960TIP3    H130295   1.482   1.011  16.804  1.4838  0.1351 -0.3691
 2960TIP3    H230296   1.442   0.905  16.905  1.0534  0.8097  0.1774
 2961TIP3   OH230297   5.646   6.037   3.805 -0.0191 -1.0001 -0.2978
 2961TIP3    H130298   5.557   6.065   3.828  0.2027 -1.1213  0.7612
 2961TIP3    H230299   5.695   6.118   3.794  0.4990 -0.8929  2.2684
 2962TIP3   OH230300   3.816   2.208   1.070  0.1152  0.3557  0.1516
 2962TIP3    H130301   3.788   2.185   0.981 -1.0351  0.9833  0.3368
 2962TIP3    H230302   3.765   2.150   1.127  1.3361 -0.5109  0.3948
 2963TIP3   OH230303   5.230   0.463   0.405 -0.3564 -0.1583 -0.3221
 2963TIP3    H130304   5.261   0.553   0.411 -2.2390  0.5263  0.0047
 2963TIP3    H230305   5.173   0.452   0.481  0.4749 -1.9128  0.0858
 2964TIP3   OH230306   2.126   5.177   3.443 -0.3624 -0.1379  0.1905
 2964TIP3    H130307   2.114   5.243   3.374  0.1875  0.2349  0.4447
 2964TIP3    H230308   2.041   5.133   3.449 -0.4714 -0.0582 -0.6029
 2965TIP3   OH230309   5.565   0.610  12.018 -0.2359 -0.0355  1.1342
 2965TIP3    H130310   5.474   0.582  12.032 -0.8305  0.9986 -0.3602
 2965TIP3    H230311   5.598   0.550  11.951 -0.1848  0.2872  0.8688
 2966TIP3   OH230312   1.711   1.201   5.086 -0.5167 -0.2996 -0.7139
 2966TIP3    H130313   1.729   1.221   5.178  0.1991 -2.0533 -0.4416
 2966TIP3    H230314   1.616   1.191   5.082 -0.6858  0.9893 -0.4486
 2967TIP3   OH230315   6.729   4.804   4.052  1.1188  0.0068  0.3093
 2967TIP3    H130316   6.740   4.826   3.959  0.4325  1.1301  0.4674
 2967TIP3    H230317   6.732   4.888   4.097  2.1799 -0.5877  1.4037
 2968TIP3   OH230318   2.470   4.320   0.628  0.2418 -0.3223 -0.0803
 2968TIP3    H130319   2.529   4.251   0.658  0.2842  0.6218  2.2016
 2968TIP3    H230320   2.398   4.319   0.691 -1.7197 -0.7473 -2.1946
 2969TIP3   OH230321   6.430   4.859   4.243  0.3144  0.5308 -0.1318
 2969TIP3    H130322   6.449   4.801   4.169 -1.6929 -1.6686  0.9666
 2969TIP3    H230323   6.516   4.883   4.278  1.2335 -2.0086 -0.5068
 2970TIP3   OH230324   3.659   1.492   1.752 -0.4757  0.1604  0.1930
 2970TIP3    H130325   3.714   1.432   1.702 -2.0449 -0.3024 -1.0583
 2970TIP3    H230326   3.587   1.514   1.693 -0.7719  2.0591  1.1824
 2971TIP3   OH230327   0.359   0.189   4.268  0.0223  0.2310  0.3996
 2971TIP3    H130328   0.435   0.225   4.224 -0.0351  0.1904  0.2662
 2971TIP3    H230329   0.337   0.253   4.336  0.1049  0.2966  0.3631
 2972TIP3   OH230330   4.283   6.443   0.986 -0.0203  0.0162  0.0181
 2972TIP3    H130331   4.278   6.511   1.053 -1.9376 -0.0006 -0.0594
 2972TIP3    H230332   4.237   6.480   0.911  0.7240 -0.5814 -0.7520
 2973TIP3   OH230333   2.591   5.377  11.931 -0.3447  0.5380  0.1346
 2973TIP3    H130334   2.590   5.432  11.853 -0.2376 -1.1952 -1.1665
 2973TIP3    H230335   2.505   5.390  11.971 -1.2445 -0.1045 -1.4871
 2974TIP3   OH230336   6.675   0.632   5.178 -0.1340  0.2747 -0.4331
 2974TIP3    H130337   6.618   0.706   5.159 -0.2161  0.3150 -0.0371
 2974TIP3    H230338   6.744   0.669   5.234 -0.8435 -0.1960  0.7868
 2975TIP3   OH230339   5.137   6.329   5.352 -0.4401 -0.4292  0.0140
 2975TIP3    H130340   5.221   6.326   5.400 -0.9165  0.1097  0.9064
 2975TIP3    H230341   5.073   6.353   5.418 -1.0609  0.7997 -0.9937
 2976TIP3   OH230342   6.403   2.083  13.587  0.2700 -0.1696 -0.7054
 2976TIP3    H130343   6.413   2.019  13.517  0.1028 -0.8501 -0.1174
 2976TIP3    H230344   6.396   2.167  13.541  1.1451 -0.4849 -1.4525
 2977TIP3   OH230345   0.266   3.539   3.089  0.2430 -0.1890  0.0390
 2977TIP3    H130346   0.252   3.632   3.072 -1.3355 -0.4303 -0.1496
 2977TIP3    H230347   0.355   3.522   3.058  1.2276  1.6196  1.6994
 2978TIP3   OH230348   4.684   3.049  12.026 -0.1798 -0.0913  0.5409
 2978TIP3    H130349   4.695   3.100  12.106  2.1916 -1.2839  1.0847
 2978TIP3    H230350   4.623   2.979  12.050  0.5625 -0.4742  1.3660
 2979TIP3   OH230351   1.102   1.244  16.210  0.1280  0.3244  0.4114
 2979TIP3    H130352   1.194   1.218  16.210 -0.2925 -1.2951  0.3801
 2979TIP3    H230353   1.085   1.275  16.299  0.6224  0.3617  0.4947
 2980TIP3   OH230354   1.185   6.496  12.648 -0.2888 -0.4812  0.2647
 2980TIP3    H130355   1.238   6.460  12.720  2.4229  0.5067 -1.0881
 2980TIP3    H230356   1.127   6.424  12.623  0.7188 -1.8279  1.5764
 2981TIP3   OH230357   4.081   1.919  12.239  0.0038 -0.3557 -0.1587
 2981TIP3    H130358   4.165   1.931  12.284 -0.9337  1.3581  1.2159
 2981TIP3    H230359   4.053   2.007  12.216 -1.0967 -0.9662 -1.3007
 2982TIP3   OH230360   5.802   2.714   2.635 -0.0881  0.0891  0.5963
 2982TIP3    H130361   5.863   2.709   2.708  0.8120  2.4850  0.1125
 2982TIP3    H230362   5.796   2.808   2.615 -2.2865 -0.2618 -0.7626
 2983TIP3   OH230363   3.152   3.754  11.565  0.1538  0.0139  0.2768
 2983TIP3    H130364   3.193   3.805  11.495 -1.4062  1.0573  0.0636
 2983TIP3    H230365   3.075   3.715  11.524 -0.1266 -0.3359  1.1274
 2984TIP3   OH230366   4.851   0.082   2.588  0.0838 -0.1081  0.0629
 2984TIP3    H130367   4.918   0.141   2.622  2.0359 -1.1456 -1.7287
 2984TIP3    H230368   4.770   0.109   2.631  1.3690  2.1896  1.1843
 2985TIP3   OH230369   0.468   4.832   1.159 -0.0380  0.4230  0.0082
 2985TIP3    H130370   0.486   4.754   1.212 -0.5138  0.2984 -0.0133
 2985TIP3    H230371   0.424   4.891   1.219 -1.6627 -0.1799 -0.5502
 2986TIP3   OH230372   1.479   1.960   6.068 -0.8285 -0.6120 -0.1549
 2986TIP3    H130373   1.563   1.984   6.106 -1.3659 -1.3905  1.6030
 2986TIP3    H230374   1.440   2.044   6.042 -0.3717 -0.0637  0.8846
 2987TIP3   OH230375   3.835   2.471   1.453  0.2631 -0.2007 -0.0376
 2987TIP3    H130376   3.838   2.550   1.399  0.6027  0.4365  0.8905
 2987TIP3    H230377   3.763   2.487   1.514  1.0910 -0.1003  0.9192
 2988TIP3   OH230378   4.254   5.865   5.038  0.2190 -0.1890 -0.6827
 2988TIP3    H130379   4.320   5.935   5.042  0.1636 -0.1631  3.3251
 2988TIP3    H230380   4.305   5.784   5.033  0.5120 -0.0811  0.3897
 2989TIP3   OH230381   5.056   2.707   1.648  0.2913 -0.1830  0.1548
 2989TIP3    H130382   5.010   2.734   1.728  0.6871 -1.3242  0.7915
 2989TIP3    H230383   5.144   2.743   1.657  0.2897 -0.1766  0.1463
 2990TIP3   OH230384   6.623   2.107   4.237 -0.1720 -0.2755 -0.1799
 2990TIP3    H130385   6.595   2.173   4.173 -0.8861  0.2390  0.6481
 2990TIP3    H230386   6.689   2.055   4.190  2.2385  2.4704 -0.1263
 2991TIP3   OH230387   1.457   4.501  15.036 -0.4085  0.0107 -0.0228
 2991TIP3    H130388   1.430   4.446  14.962  2.0243 -0.2479 -0.8168
 2991TIP3    H230389   1.514   4.444  15.088  0.9530  1.2907 -0.0419
 2992TIP3   OH230390   3.930   0.337   2.988  0.1008 -0.4986 -0.0415
 2992TIP3    H130391   3.994   0.373   2.926  0.6780  1.6816  1.6755
 2992TIP3    H230392   3.983   0.288   3.050 -0.1923 -0.7224  0.0317
 2993TIP3   OH230393   3.992   1.354  12.296 -0.8394  0.0577  0.2521
 2993TIP3    H130394   3.966   1.263  12.309 -2.2545  0.2047 -1.0934
 2993TIP3    H230395   3.909   1.399  12.279 -0.2284  1.7273  1.5120
 2994TIP3   OH230396   3.142   6.655  10.381  0.1595 -0.8463  0.3786
 2994TIP3    H130397   3.190   6.733  10.354  0.0048 -0.9141 -0.1028
 2994TIP3    H230398   3.195   6.618  10.452 -0.5728  0.5605  1.7268
 2995TIP3   OH230399   5.294   5.072   3.936 -0.7841 -0.0069  0.2245
 2995TIP3    H130400   5.364   5.008   3.925 -1.1963 -0.3876 -0.2144
 2995TIP3    H230401   5.339   5.153   3.958  0.0020  0.3823 -2.4733
 2996TIP3   OH230402   2.859   1.622   1.686  0.3153  0.3575 -0.3529
 2996TIP3    H130403   2.862   1.580   1.600  1.3198 -1.7080  0.6196
 2996TIP3    H230404   2.775   1.667   1.687  0.7110  1.3431 -2.7809
 2997TIP3   OH230405   1.028   0.797   5.126 -0.0919 -0.1634  0.1829
 2997TIP3    H130406   0.941   0.808   5.087  0.3890  0.1489 -0.8543
 2997TIP3    H230407   1.020   0.835   5.214 -0.6468  1.1745 -0.4123
 2998TIP3   OH230408   3.315   0.981   4.357 -0.1312 -0.0559  0.7340
 2998TIP3    H130409   3.222   0.958   4.363 -0.5101  1.4766  1.0772
 2998TIP3    H230410   3.341   0.952   4.270 -0.2295 -2.8245  1.5259
 2999TIP3   OH230411   6.014   2.810   1.508  0.2215  0.5853 -0.0872
 2999TIP3    H130412   6.065   2.887   1.483 -2.6268  2.1561 -1.5854
 2999TIP3    H230413   5.939   2.844   1.556 -0.1737 -1.4686  0.8910
 3000TIP3   OH230414   2.005   3.260  12.543  0.0014  0.5888 -0.9784
 3000TIP3    H130415   1.980   3.335  12.597 -0.4021  2.5882 -3.7220
 3000TIP3    H230416   2.101   3.261  12.545 -0.0049  0.4894 -0.1639
 3001TIP3   OH230417   6.553   0.866  17.196  0.6518  0.1520 -0.0666
 3001TIP3    H130418   6.628   0.839  17.144  2.7333  0.7606  2.3883
 3001TIP3    H230419   6.505   0.785  17.214  0.5103 -0.2073 -1.9172
 3002TIP3   OH230420   0.191   6.247   5.166 -0.6905 -0.1851  0.1690
 3002TIP3    H130421   0.131   6.318   5.188  0.5165  0.7576  0.5250
 3002TIP3    H230422   0.189   6.243   5.070 -1.4008 -0.2476  0.1824
 3003TIP3   OH230423   6.314   1.990  15.702 -0.0390  0.2656  0.3225
 3003TIP3    H130424   6.292   2.083  15.709 -1.3183 -0.0029  0.1117
 3003TIP3    H230425   6.272   1.950  15.777 -0.8380 -0.3607 -0.4362
 3004TIP3   OH230426   1.641   3.556   3.810  0.0311 -0.1155 -0.6592
 3004TIP3    H130427   1.618   3.649   3.815 -0.3181 -0.2490  0.5869
 3004TIP3    H230428   1.718   3.553   3.753  0.5118  1.0253 -0.0901
 3005TIP3   OH230429   0.268   1.028   0.472  0.2564 -0.2145 -0.3462
 3005TIP3    H130430   0.264   1.117   0.436 -1.4502  0.3329  1.0466
 3005TIP3    H230431   0.189   0.986   0.439 -0.3545 -0.3031  1.1834
 3006TIP3   OH230432   0.823   1.829   0.839  0.1731 -0.7073 -0.3066
 3006TIP3    H130433   0.898   1.889   0.835 -0.2533 -0.2021 -0.7793
 3006TIP3    H230434   0.845   1.759   0.778  0.0502 -0.3102 -0.8131
 3007TIP3   OH230435   2.355   4.843  12.550 -0.1202 -0.4740  0.6362
 3007TIP3    H130436   2.424   4.812  12.608  1.4647 -0.4293 -1.1084
 3007TIP3    H230437   2.351   4.937  12.564  1.2105 -0.2585 -0.2190
 3008TIP3   OH230438   1.353   3.014   2.363 -0.1334 -0.8330  0.0077
 3008TIP3    H130439   1.425   3.021   2.425  0.0062  1.6702 -0.3362
 3008TIP3    H230440   1.305   2.936   2.390 -0.2504  0.2790  3.4478
 3009TIP3   OH230441   6.185   3.106   0.548 -0.0635  0.3080  0.7608
 3009TIP3    H130442   6.171   3.140   0.460 -1.1391  0.4444  0.9799
 3009TIP3    H230443   6.176   3.182   0.606  0.2154  0.1421  1.0296
 3010TIP3   OH230444   5.090   5.130   1.257 -0.8857 -0.1665 -0.2986
 3010TIP3    H130445   5.169   5.099   1.211 -0.5463 -0.9339  0.7679
 3010TIP3    H230446   5.057   5.052   1.302  0.8350  1.1517  3.7113
 3011TIP3   OH230447   3.564   3.868   0.247 -0.3740 -0.3681  0.1009
 3011TIP3    H130448   3.519   3.900   0.324 -2.1644  1.3121 -1.5418
 3011TIP3    H230449   3.506   3.801   0.211  0.8040 -1.6961  0.5485
 3012TIP3   OH230450   2.566   1.330  14.432 -0.1063  0.4861 -0.1794
 3012TIP3    H130451   2.511   1.356  14.358 -0.5158  1.5524  0.4869
 3012TIP3    H230452   2.514   1.263  14.478  0.9717 -1.6899 -1.9179
 3013TIP3   OH230453   3.622   2.114  14.722 -0.0837 -0.6960 -0.5550
 3013TIP3    H130454   3.698   2.148  14.676  0.8167 -0.6988  0.8739
 3013TIP3    H230455   3.604   2.180  14.790 -1.6973 -0.4202 -1.1941
 3014TIP3   OH230456   4.366   3.428  15.454  0.4149 -0.0608  0.0851
 3014TIP3    H130457   4.368   3.523  15.449  0.6039 -0.0520  0.3590
 3014TIP3    H230458   4.359   3.408  15.547  3.1417 -0.3718  0.2978
 3015TIP3   OH230459   4.354   0.220  14.290 -0.9570 -0.2886  0.0211
 3015TIP3    H130460   4.419   0.150  14.281  1.1448  0.9037  3.7171
 3015TIP3    H230461   4.274   0.174  14.317 -0.2475 -1.4654  0.1925
 3016TIP3   OH230462   4.133   2.692   4.930  0.3270 -0.0301 -0.6206
 3016TIP3    H130463   4.132   2.775   4.883  0.7162  1.2911  1.5529
 3016TIP3    H230464   4.042   2.660   4.925 -0.1872  1.2991 -0.2610
 3017TIP3   OH230465   0.599   3.907  14.329  0.5649 -0.7090  0.1265
 3017TIP3    H130466   0.575   3.930  14.240  0.2410 -1.9659 -0.1342
 3017TIP3    H230467   0.527   3.939  14.383  0.7338  0.0041 -0.0675
 3018TIP3   OH230468   0.066   5.701  13.649  0.0221 -0.2099 -0.7359
 3018TIP3    H130469   0.019   5.759  13.589  1.0679 -1.4973 -2.8946
 3018TIP3    H230470   0.152   5.690  13.609  1.3195  0.0473  1.7976
 3019TIP3   OH230471   3.950   3.157   2.291 -0.2600  0.2334  0.0840
 3019TIP3    H130472   4.024   3.145   2.231 -0.0778 -1.0176  0.5154
 3019TIP3    H230473   3.875   3.122   2.244 -0.2897  0.1202  0.2137
 3020TIP3   OH230474   3.559   1.209  17.336  0.0091  0.5465 -0.2915
 3020TIP3    H130475   3.570   1.203  17.241  1.1544 -0.1031 -0.1324
 3020TIP3    H230476   3.604   1.289  17.360  0.2450  0.3946 -0.2252
 3021TIP3   OH230477   5.854   2.992   4.105 -0.3311  0.3032 -0.2406
 3021TIP3    H130478   5.834   2.972   4.013 -0.6648  0.5509 -0.2217
 3021TIP3    H230479   5.769   2.994   4.149 -0.2622  1.1567 -0.1260
 3022TIP3   OH230480   2.163   4.497   4.851 -0.1146  0.4316 -0.0743
 3022TIP3    H130481   2.176   4.591   4.867  1.0640  0.1810  0.5384
 3022TIP3    H230482   2.208   4.454   4.924  0.8775 -0.6307 -1.2689
 3023TIP3   OH230483   4.264   5.876   1.782  0.4146 -0.1967 -0.0289
 3023TIP3    H130484   4.312   5.957   1.797  2.6112 -1.1449 -1.3704
 3023TIP3    H230485   4.264   5.832   1.867 -0.0764  0.8127  0.5108
 3024TIP3   OH230486   1.791   3.171   6.652 -0.3966 -0.0605 -0.3717
 3024TIP3    H130487   1.731   3.244   6.663 -1.4113 -1.1750  2.2974
 3024TIP3    H230488   1.844   3.171   6.732 -0.1641 -2.0094 -0.4751
 3025TIP3   OH230489   1.279   4.125  14.050 -0.0081  0.1181 -0.3638
 3025TIP3    H130490   1.191   4.139  14.083 -0.5222 -0.7172 -1.3395
 3025TIP3    H230491   1.336   4.137  14.127 -0.7953  2.3624 -0.0895
 3026TIP3   OH230492   2.485   2.693  13.665  0.0044 -0.2814  0.0637
 3026TIP3    H130493   2.553   2.659  13.723  0.9402  1.3196 -0.0131
 3026TIP3    H230494   2.531   2.710  13.582 -0.7915 -0.3836 -0.4066
 3027TIP3   OH230495   3.811   5.981  10.530 -0.2892 -0.4700  0.0417
 3027TIP3    H130496   3.741   6.009  10.471 -0.6238 -0.0338  0.6316
 3027TIP3    H230497   3.784   6.013  10.616  0.7876 -0.0100  0.2273
 3028TIP3   OH230498   1.308   0.675   1.147  0.8007 -0.5027 -0.5156
 3028TIP3    H130499   1.346   0.711   1.066 -1.4090  1.6238 -0.7134
 3028TIP3    H230500   1.229   0.629   1.117  1.7975 -2.7704  0.1360
 3029TIP3   OH230501   3.645   6.515   1.590  0.0892  0.4157 -0.1669
 3029TIP3    H130502   3.676   6.453   1.657 -0.8494 -0.3293 -0.3971
 3029TIP3    H230503   3.703   6.590   1.598  4.0805 -2.0424 -2.5851
 3030TIP3   OH230504   2.853   3.924   3.487 -0.2833 -0.4164 -0.1773
 3030TIP3    H130505   2.840   3.958   3.398 -0.1230  0.1089 -0.0030
 3030TIP3    H230506   2.816   3.836   3.485 -1.5853  0.1131 -0.3772
 3031TIP3   OH230507   2.623   0.345   5.007 -0.0472 -0.3380  0.2400
 3031TIP3    H130508   2.604   0.410   4.939 -0.3243 -1.1623 -0.4936
 3031TIP3    H230509   2.537   0.309   5.031 -0.0480  0.6095  1.7201
 3032TIP3   OH230510   0.456   1.701  16.843  0.1595 -0.5262  0.2297
 3032TIP3    H130511   0.448   1.606  16.830  0.3211 -0.2598 -2.3446
 3032TIP3    H230512   0.370   1.735  16.822  0.2913 -0.0438  0.4678
 3033TIP3   OH230513   5.327   3.637  11.581  0.1886 -0.6088 -0.0713
 3033TIP3    H130514   5.315   3.622  11.487 -0.6078 -1.3642  0.1307
 3033TIP3    H230515   5.359   3.553  11.615 -0.8628 -0.7813  0.5390
 3034TIP3   OH230516   5.807   6.678   2.255  0.0314  0.6692  0.1227
 3034TIP3    H130517   5.876   6.614   2.235 -1.7029 -1.5350  0.8746
 3034TIP3    H230518   5.744   6.668   2.184  0.0246  2.0948 -0.1120
 3035TIP3   OH230519   0.085   3.379  11.782 -0.4534 -0.0556 -0.3171
 3035TIP3    H130520   0.116   3.304  11.730  0.0851 -0.3238  0.3880
 3035TIP3    H230521   0.044   3.339  11.859 -1.9206  0.3187 -0.8722
 3036TIP3   OH230522   5.231   2.918  13.430 -0.0958  0.3358 -0.0640
 3036TIP3    H130523   5.308   2.888  13.478 -1.3115 -0.6145  1.3726
 3036TIP3    H230524   5.265   2.942  13.343  1.5617 -1.7030 -0.0611
 3037TIP3   OH230525   4.616   6.142  15.704  0.1335 -0.1168 -0.0847
 3037TIP3    H130526   4.593   6.215  15.646  2.6312  0.4074 -0.5135
 3037TIP3    H230527   4.590   6.064  15.655 -1.1955  0.3974 -0.2574
 3038TIP3   OH230528   5.074   6.369   4.525  0.1670  0.3927  0.0734
 3038TIP3    H130529   5.028   6.453   4.538 -0.5352  0.1582 -0.7851
 3038TIP3    H230530   5.005   6.303   4.532  0.5909 -0.0602 -0.0075
 3039TIP3   OH230531   1.960   0.594  12.818  0.2074 -0.1091  0.7025
 3039TIP3    H130532   1.985   0.679  12.784  1.8431 -1.1710 -0.9511
 3039TIP3    H230533   1.866   0.601  12.834 -0.0969  1.3930 -1.3366
 3040TIP3   OH230534   1.003   1.741  13.630  0.5491  0.0641 -0.1040
 3040TIP3    H130535   1.062   1.796  13.682  1.8184 -0.5993 -0.7767
 3040TIP3    H230536   0.916   1.761  13.663  1.2055  0.5813  1.4079
 3041TIP3   OH230537   0.296   2.960   3.453  0.4292  0.0239 -0.1015
 3041TIP3    H130538   0.256   3.043   3.427  0.1046 -0.5243 -1.4628
 3041TIP3    H230539   0.224   2.898   3.454  0.6350 -0.2135  1.1092
 3042TIP3   OH230540   0.731   6.690  11.950  0.1766 -0.2581  0.8295
 3042TIP3    H130541   0.776   6.775  11.953  0.7994 -0.5846  0.9686
 3042TIP3    H230542   0.800   6.627  11.969 -0.3795 -0.7614  1.1875
 3043TIP3   OH230543   1.635   0.434   1.803  0.4756  0.6992  0.7934
 3043TIP3    H130544   1.583   0.381   1.865 -1.0904  1.0274 -0.1927
 3043TIP3    H230545   1.643   0.378   1.726 -1.2009  1.8154 -0.2622
 3044TIP3   OH230546   2.318   0.599  12.059 -0.2530  0.0590  0.1609
 3044TIP3    H130547   2.381   0.561  12.121 -0.4642  0.1341  0.4240
 3044TIP3    H230548   2.282   0.523  12.013 -0.0003  0.0131  0.0395
 3045TIP3   OH230549   6.445   0.793  15.550 -0.2930  0.0499 -0.1507
 3045TIP3    H130550   6.475   0.749  15.470 -0.8361 -0.8451  0.1196
 3045TIP3    H230551   6.487   0.744  15.621  0.2576  0.8960  0.1158
 3046TIP3   OH230552   1.667   4.723  13.408 -0.1560 -0.3024  0.2143
 3046TIP3    H130553   1.595   4.777  13.439  0.2590  0.7754 -0.6478
 3046TIP3    H230554   1.741   4.783  13.399  0.4363 -1.0872 -0.3713
 3047TIP3   OH230555   3.741   0.484  15.906  0.4354 -0.4098  0.1866
 3047TIP3    H130556   3.780   0.545  15.968  0.0314  0.1713 -0.1245
 3047TIP3    H230557   3.771   0.514  15.820 -0.5852 -0.0359 -0.0457
 3048TIP3   OH230558   1.965   2.017  16.744  0.5133 -0.2103 -0.4048
 3048TIP3    H130559   2.010   1.941  16.707  1.0573 -1.5243  2.5782
 3048TIP3    H230560   1.873   2.005  16.719  0.9711 -0.4267 -2.0844
 3049TIP3   OH230561   3.565   3.609  14.835 -0.4092 -0.1997 -0.5592
 3049TIP3    H130562   3.587   3.683  14.779  0.1825 -1.6452 -2.3598
 3049TIP3    H230563   3.649   3.564  14.849 -0.3029  0.7284  2.5545
 3050TIP3   OH230564   0.823   2.250   0.932 -0.3479  0.0555  0.0641
 3050TIP3    H130565   0.854   2.269   1.021  1.2738  0.9454 -0.6469
 3050TIP3    H230566   0.845   2.158   0.918  1.3017  0.4377 -0.1064
 3051TIP3   OH230567   6.677   5.030   5.238 -0.0878  0.1399  0.0347
 3051TIP3    H130568   6.753   5.031   5.180  0.2118 -0.3844  0.4101
 3051TIP3    H230569   6.679   5.116   5.280 -1.0443  1.0330 -1.6413
 3052TIP3   OH230570   5.775   3.583   0.893 -0.0183 -0.2580  1.1811
 3052TIP3    H130571   5.860   3.619   0.917 -1.0281  1.5569  2.1849
 3052TIP3    H230572   5.785   3.488   0.904  1.7953 -0.0608  1.4373
 3053TIP3   OH230573   3.813   0.465   0.658  0.1362 -0.2791  0.3196
 3053TIP3    H130574   3.825   0.378   0.621  0.6436 -0.6191  1.2548
 3053TIP3    H230575   3.727   0.462   0.700 -0.6188  0.2308 -1.1108
 3054TIP3   OH230576   0.615   4.379  12.741 -0.3382 -0.4510  0.1409
 3054TIP3    H130577   0.635   4.340  12.656 -0.5330  1.0627 -0.6435
 3054TIP3    H230578   0.696   4.370  12.791 -0.8165 -3.1907  0.6039
 3055TIP3   OH230579   3.695   6.231   0.468  0.2559 -0.2482 -0.0325
 3055TIP3    H130580   3.681   6.299   0.534  0.2184 -0.7321  0.4671
 3055TIP3    H230581   3.616   6.177   0.472  0.0132  0.0323 -0.8613
 3056TIP3   OH230582   2.850   5.419  15.634  0.2727 -0.1476  0.4728
 3056TIP3    H130583   2.903   5.342  15.617 -0.3793 -0.2748 -1.1878
 3056TIP3    H230584   2.852   5.469  15.552  2.5243  2.8098  2.1327
 3057TIP3   OH230585   2.726   4.280   4.366  0.8223  0.4240 -0.8591
 3057TIP3    H130586   2.778   4.307   4.290  2.5750 -0.4803 -0.0602
 3057TIP3    H230587   2.784   4.220   4.414  0.6200  2.4645  2.2484
 3058TIP3   OH230588   3.698   4.968  17.320 -0.5689 -0.3245 -0.3415
 3058TIP3    H130589   3.697   4.873  17.306 -1.2049 -0.5704  1.2006
 3058TIP3    H230590   3.607   4.991  17.339 -0.2053  0.3549  0.6862
 3059TIP3   OH230591   2.736   5.883  16.552 -0.0086  0.4473  0.1601
 3059TIP3    H130592   2.735   5.842  16.466  0.8472  1.9330 -0.5919
 3059TIP3    H230593   2.810   5.843  16.597 -0.6672 -0.5863  0.3666
 3060TIP3   OH230594   3.844   2.706   5.175 -0.5391 -0.0083 -0.2284
 3060TIP3    H130595   3.893   2.789   5.172 -0.0164 -0.3232 -0.6350
 3060TIP3    H230596   3.779   2.714   5.106 -2.0213  0.9770  1.2131
 3061TIP3   OH230597   3.754   0.683  10.634  0.3876 -0.1254 -0.0805
 3061TIP3    H130598   3.658   0.679  10.624  0.4878  0.5821 -1.8189
 3061TIP3    H230599   3.772   0.775  10.652  0.8248  0.0498 -1.3132
 3062TIP3   OH230600   5.880   5.065   2.131  0.0093 -0.3391  0.0842
 3062TIP3    H130601   5.899   5.145   2.081 -0.5255  0.5211  1.2122
 3062TIP3    H230602   5.855   5.001   2.064  0.2903  0.4816 -0.8344
 3063TIP3   OH230603   0.551   1.629  10.896  0.3131 -0.3714 -0.0019
 3063TIP3    H130604   0.598   1.644  10.814  0.6088  0.6394  0.3385
 3063TIP3    H230605   0.496   1.707  10.906  0.4377 -0.3873  0.8628
 3064TIP3   OH230606   4.258   2.559   0.609  0.6715 -0.3423  0.2017
 3064TIP3    H130607   4.212   2.503   0.546  2.3261 -1.2390 -0.2837
 3064TIP3    H230608   4.305   2.498   0.666  1.6974  0.5042  0.3079
 3065TIP3   OH230609   3.911   6.280   0.895 -0.5932 -0.0605 -0.6198
 3065TIP3    H130610   3.869   6.203   0.855  0.5750 -0.9205 -0.2437
 3065TIP3    H230611   3.908   6.262   0.989 -0.4917  0.4583 -0.5158
 3066TIP3   OH230612   0.360   1.348  17.313  0.1691  0.5125  0.0251
 3066TIP3    H130613   0.267   1.325  17.315 -0.6535  3.2683  3.5939
 3066TIP3    H230614   0.366   1.418  17.248 -0.3652  0.6347  0.1007
 3067TIP3   OH230615   1.936   6.064   0.949  0.3536  0.0743 -0.0846
 3067TIP3    H130616   1.867   6.079   1.013  1.1515 -0.2429  0.8698
 3067TIP3    H230617   1.896   6.088   0.865 -1.0298 -0.4656  0.3873
 3068TIP3   OH230618   1.108   5.367   5.167 -0.2461  0.4889  0.2670
 3068TIP3    H130619   1.157   5.444   5.196 -1.0786  1.5702 -1.0427
 3068TIP3    H230620   1.115   5.369   5.071 -0.8760 -0.6630  0.1803
 3069TIP3   OH230621   1.021   4.306   2.448 -0.2216  0.1233  0.1669
 3069TIP3    H130622   1.030   4.325   2.354  0.2850 -1.0162 -0.0305
 3069TIP3    H230623   0.983   4.386   2.485 -2.7875 -0.2846 -1.3893
 3070TIP3   OH230624   2.474   3.071   3.932  0.0256 -0.0158 -0.5044
 3070TIP3    H130625   2.449   3.074   3.840 -1.3558 -0.6226 -0.1759
 3070TIP3    H230626   2.439   2.988   3.964  0.3446  0.2562  0.6033
 3071TIP3   OH230627   0.254   2.048  11.770 -0.1487  0.4182  0.1727
 3071TIP3    H130628   0.165   2.071  11.743  0.4328  0.6421 -1.6529
 3071TIP3    H230629   0.310   2.087  11.704  1.4230  1.2128  1.8806
 3072TIP3   OH230630   6.397   6.409  15.997 -0.3356 -0.0541 -0.3759
 3072TIP3    H130631   6.436   6.351  15.931 -0.3698 -0.3572 -0.1333
 3072TIP3    H230632   6.465   6.474  16.014 -0.4210  0.1826 -0.8959
 3073TIP3   OH230633   3.947   1.679   2.873  0.3459 -0.0676  0.2079
 3073TIP3    H130634   3.997   1.687   2.792  1.0956 -0.7017  0.5934
 3073TIP3    H230635   3.989   1.740   2.933  1.6968 -1.6854  1.0124
 3074TIP3   OH230636   5.692   1.858  16.937  0.4410  0.1349  0.4184
 3074TIP3    H130637   5.696   1.771  16.976 -0.3436  0.0365  0.3053
 3074TIP3    H230638   5.606   1.861  16.894  0.7643  0.6954 -0.2091
 3075TIP3   OH230639   1.057   6.381   4.181  0.1424  0.1633 -0.1025
 3075TIP3    H130640   1.052   6.426   4.096  2.0122  0.4699 -0.0840
 3075TIP3    H230641   1.082   6.450   4.243 -0.3617 -0.2382  0.5637
 3076TIP3   OH230642   3.305   5.381  16.012  0.1217  1.0020  0.5827
 3076TIP3    H130643   3.399   5.362  16.015  0.3821  2.0654 -0.1521
 3076TIP3    H230644   3.265   5.298  15.986  0.8936  0.6260  0.5660
 3077TIP3   OH230645   4.477   3.674  13.568  0.1806  0.1808 -0.6648
 3077TIP3    H130646   4.518   3.724  13.639 -1.1577 -0.3784  0.5694
 3077TIP3    H230647   4.510   3.714  13.488  1.7230  0.8680  0.2624
 3078TIP3   OH230648   2.374   2.153   5.686  0.3252 -0.2973 -0.3496
 3078TIP3    H130649   2.309   2.126   5.622  0.6777 -1.2387 -0.3203
 3078TIP3    H230650   2.425   2.221   5.641 -0.8285  0.6611 -0.2743
 3079TIP3   OH230651   6.253   2.700   0.089 -0.5815 -0.3911 -0.1757
 3079TIP3    H130652   6.236   2.671   0.178 -0.0416  1.5096  0.5815
 3079TIP3    H230653   6.340   2.664   0.069  0.6125  1.5382  1.1920
 3080TIP3   OH230654   5.000   1.179   4.671 -0.1950  0.1878  0.2738
 3080TIP3    H130655   4.906   1.179   4.649  0.3083 -0.6174 -2.1826
 3080TIP3    H230656   5.026   1.271   4.663 -0.7227  0.3831  0.7258
 3081TIP3   OH230657   0.349   4.390   0.891 -0.0375 -0.5096 -0.3989
 3081TIP3    H130658   0.261   4.378   0.927  0.3716 -0.0674  0.8100
 3081TIP3    H230659   0.337   4.443   0.813 -0.7150  0.8199  0.5750
 3082TIP3   OH230660   1.903   2.672  13.422  0.4356 -0.1982 -0.1564
 3082TIP3    H130661   1.954   2.592  13.414  0.6335  0.0132 -1.2227
 3082TIP3    H230662   1.950   2.725  13.486  0.1666 -1.0268  0.7393
 3083TIP3   OH230663   2.088   4.267   6.100  0.2612 -0.2231  0.6972
 3083TIP3    H130664   2.113   4.205   6.168  0.1875 -1.6668 -0.5175
 3083TIP3    H230665   2.128   4.350   6.126  3.4138 -1.5737  0.6716
 3084TIP3   OH230666   3.721   3.865   3.545  0.1831  0.2069 -0.5863
 3084TIP3    H130667   3.668   3.788   3.524  1.0855 -0.6872  0.3033
 3084TIP3    H230668   3.662   3.939   3.528 -0.2117 -0.5575 -2.9324
 3085TIP3   OH230669   5.010   2.047  13.629  0.3263 -0.3551  0.0155
 3085TIP3    H130670   4.941   2.082  13.572 -1.1388  0.9076  2.3731
 3085TIP3    H230671   4.978   1.961  13.655 -1.0747  0.6929  2.0356
 3086TIP3   OH230672   4.409   2.225   0.334 -0.0584 -0.2484 -0.4547
 3086TIP3    H130673   4.454   2.208   0.417  3.0054  4.1098 -0.8597
 3086TIP3    H230674   4.332   2.276   0.359 -0.4776 -0.9822 -0.2119
 3087TIP3   OH230675   3.773   4.045   6.191  0.1820 -0.3985 -0.1996
 3087TIP3    H130676   3.868   4.049   6.179 -0.0768 -0.3521 -2.9040
 3087TIP3    H230677   3.738   4.112   6.132 -1.5604 -0.4905  0.6486
 3088TIP3   OH230678   5.237   5.439   5.786  0.2029 -0.3980  0.1250
 3088TIP3    H130679   5.219   5.471   5.697 -1.0758  0.3206  0.6137
 3088TIP3    H230680   5.206   5.348   5.784 -1.0340  0.0048  0.1781
 3089TIP3   OH230681   3.260   2.644   3.619 -0.3257  0.2407 -0.0097
 3089TIP3    H130682   3.218   2.645   3.705 -0.7103  0.3307 -0.1958
 3089TIP3    H230683   3.249   2.554   3.588  1.4318 -0.2948  0.8115
 3090TIP3   OH230684   3.242   2.796  12.205 -0.3417 -0.3506  0.1334
 3090TIP3    H130685   3.191   2.862  12.158  0.7026  0.6069  0.2795
 3090TIP3    H230686   3.293   2.752  12.137 -2.5538 -2.5111 -0.2504
 3091TIP3   OH230687   0.830   0.358   3.167  0.2364  0.0286  0.6014
 3091TIP3    H130688   0.805   0.266   3.162 -0.7451  0.2952  0.5393
 3091TIP3    H230689   0.809   0.393   3.080 -2.3864  1.0419  1.5712
 3092TIP3   OH230690   1.878   5.026  13.554 -0.5152  0.3802 -0.1474
 3092TIP3    H130691   1.821   4.987  13.621  1.3569  1.1181  1.9996
 3092TIP3    H230692   1.961   4.979  13.563 -0.0096  0.9436 -1.5567
 3093TIP3   OH230693   1.633   3.505  14.084 -0.4885 -0.2115  0.5132
 3093TIP3    H130694   1.656   3.510  13.991 -1.3765  0.5012  0.3161
 3093TIP3    H230695   1.569   3.575  14.096 -1.0194 -0.8463  1.4755
 3094TIP3   OH230696   0.039   5.913   4.996 -0.4624  0.0986 -0.1668
 3094TIP3    H130697   0.005   5.963   5.070  1.3326  2.0846 -0.6078
 3094TIP3    H230698   0.022   5.968   4.919 -1.1601 -1.3593 -1.1065
 3095TIP3   OH230699   1.144   1.112  14.798 -0.3872  0.1018 -0.0931
 3095TIP3    H130700   1.079   1.042  14.796  0.4328 -0.6858 -1.5147
 3095TIP3    H230701   1.203   1.091  14.725  2.5520 -0.2881  2.2096
 3096TIP3   OH230702   5.296   1.655  16.578  0.1078  0.1849  0.1814
 3096TIP3    H130703   5.273   1.715  16.507 -1.6503  0.2446  0.7670
 3096TIP3    H230704   5.213   1.616  16.604  0.7725 -0.1184  1.9602
 3097TIP3   OH230705   1.050   6.246  14.541 -0.0173 -0.2327  0.0681
 3097TIP3    H130706   1.064   6.226  14.448 -0.8549 -1.3727  0.1713
 3097TIP3    H230707   1.135   6.279  14.571  0.2485  0.2111 -1.1094
 3098TIP3   OH230708   3.383   2.110   2.179 -0.4051 -0.3348  0.1480
 3098TIP3    H130709   3.317   2.142   2.240 -0.8294  0.3092 -0.6344
 3098TIP3    H230710   3.363   2.017   2.168 -0.3024 -0.4610  1.0142
 3099TIP3   OH230711   2.656   0.616   1.194 -0.1470  0.3338  0.0045
 3099TIP3    H130712   2.731   0.559   1.178  0.2777  1.0858 -0.7653
 3099TIP3    H230713   2.675   0.659   1.277 -0.4555 -0.6035  0.5747
 3100TIP3   OH230714   5.292   5.843   4.005  0.3131 -0.4386  0.1648
 3100TIP3    H130715   5.301   5.892   3.923  0.6228 -0.6009  0.1029
 3100TIP3    H230716   5.200   5.817   4.007  0.4987 -1.1894 -0.5585
 3101TIP3   OH230717   3.090   5.449   4.912  0.0328 -0.2532  0.2254
 3101TIP3    H130718   3.080   5.544   4.907  0.8589 -0.2292 -1.4790
 3101TIP3    H230719   3.157   5.435   4.980 -0.1727  0.3580  0.5596
 3102TIP3   OH230720   2.974   3.675   1.147 -0.2837  0.2028  0.5802
 3102TIP3    H130721   2.908   3.741   1.127 -1.3596 -0.8372  0.6097
 3102TIP3    H230722   2.924   3.600   1.179  0.9417 -0.4822  0.9420
 3103TIP3   OH230723   3.514   6.354  13.187 -0.1278 -0.1768 -0.2627
 3103TIP3    H130724   3.475   6.439  13.206  1.4674  0.2998  1.1301
 3103TIP3    H230725   3.550   6.363  13.099  0.2427  0.6831 -0.0324
 3104TIP3   OH230726   2.127   0.597  15.852  0.4114  0.4963 -0.0691
 3104TIP3    H130727   2.222   0.602  15.865  0.1120  1.4978  2.1462
 3104TIP3    H230728   2.100   0.688  15.835 -0.3716  0.5677  1.4037
 3105TIP3   OH230729   6.333   1.261   2.824  0.3995  0.0460 -0.2189
 3105TIP3    H130730   6.416   1.223   2.853  1.4619  1.4639 -1.2619
 3105TIP3    H230731   6.280   1.267   2.903  0.2233 -3.3309  0.0632
 3106TIP3   OH230732   2.129   5.332   4.883  0.3631 -0.0679  0.4718
 3106TIP3    H130733   2.092   5.266   4.824 -1.5121  1.5907 -0.3452
 3106TIP3    H230734   2.094   5.415   4.850  2.9790  1.4188  1.1679
 3107TIP3   OH230735   0.133   4.248   5.159 -0.2201  0.3191 -0.1438
 3107TIP3    H130736   0.114   4.180   5.223 -0.6108  0.8389  0.2959
 3107TIP3    H230737   0.072   4.318   5.180  1.1499  1.4050  0.3292
 3108TIP3   OH230738   3.644   1.782  13.158 -0.1356  0.5727 -0.0454
 3108TIP3    H130739   3.688   1.706  13.119 -0.9005  0.3817 -0.5542
 3108TIP3    H230740   3.614   1.750  13.243 -0.1695  0.4073 -0.1186
 3109TIP3   OH230741   2.769   4.993   4.703  0.5048 -0.0800 -0.0809
 3109TIP3    H130742   2.851   5.036   4.676 -0.5966  2.8268  0.8385
 3109TIP3    H230743   2.700   5.047   4.665 -1.0017 -0.7641  1.5611
 3110TIP3   OH230744   4.301   3.534  14.756  0.6186 -0.0765 -0.6277
 3110TIP3    H130745   4.273   3.494  14.673 -0.9277  0.0138 -0.1788
 3110TIP3    H230746   4.314   3.460  14.815  0.3913 -0.0745 -0.5723
 3111TIP3   OH230747   3.561   6.486  16.384 -0.4596 -0.4151 -0.1346
 3111TIP3    H130748   3.593   6.477  16.295 -2.2414 -1.5885 -0.7189
 3111TIP3    H230749   3.554   6.581  16.398  2.1244 -0.1275 -0.2979
 3112TIP3   OH230750   5.277   4.693  13.106  0.5564 -0.7957  0.0607
 3112TIP3    H130751   5.330   4.631  13.056 -0.1629 -1.1279 -0.3037
 3112TIP3    H230752   5.199   4.643  13.132  0.0448 -0.0982 -0.0977
 3113TIP3   OH230753   2.407   2.158   2.237 -0.1871 -0.0503 -0.2671
 3113TIP3    H130754   2.479   2.221   2.237  0.9595 -1.3118  0.5273
 3113TIP3    H230755   2.328   2.211   2.223  0.8183  1.4400 -0.4558
 3114TIP3   OH230756   3.626   5.897  11.219  0.4327  0.0945 -0.0687
 3114TIP3    H130757   3.679   5.974  11.200  1.4189 -0.2278  1.2150
 3114TIP3    H230758   3.541   5.915  11.178  0.9391  1.4405 -0.5809
 3115TIP3   OH230759   6.314   0.148   4.599  0.0053  0.2805  0.5307
 3115TIP3    H130760   6.256   0.221   4.622 -1.0821 -0.6261  0.7618
 3115TIP3    H230761   6.389   0.157   4.658 -0.5950  0.6266  1.2583
 3116TIP3   OH230762   6.455   6.517  14.002  0.0276  0.3099  0.1100
 3116TIP3    H130763   6.504   6.484  14.077 -0.1296  0.5809  0.3326
 3116TIP3    H230764   6.504   6.594  13.974  0.6521 -0.3492 -0.6907
 3117TIP3   OH230765   0.253   6.589   2.477  0.2591  0.1450 -0.4976
 3117TIP3    H130766   0.278   6.565   2.566 -1.6077  2.2532  0.7013
 3117TIP3    H230767   0.260   6.684   2.475 -2.3347  0.3885 -1.7141
 3118TIP3   OH230768   1.366   3.223  15.191  0.5199  0.0005 -0.3527
 3118TIP3    H130769   1.434   3.203  15.255  0.4086  0.5268 -0.0636
 3118TIP3    H230770   1.330   3.138  15.167  0.1633 -0.1707  0.7193
 3119TIP3   OH230771   2.412   5.825  12.643 -0.0961  0.7166  0.3274
 3119TIP3    H130772   2.340   5.766  12.665  1.5233 -1.4669  0.1417
 3119TIP3    H230773   2.437   5.865  12.727 -0.2681 -0.0424  0.7540
 3120TIP3   OH230774   4.838   3.379   4.296 -0.1090  0.0953  0.0376
 3120TIP3    H130775   4.820   3.453   4.355  0.4990 -0.1496  0.5424
 3120TIP3    H230776   4.811   3.410   4.210  0.0059  0.8629  0.2681
 3121TIP3   OH230777   2.303   0.803   0.651  0.1546  0.0348  0.1900
 3121TIP3    H130778   2.208   0.795   0.639  0.2825 -0.5454 -0.5067
 3121TIP3    H230779   2.340   0.757   0.576  0.9913 -0.3450  0.8302
 3122TIP3   OH230780   0.317   1.603  14.030 -0.6964 -0.2892  0.2104
 3122TIP3    H130781   0.286   1.592  13.940  0.5773  1.8657 -0.5738
 3122TIP3    H230782   0.413   1.602  14.022 -0.5736 -0.1803  1.5419
 3123TIP3   OH230783   0.176   0.628   6.583 -0.5542  0.2374 -0.1936
 3123TIP3    H130784   0.089   0.636   6.623 -0.6622  0.1081 -0.3967
 3123TIP3    H230785   0.183   0.535   6.560  0.4888 -0.1879  1.7115
 3124TIP3   OH230786   3.991   4.445   4.283 -0.0019 -0.0381 -0.1586
 3124TIP3    H130787   4.067   4.453   4.341 -0.3203 -0.7453  0.3857
 3124TIP3    H230788   3.992   4.353   4.255 -0.6923 -0.0800 -0.0725
 3125TIP3   OH230789   3.675   4.338  11.393  0.1258 -0.2737 -1.4142
 3125TIP3    H130790   3.745   4.333  11.327 -1.6474 -1.3917 -3.3536
 3125TIP3    H230791   3.617   4.265  11.370 -0.4373 -0.8933  1.6312
 3126TIP3   OH230792   3.825   0.602  12.606  0.2152  0.0612 -0.1093
 3126TIP3    H130793   3.762   0.648  12.551 -1.2764 -0.0913  1.4113
 3126TIP3    H230794   3.853   0.527  12.553 -0.8956  0.1119 -0.7951
 3127TIP3   OH230795   5.157   6.434  12.995  0.3394 -0.2219  0.4396
 3127TIP3    H130796   5.209   6.401  13.068 -2.9436  0.6002  3.4157
 3127TIP3    H230797   5.193   6.521  12.977  1.3736 -0.5553  0.8618
 3128TIP3   OH230798   5.058   4.064  12.632  0.3408  0.2671  0.2532
 3128TIP3    H130799   5.042   4.000  12.701 -1.5071  2.8489  2.4276
 3128TIP3    H230800   4.987   4.050  12.569 -1.5412  1.6006  1.9539
 3129TIP3   OH230801   0.218   4.367   4.078 -0.5379 -0.2456 -0.6557
 3129TIP3    H130802   0.263   4.421   4.143 -0.7529  1.0357 -1.5282
 3129TIP3    H230803   0.132   4.350   4.116 -0.1509 -0.7436  0.0128
 3130TIP3   OH230804   2.076   4.933   3.303  0.1965  0.7556 -0.5425
 3130TIP3    H130805   2.159   4.966   3.337 -0.2427  0.3693  0.9545
 3130TIP3    H230806   2.061   4.984   3.223  1.3371  1.5704 -0.2638
 3131TIP3   OH230807   1.509   4.258  17.112  0.1128  0.1221 -0.5395
 3131TIP3    H130808   1.537   4.350  17.110 -0.1237  0.2218  0.3788
 3131TIP3    H230809   1.419   4.262  17.144  0.1528 -0.4468 -0.3501
 3132TIP3   OH230810   3.405   5.951  17.375  0.5331  0.4438  0.0256
 3132TIP3    H130811   3.316   5.933  17.405  0.8479 -0.5909  0.4112
 3132TIP3    H230812   3.410   6.046  17.367 -0.7864  0.4841 -0.5778
 3133TIP3   OH230813   4.398   0.042   3.555 -0.3645  0.3005 -0.2942
 3133TIP3    H130814   4.436   0.129   3.565  0.1407  0.2709 -1.6995
 3133TIP3    H230815   4.311   0.058   3.519 -0.1728  0.2232 -0.7994
 3134TIP3   OH230816   4.616   6.194  17.169 -0.4525 -0.2759  0.8752
 3134TIP3    H130817   4.565   6.190  17.088  0.4855  2.3733  0.0271
 3134TIP3    H230818   4.701   6.157  17.144  0.4170  2.0882  0.0290
 3135TIP3   OH230819   2.089   6.200  12.683 -0.2106 -0.5497  0.0704
 3135TIP3    H130820   2.095   6.136  12.612 -1.9187  1.0700 -1.6875
 3135TIP3    H230821   2.153   6.268  12.660  0.5450 -0.9000  1.1098
 3136TIP3   OH230822   1.066   0.474   1.273 -0.3398 -0.5503  0.4317
 3136TIP3    H130823   1.150   0.457   1.316 -0.0230  0.7990  0.3910
 3136TIP3    H230824   1.076   0.437   1.186  0.3171 -0.1858  0.3436
 3137TIP3   OH230825   5.275   2.215   3.200 -0.0852 -0.2181 -0.1172
 3137TIP3    H130826   5.254   2.132   3.242 -0.2849 -0.0883  0.0390
 3137TIP3    H230827   5.265   2.280   3.269 -0.2940 -0.0188 -0.3338
 3138TIP3   OH230828   0.687   5.558   3.499 -0.0575 -0.6127  0.2389
 3138TIP3    H130829   0.752   5.488   3.510  0.3238 -0.1258  1.2450
 3138TIP3    H230830   0.713   5.624   3.563 -0.4246  0.4493 -0.6816
 3139TIP3   OH230831   4.299   0.946  12.409 -0.1115 -0.2064 -0.7824
 3139TIP3    H130832   4.225   0.978  12.358 -0.0022 -1.7098 -1.9606
 3139TIP3    H230833   4.302   0.852  12.390  0.4482 -0.6756  1.3695
 3140TIP3   OH230834   0.532   1.946   4.279  0.0870  0.5921 -0.1887
 3140TIP3    H130835   0.577   2.022   4.243 -0.8910 -0.0318 -2.9853
 3140TIP3    H230836   0.568   1.872   4.230 -0.1956 -0.5637  1.2840
 3141TIP3   OH230837   5.130   2.566  15.344 -0.3534  0.1964  0.5386
 3141TIP3    H130838   5.143   2.635  15.409  0.3908 -0.4428  1.0837
 3141TIP3    H230839   5.152   2.608  15.260  3.1742 -0.1552  1.1553
 3142TIP3   OH230840   4.916   0.831   6.016 -0.0392  0.7546  0.1700
 3142TIP3    H130841   4.849   0.803   5.954  0.7147 -0.5534 -0.1138
 3142TIP3    H230842   4.884   0.802   6.101 -0.2583  0.9641  0.1599
 3143TIP3   OH230843   0.193   0.135   4.531  0.6073 -0.1719  0.3855
 3143TIP3    H130844   0.161   0.081   4.459  1.2792 -1.0163  0.6859
 3143TIP3    H230845   0.200   0.223   4.495  0.3022 -0.4515 -0.3790
 3144TIP3   OH230846   3.456   3.459   4.827  0.3791 -0.2897  0.3397
 3144TIP3    H130847   3.431   3.450   4.919 -0.6457  1.8340  0.3153
 3144TIP3    H230848   3.527   3.523   4.827  1.3358 -1.3082 -0.2504
 3145TIP3   OH230849   5.408   2.841   2.500  0.3527 -0.1997 -0.2086
 3145TIP3    H130850   5.336   2.901   2.485 -0.2282 -1.0609 -0.9793
 3145TIP3    H230851   5.444   2.824   2.413  1.9770  0.7842  0.2311
 3146TIP3   OH230852   4.274   3.093   4.091 -0.0824  0.0171  0.2453
 3146TIP3    H130853   4.234   3.178   4.111 -1.9242 -0.1696 -2.1068
 3146TIP3    H230854   4.224   3.030   4.143 -1.1700  0.0572 -0.7119
 3147TIP3   OH230855   3.850   4.084  11.284 -0.5763  0.0846 -0.4311
 3147TIP3    H130856   3.866   4.014  11.221 -2.1538 -0.4161 -0.3327
 3147TIP3    H230857   3.821   4.039  11.363 -2.2658  0.8364 -0.5759
 3148TIP3   OH230858   2.483   3.276   2.318  0.2169 -0.8264  0.2912
 3148TIP3    H130859   2.477   3.323   2.235 -1.5100  2.2497  1.9900
 3148TIP3    H230860   2.577   3.278   2.340  0.1736  2.7195  0.6481
 3149TIP3   OH230861   4.907   3.873  12.793  0.2390 -0.2447 -0.2178
 3149TIP3    H130862   4.937   3.857  12.883 -1.9614  0.6119  0.7530
 3149TIP3    H230863   4.837   3.809  12.779 -0.0640  0.2337 -0.9707
 3150TIP3   OH230864   5.607   0.721  13.312 -0.7239 -0.3841 -0.1943
 3150TIP3    H130865   5.625   0.763  13.228  2.9668 -0.5833  0.3335
 3150TIP3    H230866   5.612   0.792  13.376 -2.6138 -0.3896  0.0190
 3151TIP3   OH230867   5.321   0.993   2.852  0.0219  0.3555  0.4072
 3151TIP3    H130868   5.355   1.063   2.909  0.7637  1.0192 -0.8053
 3151TIP3    H230869   5.399   0.960   2.806 -0.4856 -0.5170  0.1509
 3152TIP3   OH230870   1.248   6.502  17.152 -0.0079  0.4893 -0.4672
 3152TIP3    H130871   1.183   6.556  17.107 -0.0511  2.0658  1.3714
 3152TIP3    H230872   1.214   6.413  17.145 -1.1807  0.9909 -1.5160
 3153TIP3   OH230873   0.608   4.014   1.829  0.0506  0.1737  0.4076
 3153TIP3    H130874   0.607   4.110   1.837  1.0607  0.1522  0.9690
 3153TIP3    H230875   0.560   3.983   1.906  1.8917  0.1955  1.6331
 3154TIP3   OH230876   4.995   1.356  13.920 -0.0611  0.1338 -0.0668
 3154TIP3    H130877   4.911   1.328  13.958  0.6316 -0.9232  0.7703
 3154TIP3    H230878   5.016   1.288  13.856  0.2883  0.2346 -0.0621
 3155TIP3   OH230879   3.791   4.395   1.672 -0.7159  0.1515 -0.7353
 3155TIP3    H130880   3.705   4.409   1.634 -0.5446 -1.1622 -1.6458
 3155TIP3    H230881   3.853   4.419   1.603 -0.2753  2.1402  0.2561
 3156TIP3   OH230882   2.281   0.330  14.830 -0.1051  0.6832  0.0332
 3156TIP3    H130883   2.225   0.255  14.811 -0.6901  0.8593  0.9976
 3156TIP3    H230884   2.242   0.370  14.908  1.3771  0.8042  0.7446
 3157TIP3   OH230885   4.179   5.981  13.432  0.0509 -0.0141 -0.1510
 3157TIP3    H130886   4.260   5.983  13.484 -0.7931  0.6317  1.1825
 3157TIP3    H230887   4.189   6.053  13.369  1.0211 -0.7193 -0.8396
 3158TIP3   OH230888   0.861   3.892  14.767 -0.2257  0.0340 -0.1971
 3158TIP3    H130889   0.953   3.888  14.741 -0.4593  1.0519 -1.2290
 3158TIP3    H230890   0.829   3.803  14.754  0.5508 -0.2858 -0.0122
 3159TIP3   OH230891   0.806   0.171   0.486 -0.2306 -0.2289 -0.5651
 3159TIP3    H130892   0.787   0.263   0.504 -0.1435 -0.6699  2.1918
 3159TIP3    H230893   0.724   0.125   0.504  0.1776 -0.8632 -0.2855
 3160TIP3   OH230894   3.439   1.530   4.747  0.6639  0.1815  0.1054
 3160TIP3    H130895   3.367   1.505   4.690  0.1830 -0.8225  1.1223
 3160TIP3    H230896   3.452   1.455   4.805  0.2167  1.6340  2.2176
 3161TIP3   OH230897   3.541   3.977  13.109  0.4696  0.3934 -0.8195
 3161TIP3    H130898   3.571   3.942  13.025  1.2939  1.9853 -1.2312
 3161TIP3    H230899   3.611   3.956  13.170 -1.4626 -3.5971  0.3421
 3162TIP3   OH230900   1.175   0.582  13.734  0.2767 -0.3016 -0.1963
 3162TIP3    H130901   1.093   0.538  13.715 -0.2536  0.1420  0.9464
 3162TIP3    H230902   1.152   0.648  13.800  1.4925  0.0203 -0.0686
 3163TIP3   OH230903   4.481   4.918  15.440 -0.0749 -0.1518 -0.1868
 3163TIP3    H130904   4.446   4.885  15.523  1.9794 -1.5143  0.2151
 3163TIP3    H230905   4.551   4.856  15.418  2.2055  2.4484 -0.8079
 3164TIP3   OH230906   1.699   1.310   5.369 -0.1121 -0.0603  0.6042
 3164TIP3    H130907   1.655   1.395   5.375  0.1374 -0.0240  2.4037
 3164TIP3    H230908   1.741   1.298   5.454 -0.1112 -1.9756  0.3814
 3165TIP3   OH230909   1.136   1.252  15.394 -0.6117 -0.1476  0.6468
 3165TIP3    H130910   1.225   1.223  15.413 -0.8369 -0.5721  1.0552
 3165TIP3    H230911   1.116   1.213  15.309 -0.7257 -0.7835  0.9585
 3166TIP3   OH230912   3.673   4.578  13.679 -0.2658  0.3644  0.5609
 3166TIP3    H130913   3.667   4.588  13.584  0.5069 -2.1205  0.1865
 3166TIP3    H230914   3.767   4.582  13.698 -0.3280 -0.3865  1.0554
 3167TIP3   OH230915   4.610   0.023  13.545 -0.0081  0.1365  0.4758
 3167TIP3    H130916   4.638   0.114  13.559 -1.7743  0.7126  0.4700
 3167TIP3    H230917   4.676  -0.013  13.487  0.1915  1.7319 -0.3494
 3168TIP3   OH230918   0.790   5.220   4.888 -0.1416 -0.0596  0.0411
 3168TIP3    H130919   0.737   5.283   4.839 -1.1823 -1.1742 -0.2974
 3168TIP3    H230920   0.826   5.271   4.961  0.2489  1.2700 -1.0316
 3169TIP3   OH230921   4.553   3.062   5.347 -0.0761  0.4064  0.2207
 3169TIP3    H130922   4.564   3.073   5.253  0.7653  1.7039  0.4450
 3169TIP3    H230923   4.476   3.114   5.369 -1.2758 -1.2338  0.0262
 3170TIP3   OH230924   5.642   3.914   0.598 -0.3407  0.4836 -0.2065
 3170TIP3    H130925   5.649   3.819   0.606  1.3419  0.4481 -1.6436
 3170TIP3    H230926   5.730   3.947   0.615 -1.0430  1.8915  1.0209
 3171TIP3   OH230927   3.636   0.376   5.379  0.0034  0.2964  0.3061
 3171TIP3    H130928   3.597   0.320   5.312  0.1261  1.3346 -0.6494
 3171TIP3    H230929   3.688   0.439   5.330 -0.0075  1.1546  1.3755
 3172TIP3   OH230930   5.151   4.683   3.580  0.4952  0.1232 -0.2124
 3172TIP3    H130931   5.232   4.678   3.631 -0.0228  0.5800  0.6895
 3172TIP3    H230932   5.141   4.776   3.561 -0.6181  0.2890  1.0520
 3173TIP3   OH230933   0.504   5.337  14.984  0.2518  0.0390  0.2566
 3173TIP3    H130934   0.554   5.322  14.904  0.5336  2.0451 -0.0001
 3173TIP3    H230935   0.418   5.300  14.966  0.8031 -0.9863 -0.3425
 3174TIP3   OH230936   0.461   6.352   5.181 -0.0391  0.1377  0.0804
 3174TIP3    H130937   0.401   6.279   5.199 -0.4552  0.5853  0.5696
 3174TIP3    H230938   0.457   6.405   5.261  1.3351 -0.0478  0.2810
 3175TIP3   OH230939   3.646   4.658   3.396  0.1057 -0.1356 -0.1617
 3175TIP3    H130940   3.729   4.677   3.352  0.5063 -0.0009  0.6363
 3175TIP3    H230941   3.581   4.660   3.326  0.7860 -0.3317 -0.8138
 3176TIP3   OH230942   3.507   3.786  16.626 -0.1060 -0.4465 -0.3614
 3176TIP3    H130943   3.552   3.867  16.602 -1.7457  0.5566 -0.2605
 3176TIP3    H230944   3.571   3.736  16.677  1.3231  0.2488 -1.4202
 3177TIP3   OH230945   1.971   2.975   5.758  0.3834  0.3950 -0.2323
 3177TIP3    H130946   1.950   2.982   5.851  0.3749 -0.2595 -0.1828
 3177TIP3    H230947   1.955   2.883   5.737  0.2485  0.5730 -0.9124
 3178TIP3   OH230948   1.216   2.459  17.287  0.1485  0.2841  0.0482
 3178TIP3    H130949   1.127   2.493  17.284  0.6821  1.7602 -2.9461
 3178TIP3    H230950   1.206   2.364  17.286 -1.3264  0.2713  3.3256
 3179TIP3   OH230951   4.714   0.323   1.509 -0.2504 -0.3078  0.3512
 3179TIP3    H130952   4.650   0.378   1.463 -0.0452 -0.1846  0.2066
 3179TIP3    H230953   4.798   0.367   1.493  0.0326 -1.1183 -0.4756
 3180TIP3   OH230954   3.744   2.372  16.800 -0.3140  0.1266  0.5243
 3180TIP3    H130955   3.725   2.287  16.839 -0.2230 -0.0302  0.2336
 3180TIP3    H230956   3.809   2.412  16.858  1.0163 -0.7668 -0.2901
 3181TIP3   OH230957   1.349   0.361   2.322  0.2125  0.0744 -0.0246
 3181TIP3    H130958   1.436   0.371   2.361 -0.2803 -0.3265  1.2351
 3181TIP3    H230959   1.321   0.274   2.348 -0.4206  0.0531 -0.7462
 3182TIP3   OH230960   2.657   4.999   2.631 -0.6338 -0.2714  0.6316
 3182TIP3    H130961   2.616   5.054   2.564  1.8241  0.0241 -0.7430
 3182TIP3    H230962   2.647   5.048   2.712 -0.8455  0.9356 -0.0991
 3183TIP3   OH230963   2.453   6.068   1.645 -0.0264  0.2453  0.3663
 3183TIP3    H130964   2.520   6.095   1.707  0.3042 -1.6579  0.9213
 3183TIP3    H230965   2.440   5.974   1.663 -0.0123 -0.3547 -2.3446
 3184TIP3   OH230966   6.308   2.651  13.142  0.4286  0.0324  0.1726
 3184TIP3    H130967   6.353   2.681  13.221 -0.5486  0.8025  0.4506
 3184TIP3    H230968   6.231   2.707  13.135 -0.0683 -0.7322 -0.7369
 3185TIP3   OH230969   3.387   1.010   0.342 -0.5978 -0.5377 -0.0248
 3185TIP3    H130970   3.426   1.041   0.260  0.8646 -0.0025  0.8312
 3185TIP3    H230971   3.313   1.068   0.357  0.4787  0.8471  0.1598
 3186TIP3   OH230972   5.035   5.886   1.484 -0.6600 -0.2058 -0.1967
 3186TIP3    H130973   5.024   5.867   1.577  2.1391  0.4343  0.3576
 3186TIP3    H230974   5.072   5.805   1.448 -3.3054 -1.0737 -1.2121
 3187TIP3   OH230975   1.466   2.819   4.247 -0.5223  0.0140 -0.1445
 3187TIP3    H130976   1.520   2.897   4.246  1.0882 -0.9619  2.0912
 3187TIP3    H230977   1.412   2.828   4.326 -0.4802 -0.9914  0.0185
 3188TIP3   OH230978   4.032   5.084  15.203  0.3297 -0.2204  0.6515
 3188TIP3    H130979   4.128   5.082  15.201  0.3917 -3.6683 -1.5739
 3188TIP3    H230980   4.008   5.000  15.242 -1.8687  0.8872  1.8521
 3189TIP3   OH230981   2.961   0.053   1.826  0.3269 -0.0886  0.2427
 3189TIP3    H130982   3.009   0.136   1.825  2.4366 -1.1593  2.2279
 3189TIP3    H230983   2.897   0.063   1.896  1.4460 -0.5151  1.3643
 3190TIP3   OH230984   1.452   2.534  17.076 -0.0115  0.0758  0.4032
 3190TIP3    H130985   1.406   2.485  17.144 -2.1434  3.8664  1.9751
 3190TIP3    H230986   1.382   2.566  17.019  1.4244  0.1352 -1.4195
 3191TIP3   OH230987   1.832   2.518   3.595  0.1742 -0.0412  0.3612
 3191TIP3    H130988   1.768   2.450   3.574 -1.4257  1.5335 -0.0886
 3191TIP3    H230989   1.784   2.579   3.650  1.2914  1.1853  0.0050
 3192TIP3   OH230990   2.635   5.452  13.088 -0.4695  0.0593 -0.0749
 3192TIP3    H130991   2.710   5.404  13.124 -0.8774 -1.3345 -0.9945
 3192TIP3    H230992   2.559   5.417  13.134 -0.8031 -0.4135 -0.9595
 3193TIP3   OH230993   5.959   1.427  13.291 -0.4911  0.3191  0.5163
 3193TIP3    H130994   5.886   1.396  13.344  0.2221 -0.9180  0.7977
 3193TIP3    H230995   6.036   1.387  13.330  0.4122  1.9282  0.4863
 3194TIP3   OH230996   4.355   3.711   2.873  0.7543 -0.5253 -0.4512
 3194TIP3    H130997   4.397   3.696   2.958  0.4192  0.1260 -0.1662
 3194TIP3    H230998   4.356   3.625   2.830 -0.3566 -1.1837  0.7911
 3195TIP3   OH230999   3.255   0.785  14.490  0.1575  0.0569  0.2039
 3195TIP3    H131000   3.302   0.712  14.448  0.2797 -0.1575  0.7058
 3195TIP3    H231001   3.251   0.761  14.582 -0.3340  0.4095  0.2754
 3196TIP3   OH231002   6.589   2.180   3.743  0.2458  0.1973  0.3560
 3196TIP3    H131003   6.678   2.170   3.776  0.5665  1.3746 -0.1368
 3196TIP3    H231004   6.538   2.115   3.792  1.0163  0.7800  1.9885
 3197TIP3   OH231005   4.376   2.686   6.951 -0.3836  0.3530 -0.1645
 3197TIP3    H131006   4.463   2.715   6.978  0.7210 -0.1282 -2.8731
 3197TIP3    H231007   4.390   2.599   6.913 -1.9234  0.5118 -1.2227
 3198TIP3   OH231008   0.104   3.709   1.279  0.0017  0.4982  0.8866
 3198TIP3    H131009   0.112   3.791   1.327  1.6296  0.8430  0.1051
 3198TIP3    H231010   0.089   3.735   1.188 -0.7319 -0.1015  0.8282
 3199TIP3   OH231011   0.298   0.131  11.670 -0.1858  0.4452  0.1483
 3199TIP3    H131012   0.348   0.080  11.607 -0.3956  0.3881  0.0242
 3199TIP3    H231013   0.335   0.219  11.665 -1.4822  0.9708 -1.5319
 3200TIP3   OH231014   0.573   0.416  13.005 -0.4340  0.4229 -0.6401
 3200TIP3    H131015   0.588   0.325  13.031 -1.1980  0.5219  0.2002
 3200TIP3    H231016   0.503   0.411  12.940 -0.1191  0.3710 -0.9781
 3201TIP3   OH231017   4.176   2.675   3.641  0.2949 -0.2318 -0.3887
 3201TIP3    H131018   4.230   2.754   3.636 -0.5951  0.4905  0.7184
 3201TIP3    H231019   4.091   2.703   3.605 -0.4820 -0.2156  1.3620
 3202TIP3   OH231020   6.261   4.899   0.876 -0.1681 -0.4268 -0.1209
 3202TIP3    H131021   6.216   4.816   0.857 -0.0219 -0.5543  0.0807
 3202TIP3    H231022   6.354   4.879   0.866 -0.0039 -0.8189  1.8327
 3203TIP3   OH231023   5.086   1.900  15.338 -0.6537  0.4954  0.2541
 3203TIP3    H131024   5.127   1.873  15.255  0.5617  1.4805  0.5031
 3203TIP3    H231025   5.030   1.826  15.362  1.8074 -1.4296  0.4372
 3204TIP3   OH231026   6.086   3.781   5.053  0.5251 -0.2513  0.6683
 3204TIP3    H131027   6.041   3.699   5.035  0.8972 -0.9376  2.6169
 3204TIP3    H231028   6.021   3.836   5.096  0.6869 -0.0900  0.7111
 3205TIP3   OH231029   3.085   5.346   2.582 -0.3870 -0.0081 -0.1482
 3205TIP3    H131030   3.144   5.381   2.648 -1.5231  0.8399  0.4542
 3205TIP3    H231031   3.093   5.405   2.507 -0.9139  0.4808  0.1697
 3206TIP3   OH231032   6.536   0.369  13.038 -0.2454 -0.3827 -0.2419
 3206TIP3    H131033   6.620   0.335  13.069  0.7719  1.2356 -1.1140
 3206TIP3    H231034   6.474   0.299  13.057  1.0878 -1.1849  1.4174
 3207TIP3   OH231035   0.624   2.544  10.615 -0.3133  0.4269 -0.5340
 3207TIP3    H131036   0.665   2.605  10.677 -1.2081  0.1343  0.3778
 3207TIP3    H231037   0.533   2.572  10.610 -0.6649 -0.6304 -0.3468
 3208TIP3   OH231038   3.838   0.440   2.364  0.5302  0.2745 -0.2980
 3208TIP3    H131039   3.754   0.411   2.328  0.6684 -0.2573 -0.2007
 3208TIP3    H231040   3.842   0.401   2.451  0.6990  0.6312 -0.1458
 3209TIP3   OH231041   5.218   1.584   4.145  0.4542 -0.5581 -1.1859
 3209TIP3    H131042   5.156   1.512   4.139 -0.3686 -0.0609  0.6194
 3209TIP3    H231043   5.194   1.630   4.226  1.8174  0.9279 -1.5647
 3210TIP3   OH231044   3.606   5.175   6.050 -0.8750  0.1499  0.3236
 3210TIP3    H131045   3.581   5.177   5.958 -0.1597 -2.0211  0.0278
 3210TIP3    H231046   3.701   5.179   6.049 -0.8436 -0.3689  0.9319
 3211TIP3   OH231047   0.888   4.204   3.220 -0.1688 -0.0834  0.0697
 3211TIP3    H131048   0.852   4.167   3.301  0.3044  0.6028  0.6012
 3211TIP3    H231049   0.931   4.285   3.247  0.3697 -0.0622 -0.8066
 3212TIP3   OH231050   1.182   5.023   3.859 -0.2814 -0.3409 -0.4416
 3212TIP3    H131051   1.198   5.059   3.772 -2.2844 -0.3219 -0.8496
 3212TIP3    H231052   1.233   5.079   3.918  0.9094 -0.2101 -1.5555
 3213TIP3   OH231053   6.142   1.188  13.381 -0.4641  0.2425 -0.2076
 3213TIP3    H131054   6.134   1.106  13.334  0.3668  0.9402 -1.6424
 3213TIP3    H231055   6.069   1.188  13.443 -0.1728 -1.7736  0.1757
 3214TIP3   OH231056   4.239   5.991   3.233  0.2616 -0.6834  0.3594
 3214TIP3    H131057   4.146   6.007   3.217  0.1186 -0.5269  1.2966
 3214TIP3    H231058   4.264   5.927   3.166 -0.8236 -1.6567  0.8502
 3215TIP3   OH231059   2.480   1.311  13.326 -0.0802  0.3650 -0.0503
 3215TIP3    H131060   2.397   1.344  13.293  0.2278  0.3795 -0.8275
 3215TIP3    H231061   2.483   1.340  13.417 -1.3806 -0.4860  0.3023
 3216TIP3   OH231062   0.708   6.738   1.409  0.1137  0.0557  0.1274
 3216TIP3    H131063   0.691   6.819   1.360  1.4248 -0.0377 -0.5261
 3216TIP3    H231064   0.759   6.684   1.349 -0.4896 -1.1454  0.6700
 3217TIP3   OH231065   5.753   2.117  14.067  0.4581 -0.7151  0.2220
 3217TIP3    H131066   5.842   2.133  14.035  0.3518 -0.7759 -0.1028
 3217TIP3    H231067   5.708   2.077  13.993  0.1680 -0.7146  0.3985
 3218TIP3   OH231068   0.517   5.638  13.082 -0.1187  0.2082 -0.9010
 3218TIP3    H131069   0.579   5.656  13.152  0.7691 -0.0943 -1.5962
 3218TIP3    H231070   0.463   5.567  13.116  0.8196 -0.4832 -0.8308
 3219TIP3   OH231071   3.789   0.944   5.353 -0.1668  0.0536  0.1910
 3219TIP3    H131072   3.814   0.863   5.398  0.1190 -0.5089 -0.9607
 3219TIP3    H231073   3.871   0.990   5.339 -0.2686  0.2782  0.3183
 3220TIP3   OH231074   0.737   6.093   2.117 -0.3638 -0.1924 -0.0325
 3220TIP3    H131075   0.801   6.118   2.049  0.3007 -1.1461  0.2212
 3220TIP3    H231076   0.676   6.166   2.120  0.7469  0.7842 -0.2557
 3221TIP3   OH231077   5.431   4.973   6.522  0.0490  0.1912  0.0710
 3221TIP3    H131078   5.413   5.044   6.461 -0.2827 -0.0174 -0.0757
 3221TIP3    H231079   5.417   4.893   6.470 -0.8885  0.0055  0.6032
 3222TIP3   OH231080   6.165   0.036  16.498 -0.2479 -0.7380 -0.5024
 3222TIP3    H131081   6.230   0.103  16.520 -0.7824 -0.6763  0.9827
 3222TIP3    H231082   6.201  -0.007  16.420  1.1323 -0.1106 -0.2466
 3223TIP3   OH231083   3.121   4.196   0.787  0.1163 -0.1132  0.4121
 3223TIP3    H131084   3.199   4.230   0.831 -0.4282  2.6579 -0.5678
 3223TIP3    H231085   3.137   4.212   0.694 -2.6499  3.1628  0.3292
 3224TIP3   OH231086   3.448   4.553  16.227  0.7530  0.3996 -0.1010
 3224TIP3    H131087   3.353   4.542  16.236  0.4809  0.3579 -2.3723
 3224TIP3    H231088   3.480   4.561  16.317 -1.1827 -1.2283  0.8271
 3225TIP3   OH231089   4.954   3.458   5.828 -0.0820 -0.0941 -0.9534
 3225TIP3    H131090   4.863   3.436   5.806  0.4456 -2.3541 -1.1370
 3225TIP3    H231091   4.946   3.519   5.901 -1.8074 -1.8551  0.4744
 3226TIP3   OH231092   1.096   1.785   0.972  0.3624 -0.2297 -0.2802
 3226TIP3    H131093   1.156   1.730   1.022  0.7972  0.3374 -0.1612
 3226TIP3    H231094   1.122   1.774   0.881  2.9136  2.5243 -0.0582
 3227TIP3   OH231095   1.094   4.276   6.260  0.1557  0.6737 -0.2849
 3227TIP3    H131096   1.029   4.222   6.304  1.1174  0.4053  0.8558
 3227TIP3    H231097   1.177   4.229   6.273  0.4518  0.3956 -2.6772
 3228TIP3   OH231098   3.561   3.285  16.185  0.3767  0.2561  0.4846
 3228TIP3    H131099   3.627   3.215  16.181  1.0256  0.8913 -0.2901
 3228TIP3    H231100   3.607   3.363  16.154 -0.5834  0.8481  0.5105
 3229TIP3   OH231101   0.635   5.289  14.741  0.3130  0.3301  0.0712
 3229TIP3    H131102   0.599   5.356  14.683 -1.6132 -1.9957 -1.6056
 3229TIP3    H231103   0.724   5.274  14.708 -0.2676  0.0239 -1.3910
 3230TIP3   OH231104   5.772   6.553  12.233 -0.0851  0.0533  0.1254
 3230TIP3    H131105   5.830   6.616  12.277 -0.8106  1.0236 -0.2795
 3230TIP3    H231106   5.690   6.557  12.283  0.3080 -1.6485  0.9773
 3231TIP3   OH231107   3.011   5.191  17.228 -0.0326  0.2022  0.3419
 3231TIP3    H131108   3.002   5.096  17.227 -1.3787  0.2885  1.2465
 3231TIP3    H231109   3.103   5.206  17.253  0.3730 -0.8359 -0.4651
 3232TIP3   OH231110   2.227   4.888  12.817 -0.5930  0.3287 -0.1709
 3232TIP3    H131111   2.188   4.955  12.872 -1.3663  0.2329 -0.5920
 3232TIP3    H231112   2.322   4.902  12.826 -0.7249  0.8365  0.5178
 3233TIP3   OH231113   4.534   1.012   1.197 -0.0189 -0.2894  0.2184
 3233TIP3    H131114   4.587   0.962   1.135  0.5526 -0.0595  0.5119
 3233TIP3    H231115   4.488   1.076   1.143 -0.0038 -0.4953 -0.0403
 3234TIP3   OH231116   1.483   3.913  17.232 -0.3780 -0.3646  0.4746
 3234TIP3    H131117   1.403   3.961  17.213  0.7988  1.7928  0.7502
 3234TIP3    H231118   1.453   3.824  17.253 -2.6569  0.3490  0.4519
 3235TIP3   OH231119   4.168   2.589  14.588 -0.7125  0.2321  0.3835
 3235TIP3    H131120   4.156   2.674  14.546 -1.4813  0.3538  0.8418
 3235TIP3    H231121   4.246   2.552  14.546  0.1191  1.5096  0.7583
 3236TIP3   OH231122   4.545   2.528   3.039 -0.5371  0.0050  0.0588
 3236TIP3    H131123   4.452   2.529   3.062 -0.4752 -0.4514  0.3538
 3236TIP3    H231124   4.567   2.435   3.032 -0.1060  0.1088 -0.0144
 3237TIP3   OH231125   5.795   4.692  12.856 -0.1378 -0.0910  0.2630
 3237TIP3    H131126   5.853   4.616  12.851  0.1593  0.0343  1.3874
 3237TIP3    H231127   5.827   4.751  12.788  0.9717 -0.1019  0.7461
 3238TIP3   OH231128   5.410   4.818   3.440  0.4902 -0.0370 -0.2905
 3238TIP3    H131129   5.395   4.753   3.509  0.2007  1.6067  1.2559
 3238TIP3    H231130   5.505   4.817   3.427  0.8239  1.0187  1.6265
 3239TIP3   OH231131   1.320   1.516   3.103 -0.4924  0.7252 -0.4149
 3239TIP3    H131132   1.380   1.508   3.029 -1.6395  2.0217 -1.5407
 3239TIP3    H231133   1.328   1.607   3.131 -1.2028  0.6560  0.0477
 3240TIP3   OH231134   6.423   3.437   5.380  0.1915  0.2857  1.0938
 3240TIP3    H131135   6.384   3.350   5.375 -0.1002  0.3809  1.5904
 3240TIP3    H231136   6.491   3.437   5.313 -0.4965  0.0350  0.3821
 3241TIP3   OH231137   2.798   3.049   2.253 -0.2253  0.4149 -0.0900
 3241TIP3    H131138   2.784   3.143   2.266  1.1275  0.7791 -0.9997
 3241TIP3    H231139   2.826   3.017   2.338 -1.9185  0.5582  0.5574
 3242TIP3   OH231140   5.919   3.325  13.025  0.1275 -0.0818  0.0458
 3242TIP3    H131141   5.948   3.399  13.078  1.6431  0.3645 -1.3039
 3242TIP3    H231142   5.878   3.365  12.948  1.1220 -0.5844 -0.7803
 3243TIP3   OH231143   1.228   2.866  12.602  0.6714 -0.2736  0.1798
 3243TIP3    H131144   1.321   2.844  12.606  0.7715  0.1656  0.2764
 3243TIP3    H231145   1.225   2.958  12.577  0.2291 -0.6883 -1.4588
 3244TIP3   OH231146   4.509   4.469  12.072  0.6673 -0.2596  0.0055
 3244TIP3    H131147   4.508   4.501  11.982  2.6887 -1.1016 -0.3718
 3244TIP3    H231148   4.601   4.475  12.098  0.2180 -0.6599  1.7935
 3245TIP3   OH231149   4.267   4.876   0.216  0.4132 -0.4980 -0.3220
 3245TIP3    H131150   4.215   4.952   0.191  0.6019 -0.5235 -0.7956
 3245TIP3    H231151   4.343   4.879   0.158  0.1374 -1.3693 -0.7390
 3246TIP3   OH231152   1.518   3.591  15.924 -0.4318  0.5968  0.3842
 3246TIP3    H131153   1.584   3.538  15.879 -0.5188  0.0043  0.9339
 3246TIP3    H231154   1.445   3.597  15.863  0.2061  1.4397 -0.3178
 3247TIP3   OH231155   1.216   3.211  12.369 -0.0475 -0.1613  0.0888
 3247TIP3    H131156   1.253   3.252  12.447 -0.0414 -0.2879  0.1529
 3247TIP3    H231157   1.153   3.147  12.403 -0.2772  0.0093 -0.0181
 3248TIP3   OH231158   3.556   3.904   0.709  0.3537  0.4530 -0.3691
 3248TIP3    H131159   3.495   3.930   0.640  0.1085 -0.8945 -0.6791
 3248TIP3    H231160   3.628   3.967   0.701  0.5428  0.0738 -2.1497
 3249TIP3   OH231161   5.986   4.540   5.378  0.2002  0.5443  0.4038
 3249TIP3    H131162   6.048   4.509   5.312 -0.5956  2.6750 -1.4777
 3249TIP3    H231163   5.901   4.506   5.350  0.2040 -1.1550  2.1721
 3250TIP3   OH231164   1.806   3.865   0.237 -0.1407 -0.2543 -0.4862
 3250TIP3    H131165   1.885   3.914   0.261 -0.6919 -0.6066  2.4325
 3250TIP3    H231166   1.739   3.932   0.225 -0.0560 -0.0828 -0.0376
 3251TIP3   OH231167   2.374   2.415   2.556 -0.4545 -0.1190  0.2989
 3251TIP3    H131168   2.362   2.365   2.475  1.1530 -1.5771  0.8893
 3251TIP3    H231169   2.286   2.424   2.592 -0.8592 -2.6255  0.1530
 3252TIP3   OH231170   4.012   3.032  16.647  0.7384 -0.2678 -0.2906
 3252TIP3    H131171   3.921   3.051  16.626  0.1933 -3.2228 -1.0857
 3252TIP3    H231172   4.048   3.116  16.675 -1.1952  1.8487 -3.4523
 3253TIP3   OH231173   1.893   2.725  11.141 -0.4482 -0.8061  0.2486
 3253TIP3    H131174   1.919   2.768  11.059 -1.3975  0.8197  0.7474
 3253TIP3    H231175   1.807   2.687  11.122 -0.1005 -1.5551  0.1354
 3254TIP3   OH231176   4.145   3.870   0.667 -0.1807  0.3900  0.4794
 3254TIP3    H131177   4.109   3.927   0.599  1.1758 -0.6403 -1.1829
 3254TIP3    H231178   4.208   3.925   0.715  0.0211  0.6976 -0.1347
 3255TIP3   OH231179   5.238   3.030  17.336 -0.6623 -0.7040 -0.0762
 3255TIP3    H131180   5.232   3.108  17.280  2.8065 -0.7171 -0.6754
 3255TIP3    H231181   5.236   3.065  17.425  0.6508  0.1148 -0.3372
 3256TIP3   OH231182   0.765   4.343  15.419 -0.2514 -0.2300 -0.3634
 3256TIP3    H131183   0.742   4.283  15.490 -0.4980 -2.6234 -2.3085
 3256TIP3    H231184   0.685   4.350  15.367  0.1872  0.6565 -0.9353
 3257TIP3   OH231185   2.276   4.784  14.565  0.2320 -0.3037 -0.2509
 3257TIP3    H131186   2.294   4.774  14.472  0.8461  1.5665 -0.3618
 3257TIP3    H231187   2.181   4.794  14.570 -0.1540 -3.0095 -0.3584
 3258TIP3   OH231188   1.104   6.008  14.864  0.2449 -0.6025  0.2880
 3258TIP3    H131189   1.061   5.942  14.809 -0.9827 -1.1965  1.8682
 3258TIP3    H231190   1.100   5.972  14.953  0.1791  1.2772  1.1054
 3259TIP3   OH231191   4.819   5.519  15.878 -0.5924 -0.4125  0.4935
 3259TIP3    H131192   4.806   5.518  15.783 -1.3488  2.2743  0.4910
 3259TIP3    H231193   4.911   5.542  15.889 -0.7620  0.3369  0.3881
 3260TIP3   OH231194   1.325   2.129  14.041 -1.0246 -0.0481 -0.3871
 3260TIP3    H131195   1.235   2.123  14.010 -0.9056 -0.6829 -0.6341
 3260TIP3    H231196   1.369   2.185  13.978 -1.3964  0.8286  0.1103
 3261TIP3   OH231197   3.111   6.671   3.869 -0.0972 -0.3281 -0.2864
 3261TIP3    H131198   3.140   6.585   3.840  1.0666  0.0070 -0.1740
 3261TIP3    H231199   3.024   6.656   3.906  0.2708 -1.5364  0.1543
 3262TIP3   OH231200   3.996   5.181  13.959 -0.1100 -0.3577  0.7912
 3262TIP3    H131201   3.937   5.128  13.905 -1.1569 -0.5829  2.1171
 3262TIP3    H231202   3.948   5.195  14.040 -0.7877  4.2461 -0.1078
 3263TIP3   OH231203   4.227   3.259  15.855 -0.1671 -0.0727 -0.2143
 3263TIP3    H131204   4.290   3.267  15.926 -0.0765  0.2645 -0.3278
 3263TIP3    H231205   4.272   3.209  15.787 -0.6074 -1.2988  0.3606
 3264TIP3   OH231206   5.865   5.173   4.783  0.4336  0.1951 -0.2049
 3264TIP3    H131207   5.842   5.264   4.801 -1.2946  0.0934 -1.7089
 3264TIP3    H231208   5.932   5.178   4.715 -0.6063  0.3609 -1.2557
 3265TIP3   OH231209   2.941   0.983   6.558  0.0333 -0.3792 -0.3118
 3265TIP3    H131210   2.905   0.894   6.564 -2.6096  0.6680  0.7268
 3265TIP3    H231211   2.924   1.009   6.468  1.5513 -1.1364 -0.8649
 3266TIP3   OH231212   0.463   6.673   4.367  0.4775  0.9364  0.4621
 3266TIP3    H131213   0.442   6.761   4.336  0.9860  0.7727 -0.4042
 3266TIP3    H231214   0.542   6.684   4.420  1.3355  0.8451 -0.7523
 3267TIP3   OH231215   4.516   5.350   3.428 -0.0778 -0.0303  0.0538
 3267TIP3    H131216   4.505   5.286   3.357  1.6150 -0.8667  0.4980
 3267TIP3    H231217   4.610   5.358   3.439 -0.2949  0.4735  1.8906
 3268TIP3   OH231218   5.475   1.054   6.288  0.2048 -0.1343 -0.0570
 3268TIP3    H131219   5.570   1.051   6.295  0.1200  0.1299  1.7233
 3268TIP3    H231220   5.456   1.135   6.240  0.8903 -0.9063 -1.6891
 3269TIP3   OH231221   5.875   2.434  13.309  0.2808 -0.3721 -0.1147
 3269TIP3    H131222   5.883   2.348  13.352 -0.5645 -0.6028 -0.3981
 3269TIP3    H231223   5.964   2.469  13.309  0.3007 -0.2908  1.9695
 3270TIP3   OH231224   3.397   2.147   5.312 -0.2759 -0.0063 -0.2387
 3270TIP3    H131225   3.469   2.179   5.258 -0.5254  1.3624  0.2131
 3270TIP3    H231226   3.416   2.180   5.400 -1.8473  1.0971 -0.2635
 3271TIP3   OH231227   1.097   1.566  17.050 -0.1083  0.7274 -0.5025
 3271TIP3    H131228   1.010   1.566  17.091 -0.8414  2.8560 -1.8791
 3271TIP3    H231229   1.083   1.609  16.966  2.1480  0.3208 -1.1447
 3272TIP3   OH231230   1.713   2.800  16.688 -0.5575 -0.0539  0.0732
 3272TIP3    H131231   1.661   2.721  16.702  0.2213 -0.2618  2.3204
 3272TIP3    H231232   1.742   2.795  16.597 -2.0719 -1.3715 -0.3858
 3273TIP3   OH231233   6.752   3.134  16.377 -0.0875 -0.0245 -0.2315
 3273TIP3    H131234   6.765   3.049  16.419  0.0096 -0.7024 -1.5766
 3273TIP3    H231235   6.729   3.113  16.287 -0.9797  1.3684 -0.3644
 3274TIP3   OH231236   0.964   5.242   0.328  0.2579 -0.7456 -0.4460
 3274TIP3    H131237   0.955   5.324   0.280  0.7564 -1.2157 -1.3604
 3274TIP3    H231238   0.938   5.264   0.418  0.2290  0.3684 -0.7148
 3275TIP3   OH231239   5.182   3.164   0.157 -0.0253  0.4370 -0.1744
 3275TIP3    H131240   5.186   3.250   0.199  1.0345 -0.5999  1.9965
 3275TIP3    H231241   5.095   3.162   0.117  0.5819  3.1663 -1.8910
 3276TIP3   OH231242   4.756   0.771  12.324 -0.3868  0.0578  0.3422
 3276TIP3    H131243   4.729   0.821  12.401  1.1521 -0.0274  0.9839
 3276TIP3    H231244   4.760   0.834  12.253 -1.4703  0.2101  0.4049
 3277TIP3   OH231245   1.459   1.925   5.068  0.3387 -0.1408 -0.1024
 3277TIP3    H131246   1.365   1.906   5.063  0.6512 -1.3997 -2.0176
 3277TIP3    H231247   1.463   2.012   5.107 -1.6373  0.1309 -0.3782
 3278TIP3   OH231248   2.488   1.715  12.187  0.6005 -0.2089  0.2663
 3278TIP3    H131249   2.488   1.729  12.093 -1.4255  2.3841  0.5427
 3278TIP3    H231250   2.566   1.761  12.218 -0.3059  1.5030  0.0933
 3279TIP3   OH231251   3.135   3.561   3.622 -0.0072  0.3743 -0.0467
 3279TIP3    H131252   3.207   3.616   3.590  1.1772 -1.3094 -0.3900
 3279TIP3    H231253   3.122   3.496   3.553 -0.9668 -0.1526  0.6105
 3280TIP3   OH231254   1.261   4.073   1.394  0.3414 -0.0409 -0.9270
 3280TIP3    H131255   1.205   3.999   1.419  2.1476 -0.7915  1.1961
 3280TIP3    H231256   1.250   4.080   1.299  0.0885 -3.0283 -1.2118
 3281TIP3   OH231257   5.218   1.968   3.278 -0.3624  0.4011  0.6021
 3281TIP3    H131258   5.147   1.952   3.217 -0.1974  1.1135  0.2119
 3281TIP3    H231259   5.295   1.932   3.235 -0.1908  1.1830  0.2355
 3282TIP3   OH231260   1.434   0.951   3.193 -0.8802  0.8729 -0.2096
 3282TIP3    H131261   1.526   0.978   3.203 -0.2977 -0.8362 -0.5818
 3282TIP3    H231262   1.433   0.900   3.113 -2.0444  0.3550  0.1205
 3283TIP3   OH231263   4.482   4.163   4.686  0.3092  0.0835  0.0763
 3283TIP3    H131264   4.418   4.180   4.617 -0.0129 -0.2293  0.2981
 3283TIP3    H231265   4.485   4.243   4.737  0.0660  0.0838  0.0901
 3284TIP3   OH231266   1.652   0.797   6.083 -0.1702 -0.2167 -0.3469
 3284TIP3    H131267   1.743   0.771   6.087  0.0711 -0.3535 -3.6593
 3284TIP3    H231268   1.605   0.733   6.136  1.7081  0.6530  2.5411
 3285TIP3   OH231269   2.093   4.544  16.490 -0.0184  0.1887  0.1597
 3285TIP3    H131270   2.145   4.612  16.446  0.0465 -0.0975 -0.2105
 3285TIP3    H231271   2.004   4.559  16.461 -0.4217  1.5990  1.9317
 3286TIP3   OH231272   4.792   5.121  14.606  0.2160 -0.4075  0.3294
 3286TIP3    H131273   4.711   5.142  14.558 -0.3722 -0.2322  1.3479
 3286TIP3    H231274   4.761   5.083  14.688  1.1664 -0.0507  0.8672
 3287TIP3   OH231275   2.067   1.048   3.340  0.1193  0.1061 -0.1408
 3287TIP3    H131276   2.026   0.965   3.362 -0.3422  0.2114 -0.5986
 3287TIP3    H231277   2.157   1.025   3.316  0.3461 -0.1222  0.8604
 3288TIP3   OH231278   6.692   6.122  11.465  0.6131 -0.2044  0.3811
 3288TIP3    H131279   6.738   6.058  11.520  0.8991 -0.8941 -0.6172
 3288TIP3    H231280   6.743   6.202  11.474  1.7568 -0.8162 -0.3043
 3289TIP3   OH231281   0.297   3.272  16.619 -0.0344 -0.0049 -0.7199
 3289TIP3    H131282   0.233   3.323  16.570 -0.2090  0.4517 -0.0377
 3289TIP3    H231283   0.244   3.210  16.670 -0.2448  2.1537  1.9715
 3290TIP3   OH231284   2.806   4.880  11.466 -1.0088 -0.0588  0.4208
 3290TIP3    H131285   2.869   4.925  11.522 -0.1405  1.9161 -1.9480
 3290TIP3    H231286   2.859   4.826  11.408 -1.7423 -0.6481  0.2840
 3291TIP3   OH231287   5.409   1.221   2.975  0.0246 -0.3974  0.6903
 3291TIP3    H131288   5.394   1.253   2.886 -0.5472  0.6271  1.1380
 3291TIP3    H231289   5.498   1.250   2.995 -0.3702  0.6609  0.9710
 3292TIP3   OH231290   4.555   6.138  15.972 -0.5787 -0.6123 -0.1495
 3292TIP3    H131291   4.568   6.143  15.878 -2.1618  1.0770 -0.3467
 3292TIP3    H231292   4.477   6.084  15.983 -0.8826 -0.1291  0.1203
 3293TIP3   OH231293   1.575   3.459  16.172  0.0587 -0.4742 -0.2447
 3293TIP3    H131294   1.553   3.502  16.090 -1.3837 -1.6347 -0.5008
 3293TIP3    H231295   1.491   3.444  16.215  0.7941  0.2605  1.5548
 3294TIP3   OH231296   6.500   0.775   1.561  0.4443  0.3641  0.2034
 3294TIP3    H131297   6.448   0.746   1.636  0.5257 -1.3502 -0.3617
 3294TIP3    H231298   6.570   0.827   1.599 -0.3648  0.7885  1.1705
 3295TIP3   OH231299   4.335   2.324   1.911  0.0221  0.4102 -0.3803
 3295TIP3    H131300   4.365   2.319   2.002 -3.7456  3.5684  1.3682
 3295TIP3    H231301   4.314   2.234   1.887 -0.0677 -0.3961  2.3856
 3296TIP3   OH231302   5.926   6.526   3.022 -1.0433  0.4920 -0.0732
 3296TIP3    H131303   5.887   6.478   3.095  0.8268  0.0701  0.6951
 3296TIP3    H231304   5.986   6.589   3.063 -2.3891  2.5787 -1.1325
 3297TIP3   OH231305   0.582   4.596  13.089 -0.2656  0.2360  0.0463
 3297TIP3    H131306   0.566   4.520  13.144 -2.0653  0.7959  0.3567
 3297TIP3    H231307   0.615   4.663  13.149 -0.8980  0.4075  0.2149
 3298TIP3   OH231308   5.416   3.045   5.180 -0.2459  0.5477  0.6093
 3298TIP3    H131309   5.349   2.983   5.209 -1.8749  1.6230 -0.7170
 3298TIP3    H231310   5.379   3.131   5.199 -0.2943  1.2326 -2.2532
 3299TIP3   OH231311   3.141   4.862  16.948  0.1054  0.1098 -0.2036
 3299TIP3    H131312   3.077   4.844  17.017 -1.7574  0.4488 -1.7653
 3299TIP3    H231313   3.157   4.776  16.907 -0.0925  0.1763 -0.4222
 3300TIP3   OH231314   1.955   4.978   3.648  0.0152  0.1464 -0.6029
 3300TIP3    H131315   1.964   4.883   3.645  0.8376  0.1984 -0.2538
 3300TIP3    H231316   2.039   5.008   3.682 -0.4487  0.9611 -0.1483
 3301TIP3   OH231317   4.472   3.040   4.517 -0.7262  0.2803  0.3470
 3301TIP3    H131318   4.545   3.066   4.461 -0.7482  0.8849  0.5889
 3301TIP3    H231319   4.463   2.946   4.502  0.7969 -0.0183  1.1257
 3302TIP3   OH231320   5.317   2.658   5.474  0.0157  0.3083  0.1610
 3302TIP3    H131321   5.239   2.714   5.469  0.7319  1.2522 -0.9982
 3302TIP3    H231322   5.314   2.621   5.562 -1.6994  0.3757  0.1645
 3303TIP3   OH231323   0.302   6.014  14.620  0.3321 -0.1344  0.3283
 3303TIP3    H131324   0.326   5.957  14.692 -1.3990 -0.4669  0.6706
 3303TIP3    H231325   0.301   6.102  14.658  0.5369 -0.1669  0.4129
 3304TIP3   OH231326   0.815   1.694   3.528 -0.0936  0.2493 -0.1365
 3304TIP3    H131327   0.868   1.710   3.450 -0.4030  0.0058 -0.3924
 3304TIP3    H231328   0.802   1.781   3.566 -0.3162  0.4168 -0.5947
 3305TIP3   OH231329   2.862   4.098  13.011  0.3464  0.1260  0.5222
 3305TIP3    H131330   2.881   4.032  13.077 -0.1801 -0.3280  0.2313
 3305TIP3    H231331   2.777   4.135  13.037  1.0671  1.3761  1.2165
 3306TIP3   OH231332   1.998   6.021   0.493  0.2691  0.5908  0.1296
 3306TIP3    H131333   2.038   5.935   0.508 -0.6098  0.3241  1.0817
 3306TIP3    H231334   1.944   6.008   0.414 -1.2318 -0.2676  1.2342
 3307TIP3   OH231335   3.949   1.614  10.923  0.3979  0.4358  0.0102
 3307TIP3    H131336   3.928   1.559  10.848 -0.8264 -0.4617  0.9529
 3307TIP3    H231337   3.930   1.558  10.999  1.2988  1.4181  0.9897
 3308TIP3   OH231338   4.536   0.447  14.327 -0.3691 -0.0376  0.0240
 3308TIP3    H131339   4.481   0.372  14.303 -0.4498  0.0758 -0.1465
 3308TIP3    H231340   4.473   0.517  14.345 -0.2642  0.2308 -0.6354
 3309TIP3   OH231341   3.245   5.723   3.315 -0.4822 -0.1759  0.1476
 3309TIP3    H131342   3.200   5.733   3.400 -1.0798 -1.4565  0.0184
 3309TIP3    H231343   3.282   5.634   3.319  1.1698  0.4720 -0.1743
 3310TIP3   OH231344   4.286   2.389  13.232 -0.6766 -0.4898  0.4570
 3310TIP3    H131345   4.270   2.432  13.316  0.6572 -0.3793  0.6800
 3310TIP3    H231346   4.307   2.298  13.255  1.1597 -0.1232  0.4125
 3311TIP3   OH231347   2.797   1.162  12.420  0.3767 -0.7673  0.2316
 3311TIP3    H131348   2.776   1.252  12.442  1.4795 -0.5261  0.3819
 3311TIP3    H231349   2.750   1.144  12.339 -0.5020 -0.3321  0.6401
 3312TIP3   OH231350   6.528   2.763   2.550  0.5396  0.0115  0.2735
 3312TIP3    H131351   6.497   2.678   2.519  0.6064  0.2437 -0.4407
 3312TIP3    H231352   6.478   2.778   2.631  0.3421 -0.5833  0.2682
 3313TIP3   OH231353   1.020   2.465   2.959  0.5334  0.1627  0.2038
 3313TIP3    H131354   0.949   2.421   3.005 -0.5928  2.6563  1.0666
 3313TIP3    H231355   0.990   2.470   2.868  0.5349 -0.5585  0.1621
 3314TIP3   OH231356   1.364   1.787  11.875  0.3632  0.1876 -0.3016
 3314TIP3    H131357   1.439   1.779  11.817  0.2023  0.0543 -0.4924
 3314TIP3    H231358   1.400   1.825  11.956  0.8712 -1.0783  0.0926
 3315TIP3   OH231359   5.162   5.378  16.147  0.3590  0.2015  0.4710
 3315TIP3    H131360   5.091   5.319  16.122 -0.9452  1.4689  1.0164
 3315TIP3    H231361   5.230   5.320  16.181 -0.5390 -1.0361  0.2601
 3316TIP3   OH231362   2.606   1.066   1.960 -0.2771  0.0100  0.1467
 3316TIP3    H131363   2.547   1.110   2.021 -0.8779 -1.0407  0.3350
 3316TIP3    H231364   2.660   1.010   2.016 -0.8939 -1.0275 -0.2770
 3317TIP3   OH231365   0.592   3.031  11.767  0.1007 -0.1394 -0.2673
 3317TIP3    H131366   0.651   3.008  11.839 -1.3610 -0.2577  0.9448
 3317TIP3    H231367   0.619   2.974  11.695  0.0614 -1.8289  0.9750
 3318TIP3   OH231368   6.419   1.641   3.004  0.4166  0.3369  0.7503
 3318TIP3    H131369   6.327   1.631   2.979  0.1995 -1.3196  2.1017
 3318TIP3    H231370   6.468   1.601   2.932  0.0416  0.3549  0.4821
 3319TIP3   OH231371   0.788   5.379  17.333  0.5206  0.3500  0.6164
 3319TIP3    H131372   0.861   5.322  17.309 -0.0475 -0.1704  0.0992
 3319TIP3    H231373   0.815   5.467  17.306  0.7374  0.0779 -0.0485
 3320TIP3   OH231374   4.341   1.842   4.438 -0.2714 -0.0688  0.4100
 3320TIP3    H131375   4.351   1.799   4.523  1.5974  1.4654  1.0612
 3320TIP3    H231376   4.294   1.923   4.457  0.6141  0.5352  0.1068
 3321TIP3   OH231377   2.700   4.520   2.782  0.1235  0.5477 -0.1666
 3321TIP3    H131378   2.758   4.474   2.722  0.3532  0.0019  0.4631
 3321TIP3    H231379   2.756   4.587   2.823  0.1582  0.4227 -0.0088
 3322TIP3   OH231380   4.438   1.458   2.948 -0.8256 -0.6579 -0.2779
 3322TIP3    H131381   4.446   1.410   3.031  1.8813  0.3390  0.1234
 3322TIP3    H231382   4.445   1.390   2.881 -1.0409 -1.2560  0.2885
 3323TIP3   OH231383   1.513   1.864  15.435  0.5012 -0.3453 -0.5924
 3323TIP3    H131384   1.424   1.846  15.403  0.7745 -1.0245 -0.9836
 3323TIP3    H231385   1.506   1.860  15.530  0.3859 -1.7570 -0.6445
 3324TIP3   OH231386   0.830   4.893  13.902  0.0593 -0.3116 -0.6206
 3324TIP3    H131387   0.763   4.874  13.836  3.4032 -1.7174 -3.9485
 3324TIP3    H231388   0.833   4.814  13.956 -0.3714 -0.6061 -1.0181
 3325TIP3   OH231389   3.866   3.763  16.336  0.4988  0.4520  0.2794
 3325TIP3    H131390   3.791   3.808  16.374 -0.0675  0.4413 -0.8103
 3325TIP3    H231391   3.846   3.756  16.243  1.6495  0.0505  0.0454
 3326TIP3   OH231392   1.980   0.794   3.435 -0.4593 -0.0349 -0.0393
 3326TIP3    H131393   2.052   0.829   3.488 -0.7939  1.6141 -0.6113
 3326TIP3    H231394   1.910   0.776   3.498 -0.6296  1.3079  0.1824
 3327TIP3   OH231395   1.194   3.637   0.554 -0.2174 -0.5881  0.4992
 3327TIP3    H131396   1.109   3.611   0.591 -1.1117 -2.6817 -2.6679
 3327TIP3    H231397   1.201   3.730   0.574 -1.6213 -1.0427  3.7539
 3328TIP3   OH231398   4.066   1.672  15.767 -0.0662 -0.0929  0.2365
 3328TIP3    H131399   4.103   1.727  15.836 -0.5427  0.0337  0.3976
 3328TIP3    H231400   4.092   1.716  15.686 -0.1145  0.1610  0.3558
 3329TIP3   OH231401   3.968   2.538   1.760  0.6531  0.0998  0.1408
 3329TIP3    H131402   3.878   2.547   1.729  1.0067 -1.5503 -1.5984
 3329TIP3    H231403   4.022   2.556   1.684  1.7976  0.6658  1.0512
 3330TIP3   OH231404   1.738   5.259  15.512 -0.1937  0.3781 -0.4023
 3330TIP3    H131405   1.703   5.178  15.477  1.1033 -1.3505  2.0037
 3330TIP3    H231406   1.822   5.270  15.467 -0.5221  0.5860 -0.9711
 3331TIP3   OH231407   2.946   4.724  17.117  0.2018 -0.2147  0.1976
 3331TIP3    H131408   2.945   4.641  17.068  1.5279 -0.5350  0.6504
 3331TIP3    H231409   2.854   4.745  17.131 -0.2076 -2.2868  1.1550
 3332TIP3   OH231410   3.739   0.841  13.159 -0.2043  0.3527 -0.2991
 3332TIP3    H131411   3.750   0.747  13.144  1.9932  0.4525  0.3524
 3332TIP3    H231412   3.729   0.849  13.254  1.6452  0.8811 -0.1063
 3333TIP3   OH231413   5.129   5.138   5.864 -0.7184  0.4569 -0.0756
 3333TIP3    H131414   5.125   5.153   5.770  2.2453  0.6127 -0.2723
 3333TIP3    H231415   5.060   5.074   5.882 -3.0906  2.3214 -1.8416
 3334TIP3   OH231416   1.509   2.344  15.963  0.3261 -0.0224  0.0779
 3334TIP3    H131417   1.457   2.280  15.914  0.0442  0.0651  0.2571
 3334TIP3    H231418   1.514   2.308  16.051 -2.4444  1.6019  1.0420
 3335TIP3   OH231419   5.982   0.849   4.813  0.4854 -0.3865 -0.7703
 3335TIP3    H131420   5.942   0.934   4.832  2.3543  0.4479 -0.3273
 3335TIP3    H231421   5.984   0.845   4.717 -1.3672 -0.8447 -0.8317
 3336TIP3   OH231422   6.058   2.367   5.683 -0.0941  0.5395 -0.3007
 3336TIP3    H131423   5.989   2.353   5.747 -0.7235 -1.1927 -1.2806
 3336TIP3    H231424   6.012   2.391   5.603  0.1802 -2.2734 -1.4376
 3337TIP3   OH231425   5.636   4.706  12.474 -0.2581  0.3912 -0.0536
 3337TIP3    H131426   5.597   4.697  12.561  1.4658 -1.9371  0.5586
 3337TIP3    H231427   5.705   4.640  12.471  1.5831  2.2485 -2.2084
 3338TIP3   OH231428   2.328   5.779   5.784  0.4369  0.0619 -0.1107
 3338TIP3    H131429   2.375   5.858   5.758 -0.7858  0.5648 -0.8604
 3338TIP3    H231430   2.299   5.795   5.873 -0.3607  0.7453 -0.4804
 3339TIP3   OH231431   4.789   1.872   0.362  0.4130 -0.1144 -0.4094
 3339TIP3    H131432   4.814   1.813   0.433 -0.3059 -0.1386 -0.1698
 3339TIP3    H231433   4.749   1.816   0.296 -2.0213  0.2587  0.6182
 3340TIP3   OH231434   3.074   1.060   0.814 -0.5133  0.3704  0.1286
 3340TIP3    H131435   2.982   1.063   0.788 -0.0953 -0.5930 -1.6738
 3340TIP3    H231436   3.098   1.152   0.827 -1.4016  0.7421 -0.7011
 3341TIP3   OH231437   2.364   3.122  13.784 -0.4250  0.6158 -0.2658
 3341TIP3    H131438   2.330   3.036  13.809 -2.9159  1.5708  0.0128
 3341TIP3    H231439   2.327   3.137  13.696  1.0114  0.9085 -0.8429
 3342TIP3   OH231440   5.889   2.002   4.560 -0.2784 -0.9033  0.4331
 3342TIP3    H131441   5.884   2.073   4.624 -1.8397 -1.4982  0.9973
 3342TIP3    H231442   5.920   1.926   4.610  0.1080 -0.9583  0.1150
 3343TIP3   OH231443   2.027   0.717  17.150  0.7359  0.5882  0.3220
 3343TIP3    H131444   2.040   0.644  17.089 -0.9457 -0.0044  0.6225
 3343TIP3    H231445   1.941   0.753  17.126  1.0888  1.8244  0.8506
 3344TIP3   OH231446   3.643   5.732  12.314 -0.0601  0.3372  0.2785
 3344TIP3    H131447   3.676   5.747  12.225 -1.8344  1.6063 -0.2346
 3344TIP3    H231448   3.591   5.652  12.307 -1.1188  1.0394 -0.1356
 3345TIP3   OH231449   0.132   5.574   2.490 -0.6167 -0.1748  0.0126
 3345TIP3    H131450   0.094   5.577   2.402 -0.0667  1.5699 -0.1869
 3345TIP3    H231451   0.056   5.581   2.549 -0.8635  0.0353 -0.3296
 3346TIP3   OH231452   6.733   4.973   2.725 -0.2940 -0.4702 -0.1892
 3346TIP3    H131453   6.806   4.968   2.664  0.4372  2.5826  0.2712
 3346TIP3    H231454   6.719   5.067   2.739 -2.8977 -0.9805  1.4332
 3347TIP3   OH231455   3.147   4.127  14.825  0.3220 -0.2965  0.0975
 3347TIP3    H131456   3.135   4.222  14.831  0.3709 -0.3221  0.7172
 3347TIP3    H231457   3.142   4.107  14.732  1.1773  0.4371 -0.1149
 3348TIP3   OH231458   3.023   2.205  14.184  0.1549  0.5222 -0.0679
 3348TIP3    H131459   3.002   2.288  14.229  1.7048  0.6212  0.5526
 3348TIP3    H231460   3.084   2.231  14.115 -0.2830  0.0389 -0.6362
 3349TIP3   OH231461   6.393   2.423   2.555 -0.1265 -0.2769 -0.1757
 3349TIP3    H131462   6.344   2.341   2.544 -3.2908  0.8864  3.2399
 3349TIP3    H231463   6.368   2.475   2.479 -3.9653  0.0013  1.0751
 3350TIP3   OH231464   1.479   3.835   4.111  0.3459  0.0811  0.3681
 3350TIP3    H131465   1.478   3.929   4.130 -0.4981 -0.2031  1.9670
 3350TIP3    H231466   1.400   3.820   4.058  0.2349  0.2121  0.4947
 3351TIP3   OH231467   2.571   3.643   2.440 -0.6098  0.3124  0.2628
 3351TIP3    H131468   2.484   3.643   2.481 -0.6559 -0.6901  0.1722
 3351TIP3    H231469   2.553   3.626   2.347 -0.4870  2.3192 -0.1849
 3352TIP3   OH231470   0.490   0.253  11.067 -0.0204  0.3462 -0.1236
 3352TIP3    H131471   0.422   0.281  11.128 -0.8882 -2.1964  0.1851
 3352TIP3    H231472   0.567   0.237  11.122 -0.6469 -1.4354  0.2829
 3353TIP3   OH231473   6.286   5.835   4.962  0.7750  0.0280  0.4505
 3353TIP3    H131474   6.214   5.896   4.943 -0.2231 -0.3339  2.8071
 3353TIP3    H231475   6.248   5.748   4.947  1.1709 -0.1233  0.3194
 3354TIP3   OH231476   2.921   5.118   2.600 -0.3919  0.0668  0.7667
 3354TIP3    H131477   2.848   5.132   2.661 -0.9269  0.3781  0.0671
 3354TIP3    H231478   2.977   5.194   2.611 -1.0384  0.6493  0.1143
 3355TIP3   OH231479   2.151   2.027  12.574  0.2204  0.3679  0.4146
 3355TIP3    H131480   2.088   1.973  12.622  1.2373  1.5635  3.3053
 3355TIP3    H231481   2.103   2.056  12.497 -0.9194 -3.1200 -0.3980
 3356TIP3   OH231482   5.795   4.749  15.078  0.2734  0.9041 -0.6665
 3356TIP3    H131483   5.785   4.826  15.022 -1.4999  1.7495  0.7021
 3356TIP3    H231484   5.809   4.785  15.166 -0.8469 -0.2890  0.0451
 3357TIP3   OH231485   5.950   6.210   2.102  0.7664  0.1466 -0.3579
 3357TIP3    H131486   5.929   6.129   2.056 -1.7290  0.1523  0.6351
 3357TIP3    H231487   5.896   6.277   2.060  0.1732  0.5814  1.0240
 3358TIP3   OH231488   2.631   0.397   1.877  0.5955  0.3089  0.6482
 3358TIP3    H131489   2.681   0.392   1.796  1.1612 -1.7834  1.0515
 3358TIP3    H231490   2.542   0.418   1.850  1.1882  1.7463 -0.2903
 3359TIP3   OH231491   6.340   3.769   3.056  0.4834  0.5325  0.6368
 3359TIP3    H131492   6.401   3.746   2.985  1.1020  0.7869  1.0719
 3359TIP3    H231493   6.391   3.827   3.113 -0.1471  0.6826  1.0551
 3360TIP3   OH231494   0.170   1.952   0.676 -0.6611 -0.3796 -0.3269
 3360TIP3    H131495   0.075   1.958   0.684 -0.6694  0.7631 -1.0504
 3360TIP3    H231496   0.186   1.927   0.585 -0.2590  0.5306 -0.5198
 3361TIP3   OH231497   2.045   2.710  11.357 -0.2675  0.2526 -0.4981
 3361TIP3    H131498   1.955   2.735  11.336 -1.0446 -0.2531  1.9003
 3361TIP3    H231499   2.078   2.668  11.278 -2.4070 -0.2344 -1.1947
 3362TIP3   OH231500   4.639   0.277  14.689  0.0987 -0.5451 -0.0218
 3362TIP3    H131501   4.701   0.265  14.617  1.1164 -1.1365  0.9218
 3362TIP3    H231502   4.557   0.239  14.658  0.3968 -0.3803 -1.0290
 3363TIP3   OH231503   0.553   0.637   2.360 -0.3701 -0.9054  0.0931
 3363TIP3    H131504   0.560   0.732   2.361 -0.7652 -0.8633  1.5320
 3363TIP3    H231505   0.611   0.609   2.289  0.1235  0.3759 -0.0336
 3364TIP3   OH231506   5.397   5.402  15.557 -0.8953  0.0923  0.3578
 3364TIP3    H131507   5.437   5.395  15.644 -2.0003 -1.1418  0.7895
 3364TIP3    H231508   5.303   5.407  15.573 -1.1034  0.0979 -0.7586
 3365TIP3   OH231509   1.656   6.678   4.451  0.3825 -0.5615 -0.2674
 3365TIP3    H131510   1.707   6.752   4.416  1.8512 -0.4795  1.8578
 3365TIP3    H231511   1.695   6.601   4.410 -1.4339 -0.2621 -2.8326
 3366TIP3   OH231512   3.163   3.155   3.743 -0.2076  0.3035 -0.0037
 3366TIP3    H131513   3.107   3.229   3.767 -0.3923 -0.1592  1.0421
 3366TIP3    H231514   3.232   3.155   3.808 -0.2871 -0.5270  0.0910
 3367TIP3   OH231515   0.288   3.093  13.758 -0.1582 -0.1288  0.0485
 3367TIP3    H131516   0.317   3.075  13.668 -2.5042 -0.4903 -0.7118
 3367TIP3    H231517   0.324   3.180  13.777  2.1768 -0.9306 -0.3723
 3368TIP3   OH231518   5.897   2.973   3.117  0.0238  0.4043  0.1580
 3368TIP3    H131519   5.957   3.038   3.153  0.5368 -0.1193  0.2705
 3368TIP3    H231520   5.813   3.018   3.113  0.7236  1.6805 -1.4817
 3369TIP3   OH231521   1.774   5.726  16.626 -0.3792 -0.4511  0.1319
 3369TIP3    H131522   1.731   5.793  16.679  0.2042  0.0463 -0.0146
 3369TIP3    H231523   1.709   5.656  16.620 -0.0246 -1.0610  2.5062
 3370TIP3   OH231524   2.960   2.982  16.981 -0.5671  0.7347  0.1707
 3370TIP3    H131525   3.005   2.994  16.898 -0.1088 -2.6426 -0.1910
 3370TIP3    H231526   3.015   3.028  17.045  0.7986  0.7195 -0.9539
 3371TIP3   OH231527   6.283   0.472  15.314 -0.0659  0.5143 -0.5258
 3371TIP3    H131528   6.233   0.484  15.233 -1.0500 -1.0035 -0.1840
 3371TIP3    H231529   6.345   0.402  15.294  1.2227  1.6348 -0.6018
 3372TIP3   OH231530   3.492   3.678   2.557 -0.3511  0.7149 -0.5749
 3372TIP3    H131531   3.527   3.701   2.471  1.5091  1.3773  0.3101
 3372TIP3    H231532   3.560   3.625   2.597  0.3081  3.0980  1.7231
 3373TIP3   OH231533   1.524   5.620   5.436  0.3434 -0.3460 -0.0006
 3373TIP3    H131534   1.507   5.560   5.363 -0.6451 -0.5966  0.4172
 3373TIP3    H231535   1.598   5.581   5.482 -0.7546 -1.6922  0.7090
 3374TIP3   OH231536   0.561   2.823  10.797 -0.1537 -0.2460  0.3413
 3374TIP3    H131537   0.638   2.793  10.750 -0.4733 -2.2664  1.0125
 3374TIP3    H231538   0.491   2.763  10.771 -1.1419  0.6121  0.9061
 3375TIP3   OH231539   2.925   5.190   5.231  0.5594  0.0816  0.6680
 3375TIP3    H131540   3.007   5.150   5.262 -0.3815 -1.5917  1.1061
 3375TIP3    H231541   2.875   5.117   5.195 -1.0752  0.9301  1.1192
 3376TIP3   OH231542   5.250   5.785  17.196  0.4195  0.1406  0.5545
 3376TIP3    H131543   5.168   5.816  17.157  0.3040  0.2626  0.8939
 3376TIP3    H231544   5.247   5.690  17.185  0.4980  0.1952  0.0498
 3377TIP3   OH231545   4.475   6.580  15.391  0.0562  0.2367  0.0694
 3377TIP3    H131546   4.492   6.639  15.318 -1.8661 -1.4174 -1.8416
 3377TIP3    H231547   4.388   6.605  15.422 -0.0810 -0.5432  0.3252
 3378TIP3   OH231548   3.970   4.545   0.869 -0.5283  0.2719  0.5861
 3378TIP3    H131549   3.955   4.614   0.934 -3.3612  1.3858 -1.0398
 3378TIP3    H231550   3.937   4.582   0.787  0.9834 -1.8306 -1.0831
 3379TIP3   OH231551   1.597   5.514  16.615 -0.2135 -0.8975  0.7025
 3379TIP3    H131552   1.514   5.507  16.567  0.7642 -2.7143 -0.8578
 3379TIP3    H231553   1.579   5.472  16.699 -1.1566 -0.2916  0.8223
 3380TIP3   OH231554   6.027   3.583   5.711 -0.1534  0.1333 -0.1331
 3380TIP3    H131555   5.941   3.541   5.722  0.3928 -1.2570 -0.9364
 3380TIP3    H231556   6.065   3.540   5.634  1.0631  1.0887 -0.0966
 3381TIP3   OH231557   6.224   2.580   6.049  0.5038 -0.2658  0.2317
 3381TIP3    H131558   6.196   2.491   6.071 -1.5177  0.4034  0.5726
 3381TIP3    H231559   6.275   2.570   5.969  0.3818 -1.7415  0.3113
 3382TIP3   OH231560   2.239   4.307  12.770  0.5070 -0.3674  0.0024
 3382TIP3    H131561   2.235   4.400  12.744  1.7531 -0.1721  0.4414
 3382TIP3    H231562   2.205   4.306  12.859  1.6698 -0.1200  0.4625
 3383TIP3   OH231563   5.712   5.143   3.684  0.0436 -0.4087 -0.1357
 3383TIP3    H131564   5.630   5.192   3.675  0.7542  0.7209 -0.8599
 3383TIP3    H231565   5.748   5.171   3.768 -0.6624 -1.4890  0.5420
 3384TIP3   OH231566   0.859   4.613  15.427 -0.0239  0.2341 -0.1368
 3384TIP3    H131567   0.833   4.669  15.500  1.0559  1.1822 -0.4519
 3384TIP3    H231568   0.831   4.525  15.453  0.4441  0.5362  1.4720
 3385TIP3   OH231569   3.014   1.200   4.746 -0.2120  0.5603 -0.3092
 3385TIP3    H131570   3.057   1.118   4.722 -0.0315  0.3057  0.8327
 3385TIP3    H231571   3.051   1.265   4.686 -0.5476 -0.2261 -1.3974
 3386TIP3   OH231572   3.959   1.168   1.830  0.2264  0.3974  0.6519
 3386TIP3    H131573   4.004   1.091   1.864  0.5970 -0.4149 -1.5126
 3386TIP3    H231574   3.866   1.144   1.832  0.4599 -1.5487 -2.9228
 3387TIP3   OH231575   0.829   0.452  14.013  0.7638  0.3183 -0.5010
 3387TIP3    H131576   0.776   0.382  14.051 -0.0068  0.9355 -0.4136
 3387TIP3    H231577   0.896   0.406  13.962  0.9429 -0.5014  0.4327
 3388TIP3   OH231578   2.474   5.329  16.654  0.0223  0.2735  0.3971
 3388TIP3    H131579   2.448   5.240  16.629  0.9732  0.1422 -0.1827
 3388TIP3    H231580   2.425   5.385  16.593  2.0695 -0.0329 -1.6743
 3389TIP3   OH231581   0.235   3.951  11.785  0.1111  0.2142 -0.6103
 3389TIP3    H131582   0.310   3.923  11.732  0.7352 -0.9837  0.8332
 3389TIP3    H231583   0.161   3.901  11.751  0.3076  0.1621 -0.9692
 3390TIP3   OH231584   6.118   3.916  13.779  0.3626  0.0246 -0.3122
 3390TIP3    H131585   6.111   4.002  13.821 -0.3149 -0.0281 -0.3134
 3390TIP3    H231586   6.135   3.855  13.850 -0.2549  0.0087 -0.1780
 3391TIP3   OH231587   1.526   4.105  12.474  0.3453  0.4340 -0.5163
 3391TIP3    H131588   1.601   4.098  12.414  0.2388  0.2318 -0.6300
 3391TIP3    H231589   1.565   4.122  12.560  0.6066 -0.7992 -0.3628
 3392TIP3   OH231590   4.819   3.013  14.800  0.4944  0.0002  0.5687
 3392TIP3    H131591   4.814   3.108  14.786  0.4211 -0.1026 -0.1770
 3392TIP3    H231592   4.798   3.001  14.892 -0.6384  0.6196  0.4131
 3393TIP3   OH231593   3.519   1.494  17.203 -0.2158 -0.3800  0.3193
 3393TIP3    H131594   3.599   1.473  17.154 -0.5513  0.6751 -0.7143
 3393TIP3    H231595   3.451   1.501  17.137 -0.9293 -0.0853  1.0697
 3394TIP3   OH231596   0.483   2.872  12.082 -0.1559  0.0230 -0.5663
 3394TIP3    H131597   0.540   2.825  12.021  0.0789 -0.1560 -0.2123
 3394TIP3    H231598   0.457   2.807  12.147 -0.6118  0.1511 -0.6135
 3395TIP3   OH231599   2.834   4.200  12.500 -0.0246  0.4613  0.0465
 3395TIP3    H131600   2.798   4.270  12.446 -0.8405 -0.9245 -1.2753
 3395TIP3    H231601   2.922   4.187  12.466 -0.0722  0.4539 -0.0715
 3396TIP3   OH231602   1.396   4.795  15.018 -0.4390  0.2733  0.3179
 3396TIP3    H131603   1.389   4.702  14.994 -1.1302  0.3621  0.1487
 3396TIP3    H231604   1.333   4.839  14.961 -0.2602  0.8203  0.5409
 3397TIP3   OH231605   3.660   0.811   4.175  0.2069  0.2781  0.1740
 3397TIP3    H131606   3.602   0.739   4.150 -1.8065  1.4253  1.2584
 3397TIP3    H231607   3.705   0.780   4.254  0.0402 -0.1210  0.1129
 3398TIP3   OH231608   6.621   2.050  14.270  0.3084 -0.1937 -0.3311
 3398TIP3    H131609   6.714   2.031  14.282  0.0055 -1.3712  0.3341
 3398TIP3    H231610   6.576   1.988  14.328 -0.8984  0.2527 -0.7543
 3399TIP3   OH231611   5.794   4.246   6.480  0.0138 -0.2673  0.0001
 3399TIP3    H131612   5.722   4.268   6.539  1.4601  0.9418  1.4276
 3399TIP3    H231613   5.801   4.322   6.422  0.0153 -0.4802 -0.2831
 3400TIP3   OH231614   3.750   3.952  15.810  0.3349 -0.1376  0.3506
 3400TIP3    H131615   3.842   3.979  15.801  0.5035 -0.9661 -0.7531
 3400TIP3    H231616   3.725   3.928  15.721 -0.7559 -0.5502  0.7617
 3401TIP3   OH231617   2.262   3.597   3.185  0.0581  0.3908  0.0637
 3401TIP3    H131618   2.166   3.599   3.194  0.1221  1.3797  0.6304
 3401TIP3    H231619   2.286   3.686   3.162  0.8886  0.2357  0.3121
 3402TIP3   OH231620   0.136   4.601  11.312  0.3136  0.2704  0.2177
 3402TIP3    H131621   0.124   4.659  11.387 -1.2856  0.9075 -0.4889
 3402TIP3    H231622   0.049   4.592  11.274  0.6591 -1.9720 -0.1744
 3403TIP3   OH231623   4.786   3.125   5.184 -0.4357 -0.2992  0.1306
 3403TIP3    H131624   4.812   3.078   5.104  0.3082  0.7224 -0.2574
 3403TIP3    H231625   4.859   3.111   5.244 -0.5778 -0.3102  0.2993
 3404TIP3   OH231626   5.091   3.371  11.737 -0.0636  0.1324  0.3053
 3404TIP3    H131627   5.005   3.396  11.703  0.1581  1.6991  0.8019
 3404TIP3    H231628   5.090   3.276  11.739 -1.7707  0.1283  0.2446
 3405TIP3   OH231629   3.682   1.577  12.883  0.0497  0.7886  0.0308
 3405TIP3    H131630   3.603   1.558  12.832  0.0613  2.0051 -0.4734
 3405TIP3    H231631   3.733   1.496  12.879 -0.4860  0.4830 -0.9082
 3406TIP3   OH231632   5.648   2.490  14.937 -0.8695 -0.0047  0.3467
 3406TIP3    H131633   5.612   2.570  14.900 -0.3914 -0.6740 -1.7167
 3406TIP3    H231634   5.741   2.508  14.947 -0.2463 -1.0117 -2.5408
 3407TIP3   OH231635   4.134   2.224   2.868 -0.1719 -0.3768 -0.4366
 3407TIP3    H131636   4.066   2.207   2.933  0.0556  0.3731  0.0061
 3407TIP3    H231637   4.098   2.292   2.812  0.8588  1.3769  0.8921
 3408TIP3   OH231638   3.274   0.290  12.976 -0.0607 -0.5274 -0.0376
 3408TIP3    H131639   3.364   0.260  12.995 -0.2901 -0.2681  1.5853
 3408TIP3    H231640   3.256   0.255  12.889  2.4767  1.3985 -1.4849
 3409TIP3   OH231641   5.067   0.107   3.891 -0.1753 -0.1309 -0.0781
 3409TIP3    H131642   4.987   0.087   3.843  0.2832 -1.1999 -0.4471
 3409TIP3    H231643   5.129   0.134   3.822  0.3273 -1.1524 -0.0497
 3410TIP3   OH231644   4.925   4.556  16.378 -0.0376 -0.0155  0.0734
 3410TIP3    H131645   4.839   4.579  16.342 -0.3641  0.1875  0.9492
 3410TIP3    H231646   4.909   4.541  16.471  0.4817 -2.1660 -0.1303
 3411TIP3   OH231647   0.865   6.368   2.200 -0.3071 -0.3525 -0.6333
 3411TIP3    H131648   0.781   6.402   2.171  0.3094  0.5214 -1.4492
 3411TIP3    H231649   0.883   6.294   2.143  0.7242  1.1275 -2.3193
 3412TIP3   OH231650   4.298   1.949   2.183 -0.0581 -0.4769 -0.4934
 3412TIP3    H131651   4.390   1.966   2.203 -0.0200 -0.5217 -0.6282
 3412TIP3    H231652   4.296   1.858   2.153 -0.1230 -0.4315 -0.6306
 3413TIP3   OH231653   0.558   3.024   3.135  0.4864  0.4436  0.1674
 3413TIP3    H131654   0.504   2.945   3.145  1.5314 -0.0658  2.8759
 3413TIP3    H231655   0.556   3.043   3.041 -0.6622 -2.1954 -0.4463
 3414TIP3   OH231656   4.169   2.240   1.368  0.2697  0.1866 -0.0729
 3414TIP3    H131657   4.233   2.182   1.409  0.5197  0.2007 -0.4362
 3414TIP3    H231658   4.182   2.227   1.274  1.2760  1.8423 -0.2071
 3415TIP3   OH231659   6.512   4.171   2.599 -0.5692  0.6237  0.1302
 3415TIP3    H131660   6.595   4.127   2.615 -0.3820  0.5478 -0.9773
 3415TIP3    H231661   6.447   4.101   2.595 -0.5325  0.5935  0.0450
 3416TIP3   OH231662   2.757   0.426   3.236  0.3920  0.0524  0.3810
 3416TIP3    H131663   2.807   0.370   3.177 -0.7067 -0.3221 -0.2260
 3416TIP3    H231664   2.691   0.367   3.273 -0.1464  0.7259  0.5002
 3417TIP3   OH231665   1.350   1.004   4.215  0.1097 -0.6392 -0.7583
 3417TIP3    H131666   1.445   1.000   4.204  0.2800 -1.2031  0.7473
 3417TIP3    H231667   1.334   1.086   4.261 -0.0618 -0.8526 -0.4309
 3418TIP3   OH231668   1.158   0.839  12.014 -0.1646  0.2445 -0.8082
 3418TIP3    H131669   1.238   0.812  11.970  0.4408 -0.3199  0.5888
 3418TIP3    H231670   1.089   0.787  11.972  0.5731 -1.2342 -0.2647
 3419TIP3   OH231671   3.888   1.416   2.701 -0.3749  0.5707  0.2019
 3419TIP3    H131672   3.957   1.405   2.635 -0.8115 -0.0691 -0.1538
 3419TIP3    H231673   3.915   1.494   2.750  0.1468  0.8480 -0.4976
 3420TIP3   OH231674   4.116   0.534   2.905 -0.3963 -0.0543 -0.6350
 3420TIP3    H131675   4.168   0.548   2.826  1.9331  0.8655  0.9461
 3420TIP3    H231676   4.175   0.490   2.965 -2.3199 -1.3572  0.4114
 3421TIP3   OH231677   6.395   4.877  11.461  0.1553 -0.2002  0.7808
 3421TIP3    H131678   6.338   4.804  11.485 -0.0811 -0.2093  0.2162
 3421TIP3    H231679   6.417   4.860  11.369  0.6668  0.0672  0.8547
 3422TIP3   OH231680   4.042   1.951  11.391  0.0509 -0.5674 -0.0395
 3422TIP3    H131681   3.993   1.969  11.310  0.3391 -0.7624 -0.2568
 3422TIP3    H231682   4.047   2.036  11.435  1.1568 -0.1533 -0.9226
 3423TIP3   OH231683   6.071   5.254   2.270 -0.4931 -0.5905 -0.2184
 3423TIP3    H131684   6.092   5.162   2.251 -1.4700 -1.0327  0.7817
 3423TIP3    H231685   6.105   5.269   2.358 -3.2534 -1.0074  1.0013
 3424TIP3   OH231686   6.560   2.886   1.208 -0.1684  0.2655 -0.2612
 3424TIP3    H131687   6.652   2.861   1.203  0.3061  1.0778  2.5840
 3424TIP3    H231688   6.515   2.826   1.148  2.2799  0.6032 -2.6543
 3425TIP3   OH231689   5.903   0.230  12.972  0.0677  0.1750 -0.2088
 3425TIP3    H131690   5.958   0.152  12.973  1.2775  1.0022 -0.1352
 3425TIP3    H231691   5.911   0.264  12.883 -2.3823 -1.0556 -0.9974
 3426TIP3   OH231692   0.181   4.320   2.799 -0.1294  0.3288  0.1796
 3426TIP3    H131693   0.257   4.271   2.769  0.8228  2.0594 -0.4106
 3426TIP3    H231694   0.213   4.410   2.809 -2.2876  1.3116 -0.9962
 3427TIP3   OH231695   2.410   5.987  16.817 -0.1754 -0.0051  0.2883
 3427TIP3    H131696   2.327   5.943  16.834 -0.7930  1.0420  0.0816
 3427TIP3    H231697   2.418   6.050  16.889 -1.4606  2.5380 -1.6040
 3428TIP3   OH231698   4.861   5.071  13.260 -0.3111  0.1329  0.7449
 3428TIP3    H131699   4.849   4.976  13.262 -2.0892  0.2465 -1.2287
 3428TIP3    H231700   4.804   5.101  13.189  1.4582  2.5014  0.2061
 3429TIP3   OH231701   2.741   6.098   0.204  0.5562  0.8058  0.6298
 3429TIP3    H131702   2.729   6.106   0.299  1.7314  0.8228  0.7890
 3429TIP3    H231703   2.813   6.157   0.184  0.2114  0.9244 -0.3126
 3430TIP3   OH231704   3.012   1.465   5.808 -0.1060  0.0514  0.6672
 3430TIP3    H131705   3.081   1.480   5.744 -0.4991 -1.1805 -0.0840
 3430TIP3    H231706   2.953   1.540   5.798 -0.0672 -0.0382 -0.2832
 3431TIP3   OH231707   3.604   3.776  13.567  0.2525 -0.2070 -0.2371
 3431TIP3    H131708   3.624   3.688  13.599 -0.6591  0.5123  2.6213
 3431TIP3    H231709   3.667   3.833  13.612 -1.7511  0.9785  1.2375
 3432TIP3   OH231710   3.501   1.543   3.064  0.1216  0.0323  0.1181
 3432TIP3    H131711   3.524   1.471   3.007 -0.7187  0.7055 -1.1172
 3432TIP3    H231712   3.557   1.615   3.036 -1.3901  0.8324 -0.9761
 3433TIP3   OH231713   4.668   3.925   5.887  0.0890  0.1359 -0.1236
 3433TIP3    H131714   4.741   3.977   5.855  1.4381 -1.8208 -0.3508
 3433TIP3    H231715   4.705   3.873   5.959 -1.1305 -0.7228 -0.0854
 3434TIP3   OH231716   2.834   5.290  14.555 -0.2060  0.3187 -0.6055
 3434TIP3    H131717   2.740   5.303  14.570  0.3978  1.3241  3.6717
 3434TIP3    H231718   2.852   5.338  14.475 -3.0740  1.5019 -0.6734
 3435TIP3   OH231719   0.266   6.525  16.881  0.3042 -0.8020 -0.0102
 3435TIP3    H131720   0.317   6.509  16.802  0.7627 -1.5309  0.4230
 3435TIP3    H231721   0.307   6.471  16.948 -2.2075 -2.9746 -0.0711
 3436TIP3   OH231722   1.201   5.109  11.840  0.1546  0.4776 -0.8872
 3436TIP3    H131723   1.180   5.088  11.931  1.2017 -0.0581 -0.7597
 3436TIP3    H231724   1.250   5.033  11.808 -0.3994  0.5553 -1.9790
 3437TIP3   OH231725   4.605   1.701  13.728  0.5544  0.5176  0.0144
 3437TIP3    H131726   4.613   1.777  13.671 -0.0022 -0.7502 -1.8721
 3437TIP3    H231727   4.528   1.719  13.782 -0.7464  0.5175 -1.7621
 3438TIP3   OH231728   2.925   1.239   6.381  0.1625  0.2133  0.4278
 3438TIP3    H131729   2.868   1.293   6.435 -0.1068 -1.1805  1.5762
 3438TIP3    H231730   2.866   1.195   6.320  0.2885  0.5235  0.0748
 3439TIP3   OH231731   0.815   3.466   2.293  0.6055  0.2735  0.0992
 3439TIP3    H131732   0.853   3.521   2.224  1.0926  0.9012  0.8573
 3439TIP3    H231733   0.826   3.376   2.260  0.1951  0.5832 -0.9512
 3440TIP3   OH231734   0.298   2.399   0.401 -0.1648  0.4964  0.0032
 3440TIP3    H131735   0.300   2.372   0.492 -0.2310  0.5439  0.0191
 3440TIP3    H231736   0.317   2.320   0.351  0.2374  0.5494  0.0728
 3441TIP3   OH231737   3.678   3.266   1.605 -0.1022  0.2463  0.5399
 3441TIP3    H131738   3.644   3.181   1.578  1.0142  0.0200 -0.2564
 3441TIP3    H231739   3.771   3.249   1.624 -0.2110  0.9834  1.8787
 3442TIP3   OH231740   3.179   3.411   1.864 -1.0516  0.1972  0.0790
 3442TIP3    H131741   3.123   3.428   1.789 -3.0758 -0.4457  1.3493
 3442TIP3    H231742   3.231   3.491   1.873 -1.1737  0.5100 -1.6405
 3443TIP3   OH231743   0.807   0.016   2.869 -0.1467  0.4551  0.0607
 3443TIP3    H131744   0.718   0.038   2.839 -0.4703 -0.5533  0.2435
 3443TIP3    H231745   0.797  -0.067   2.914  0.6263  1.1286  1.5283
 3444TIP3   OH231746   3.271   1.726  11.416 -0.3148  0.1967  0.0679
 3444TIP3    H131747   3.304   1.749  11.329 -0.1532  0.2597  0.1454
 3444TIP3    H231748   3.279   1.630  11.420  0.2559  0.2521  0.2459
 3445TIP3   OH231749   3.281   0.494   0.497 -0.5994  0.3128  0.2033
 3445TIP3    H131750   3.363   0.446   0.484  0.2739  1.4556  1.2699
 3445TIP3    H231751   3.305   0.586   0.487 -1.8317  0.6583  0.2051
 3446TIP3   OH231752   3.913   2.247   3.349 -0.1166  0.4527  0.0211
 3446TIP3    H131753   3.901   2.320   3.410 -1.5460 -0.0146  0.3258
 3446TIP3    H231754   3.988   2.198   3.385 -0.2729  0.7804  0.8022
 3447TIP3   OH231755   1.644   5.603  16.028  0.1352  0.0667  0.2559
 3447TIP3    H131756   1.634   5.686  16.075 -0.8971 -0.5101  1.0984
 3447TIP3    H231757   1.561   5.557  16.043  0.0701 -0.4656 -1.5255
 3448TIP3   OH231758   1.228   4.248   4.841  0.3089 -0.0261  0.3453
 3448TIP3    H131759   1.321   4.244   4.865  0.3096  1.5227  0.7072
 3448TIP3    H231760   1.189   4.304   4.908 -0.5259  0.8637 -0.8494
 3449TIP3   OH231761   2.105   6.503   4.874  0.4531 -0.1992  0.1007
 3449TIP3    H131762   2.080   6.518   4.965 -0.1878  1.3694 -0.2925
 3449TIP3    H231763   2.022   6.487   4.829  0.6432  0.1288 -0.3788
 3450TIP3   OH231764   0.220   1.567  11.392 -0.1909  0.2311  0.0437
 3450TIP3    H131765   0.161   1.518  11.336 -0.4596  0.2721  0.2871
 3450TIP3    H231766   0.163   1.628  11.440  0.0375  0.2269  0.3268
 3451TIP3   OH231767   4.206   1.251  11.582 -0.4921  0.0708 -0.1117
 3451TIP3    H131768   4.289   1.254  11.536 -0.2753 -1.8307  0.0455
 3451TIP3    H231769   4.154   1.321  11.544  1.3446  1.6443  0.1506
 3452TIP3   OH231770   0.874   1.523  17.190  0.2790 -0.7908 -0.0182
 3452TIP3    H131771   0.802   1.463  17.170 -1.9307  1.4516  0.5928
 3452TIP3    H231772   0.929   1.476  17.252 -0.6949 -2.5683 -0.4482
 3453TIP3   OH231773   0.397   2.724   0.019 -0.1627  0.5935 -0.0466
 3453TIP3    H131774   0.374   2.709  -0.072  0.8819 -0.8489 -0.1156
 3453TIP3    H231775   0.492   2.707   0.023 -0.0620  1.3138  1.1640
 3454TIP3   OH231776   0.130   3.718  15.367  0.0940 -0.0703  0.7723
 3454TIP3    H131777   0.042   3.682  15.365  0.5623 -1.3384  1.5813
 3454TIP3    H231778   0.123   3.798  15.419 -0.6962  0.2303  0.2169
 3455TIP3   OH231779   5.411   2.692  15.576 -0.7482  0.1339  0.5778
 3455TIP3    H131780   5.488   2.699  15.632 -0.6049 -0.7644  0.5112
 3455TIP3    H231781   5.447   2.682  15.487 -0.9436 -0.2324  0.5409
 3456TIP3   OH231782   3.799   5.139  17.102 -0.7830  0.1694  0.0066
 3456TIP3    H131783   3.851   5.211  17.139 -1.1869  1.4106 -1.7401
 3456TIP3    H231784   3.778   5.084  17.178  0.7424  1.1069  1.1786
 3457TIP3   OH231785   1.263   1.714  11.163 -0.6147  0.0748  0.3677
 3457TIP3    H131786   1.192   1.779  11.166  0.6804  1.6126 -0.4081
 3457TIP3    H231787   1.289   1.711  11.070  0.7662  0.0694  0.7273
 3458TIP3   OH231788   3.755   5.044   2.130  0.3219 -0.7722 -0.0985
 3458TIP3    H131789   3.816   4.976   2.102 -0.1907 -0.4568 -2.1484
 3458TIP3    H231790   3.800   5.126   2.110  0.5827 -0.4959  1.5480
 3459TIP3   OH231791   0.579   6.017   2.849  0.5109  0.1486 -0.2179
 3459TIP3    H131792   0.528   6.076   2.905 -0.9034 -1.1368 -0.0707
 3459TIP3    H231793   0.540   6.027   2.762 -0.6826 -1.4931  0.0710
 3460TIP3   OH231794   6.107   3.498   0.376 -0.1644  0.0132 -0.7432
 3460TIP3    H131795   6.127   3.568   0.437  2.5635 -0.7663 -0.5948
 3460TIP3    H231796   6.031   3.454   0.413 -0.5350  1.5139  0.3487
 3461TIP3   OH231797   0.388   6.623  15.045 -0.1337 -0.1826  0.8672
 3461TIP3    H131798   0.475   6.612  15.006 -1.5293 -0.7007 -2.4271
 3461TIP3    H231799   0.353   6.703  15.005 -0.6670  0.9567  3.3660
 3462TIP3   OH231800   5.034   1.728   6.195 -0.1356 -0.5045  0.0157
 3462TIP3    H131801   5.067   1.818   6.199  0.4592 -0.6654 -0.9621
 3462TIP3    H231802   4.942   1.735   6.220 -0.2206  0.4608 -0.5016
 3463TIP3   OH231803   0.189   6.539   3.482  0.4139  0.4754  0.0086
 3463TIP3    H131804   0.269   6.487   3.488 -0.0804 -0.1492  1.3760
 3463TIP3    H231805   0.220   6.628   3.466  1.6330  0.8572  3.6464
 3464TIP3   OH231806   3.813   6.023  13.625  0.0406  0.1288  1.0567
 3464TIP3    H131807   3.778   6.060  13.544  1.9639  0.2481  0.2096
 3464TIP3    H231808   3.753   5.952  13.647  0.6564 -1.4814 -1.8305
 3465TIP3   OH231809   5.370   6.036   3.765 -0.0140  0.1484 -0.0147
 3465TIP3    H131810   5.304   5.975   3.732 -0.7952 -0.3794  2.2970
 3465TIP3    H231811   5.327   6.121   3.764  0.1650  0.2385 -0.8104
 3466TIP3   OH231812   1.861   4.169  12.008  0.6350 -0.2597 -0.6449
 3466TIP3    H131813   1.784   4.151  12.061  0.5751  0.3743 -0.5071
 3466TIP3    H231814   1.935   4.146  12.065  0.5611 -0.1036 -0.4840
 3467TIP3   OH231815   6.097   4.120  12.993 -0.0972 -0.0779  0.5349
 3467TIP3    H131816   6.117   4.127  12.899  1.1925  2.1621  0.8832
 3467TIP3    H231817   6.071   4.029  13.006 -0.2308 -0.4676 -1.9734
 3468TIP3   OH231818   1.327   6.086   0.198 -0.4270 -0.6591  0.4254
 3468TIP3    H131819   1.326   5.995   0.228  1.6682 -0.5920  0.8190
 3468TIP3    H231820   1.322   6.138   0.278 -1.2968 -0.3948  0.2180
 3469TIP3   OH231821   0.518   0.942   5.026 -0.1357 -0.1161  0.0210
 3469TIP3    H131822   0.513   1.036   5.047  0.4351  0.0084 -0.3719
 3469TIP3    H231823   0.452   0.902   5.083  1.0201  0.2732  1.7407
 3470TIP3   OH231824   0.849   1.160  17.053 -0.4346  0.0976  0.4903
 3470TIP3    H131825   0.770   1.205  17.081 -1.4623 -1.5615  0.3561
 3470TIP3    H231826   0.845   1.162  16.957  0.0891  0.6400  0.4666
 3471TIP3   OH231827   6.020   2.293   2.583  0.4215 -0.0341 -0.4565
 3471TIP3    H131828   5.973   2.353   2.524 -0.2049 -1.3706 -1.3644
 3471TIP3    H231829   5.970   2.297   2.665  0.3520  0.6283 -0.5251
 3472TIP3   OH231830   1.209   1.760  14.854 -0.1731  0.0450 -0.0360
 3472TIP3    H131831   1.291   1.781  14.898  0.6754 -0.0419 -1.4986
 3472TIP3    H231832   1.235   1.742  14.763 -1.9927  1.6857 -0.9539
 3473TIP3   OH231833   4.875   2.532  16.505  0.6600  0.5392  0.0263
 3473TIP3    H131834   4.792   2.491  16.530  1.0014  0.1882  0.5966
 3473TIP3    H231835   4.942   2.470  16.533  1.0588 -0.1471 -2.2217
 3474TIP3   OH231836   4.348   5.272  15.075 -0.1909 -0.2186 -0.4446
 3474TIP3    H131837   4.337   5.348  15.132  0.1174  0.2016 -0.9357
 3474TIP3    H231838   4.367   5.199  15.134  2.3323  0.6186 -0.1312
 3475TIP3   OH231839   4.907   6.706   2.004  0.5601 -0.3159  0.5810
 3475TIP3    H131840   4.971   6.776   2.015  1.7284 -0.8328 -2.1063
 3475TIP3    H231841   4.957   6.634   1.965 -1.2176 -1.5563  0.4837
 3476TIP3   OH231842   0.262   4.412  15.340 -0.2672  0.0544 -0.1947
 3476TIP3    H131843   0.206   4.485  15.314  0.6979  1.0203  0.3417
 3476TIP3    H231844   0.242   4.398  15.432 -0.1580 -0.0847 -0.1913
 3477TIP3   OH231845   1.532   3.585  11.672  0.3932  0.0127 -0.7726
 3477TIP3    H131846   1.478   3.643  11.618  0.4703  1.2970  0.4794
 3477TIP3    H231847   1.540   3.505  11.620 -0.3636  0.8276 -2.2097
 3478TIP3   OH231848   1.240   5.179   0.168 -0.1106 -0.0156  0.3385
 3478TIP3    H131849   1.243   5.183   0.073  0.2773  0.2390  0.3589
 3478TIP3    H231850   1.147   5.179   0.190 -0.2037  1.5829  0.0240
 3479TIP3   OH231851   3.278   5.156   6.345  0.2143  0.2076  0.0054
 3479TIP3    H131852   3.315   5.243   6.334  0.2768  0.3554  1.2450
 3479TIP3    H231853   3.273   5.143   6.439  0.6105 -1.2986 -0.1439
 3480TIP3   OH231854   5.866   0.387  12.733 -0.0530 -0.5744  0.3019
 3480TIP3    H131855   5.928   0.341  12.677 -0.1371 -0.6042  0.2329
 3480TIP3    H231856   5.844   0.467  12.686  0.3077 -0.3258  0.5494
 3481TIP3   OH231857   1.417   6.284   0.744  0.3332  0.0231 -0.0974
 3481TIP3    H131858   1.335   6.284   0.793 -0.1108  1.6812 -0.7664
 3481TIP3    H231859   1.475   6.342   0.793  0.4545  0.3493 -0.6115
 3482TIP3   OH231860   5.960   3.410  16.696  0.0986 -0.2305  0.3194
 3482TIP3    H131861   6.006   3.494  16.700 -1.7632  0.8079  1.2638
 3482TIP3    H231862   5.933   3.394  16.786  0.2675 -1.7818  0.1118
 3483TIP3   OH231863   3.381   0.932  17.165 -0.4798 -0.2029 -0.5914
 3483TIP3    H131864   3.471   0.904  17.148  0.3274  2.0865 -0.4360
 3483TIP3    H231865   3.327   0.865  17.123  1.1489 -3.3676  1.8994
 3484TIP3   OH231866   5.808   1.401  14.500 -0.0709  0.0004  0.9059
 3484TIP3    H131867   5.885   1.382  14.445  0.7762 -0.9742  2.3756
 3484TIP3    H231868   5.826   1.487  14.537  1.0578 -0.8540  2.4176
 3485TIP3   OH231869   4.822   3.704  15.903  0.0010  0.0273 -0.1902
 3485TIP3    H131870   4.734   3.735  15.923 -0.1292  0.4595 -1.3735
 3485TIP3    H231871   4.812   3.655  15.821  0.6446 -1.0112  0.3338
 3486TIP3   OH231872   1.106   1.832  13.186 -0.0062  0.7909 -0.1571
 3486TIP3    H131873   1.126   1.763  13.124  0.0480  0.8094 -0.1603
 3486TIP3    H231874   1.141   1.800  13.270 -0.3610  0.6253 -0.0700
 3487TIP3   OH231875   6.310   2.279   4.281 -0.1783  0.0590 -0.5681
 3487TIP3    H131876   6.244   2.304   4.216 -1.1072 -1.1774 -0.1382
 3487TIP3    H231877   6.358   2.206   4.240  3.1022  2.8451 -2.1876
 3488TIP3   OH231878   4.980   0.418   2.911 -0.1249 -0.0310 -0.0523
 3488TIP3    H131879   4.913   0.427   2.979  1.0336  0.0172  1.1111
 3488TIP3    H231880   5.063   0.413   2.958  0.7597  0.3912 -1.4807
 3489TIP3   OH231881   0.450   1.371  14.793 -0.2445 -0.1371 -0.2005
 3489TIP3    H131882   0.385   1.336  14.853  0.5880  1.6821  1.9230
 3489TIP3    H231883   0.527   1.388  14.848  0.7460  1.1456 -1.8715
 3490TIP3   OH231884   3.156   4.336  11.792 -0.7894 -0.2176  0.0846
 3490TIP3    H131885   3.064   4.323  11.769 -0.5855  0.3963 -1.1692
 3490TIP3    H231886   3.193   4.381  11.716  0.2506  0.7070  1.1071
 3491TIP3   OH231887   0.909   1.556   3.965  0.0381  0.2164 -0.3089
 3491TIP3    H131888   0.946   1.475   4.001 -0.3174 -0.1372 -0.7276
 3491TIP3    H231889   0.973   1.585   3.900 -0.2149 -0.1744 -0.7402
 3492TIP3   OH231890   5.024   3.205  15.691 -0.2166 -0.1339  0.1135
 3492TIP3    H131891   5.110   3.195  15.733  0.6675 -0.7722 -1.7251
 3492TIP3    H231892   4.964   3.158  15.749  0.9118 -0.8601  0.7525
 3493TIP3   OH231893   0.775   2.550   6.172  0.3438  0.2365 -0.0293
 3493TIP3    H131894   0.693   2.549   6.221  1.2102  0.2144  1.4955
 3493TIP3    H231895   0.841   2.576   6.237  1.5204  0.3745 -1.2431
 3494TIP3   OH231896   3.010   4.731  14.012 -0.1042 -0.0321  0.7674
 3494TIP3    H131897   3.083   4.678  14.045  1.0454  0.9131 -0.1506
 3494TIP3    H231898   2.960   4.672  13.956  1.1887 -0.1882 -0.2800
 3495TIP3   OH231899   5.503   3.096  12.345  0.1175 -0.1376 -0.1987
 3495TIP3    H131900   5.545   3.180  12.328 -0.2717 -0.2708 -2.0036
 3495TIP3    H231901   5.573   3.032  12.338  0.0579 -0.1384 -0.8859
 3496TIP3   OH231902   4.339   6.743  13.619 -0.3354  0.2968  0.3722
 3496TIP3    H131903   4.297   6.661  13.592  1.1211 -0.6451  0.8732
 3496TIP3    H231904   4.429   6.736  13.586 -0.1306  1.6146  0.5989
 3497TIP3   OH231905   2.179   1.704   4.887  0.1213 -0.2919  0.1421
 3497TIP3    H131906   2.272   1.718   4.905 -0.3168  3.6115  0.1777
 3497TIP3    H231907   2.170   1.609   4.877  3.7456 -0.9594  1.8635
 3498TIP3   OH231908   1.881   3.681  13.526  0.4002 -0.4571 -0.6581
 3498TIP3    H131909   1.966   3.694  13.569  0.2546  1.2831 -0.8066
 3498TIP3    H231910   1.879   3.748  13.457 -1.5893  0.4234  0.1750
 3499TIP3   OH231911   0.095   4.928  13.360 -0.6168  0.1998  0.3357
 3499TIP3    H131912   0.121   4.842  13.393 -2.3574  0.1163  1.6094
 3499TIP3    H231913   0.120   4.926  13.267 -2.0799 -2.3271 -0.0925
 3500TIP3   OH231914   3.182   1.304   6.287 -0.4271  0.2427 -0.0878
 3500TIP3    H131915   3.093   1.319   6.318 -1.3591 -1.4010 -1.8030
 3500TIP3    H231916   3.226   1.262   6.361 -0.9186  1.4106  0.9079
 3501TIP3   OH231917   0.106   1.373  14.746 -0.0544  0.1643  0.2543
 3501TIP3    H131918   0.113   1.396  14.653  1.3562 -0.3021  0.2198
 3501TIP3    H231919   0.123   1.455  14.792  1.0790  0.0330  0.1002
 3502TIP3   OH231920   1.464   3.728  15.117 -0.5778 -0.5121  0.0459
 3502TIP3    H131921   1.539   3.729  15.176 -0.8429 -0.3023  0.3902
 3502TIP3    H231922   1.391   3.699  15.173 -1.1014  0.9163  0.1588
 3503TIP3   OH231923   1.076   3.497   6.242  0.1728 -0.6532 -0.1284
 3503TIP3    H131924   1.061   3.582   6.284  0.4664 -0.9855  0.6556
 3503TIP3    H231925   1.110   3.441   6.311 -0.3829 -1.5302 -0.5392
 3504TIP3   OH231926   4.308   5.825   1.227  0.3016 -0.1635 -0.8446
 3504TIP3    H131927   4.227   5.856   1.186  0.0221 -0.8739 -0.8502
 3504TIP3    H231928   4.280   5.785   1.309  0.5533 -1.0453 -1.1763
 3505TIP3   OH231929   2.441   4.517  16.460  0.1598  0.0245  0.3188
 3505TIP3    H131930   2.527   4.534  16.423  0.1201 -1.3867 -0.5261
 3505TIP3    H231931   2.384   4.584  16.422  0.4815 -0.3194 -0.8192
 3506TIP3   OH231932   3.983   3.925  13.025 -0.1546  0.5547 -0.1904
 3506TIP3    H131933   4.048   3.979  13.072  0.0189 -1.4647  2.0742
 3506TIP3    H231934   4.025   3.906  12.941  1.1459  1.2760  0.2603
 3507TIP3   OH231935   1.556   2.115  13.117 -0.0960 -0.0238 -0.5344
 3507TIP3    H131936   1.568   2.201  13.157 -0.5124 -1.2110  2.3077
 3507TIP3    H231937   1.644   2.089  13.091  0.3424  0.4119  0.4590
 3508TIP3   OH231938   3.314   2.656   1.803  0.2109  0.7474 -0.1277
 3508TIP3    H131939   3.403   2.683   1.780  1.0147 -0.7888  0.9766
 3508TIP3    H231940   3.322   2.623   1.892 -1.2783 -0.2991 -0.3544
 3509TIP3   OH231941   4.107   2.746   1.967  0.8149  0.0314  0.0849
 3509TIP3    H131942   4.024   2.714   1.930  0.8636 -2.2718  1.7488
 3509TIP3    H231943   4.143   2.803   1.899 -1.7736  0.5435 -0.9880
 3510TIP3   OH231944   2.161   5.772  15.223  0.4237  0.2587 -0.6366
 3510TIP3    H131945   2.186   5.687  15.260  1.7859  0.4184 -1.1426
 3510TIP3    H231946   2.070   5.760  15.196  0.5813 -1.0307 -0.6707
 3511TIP3   OH231947   5.947   2.055   0.589  0.1016 -0.3175  0.3304
 3511TIP3    H131948   5.864   2.028   0.628  0.4068 -0.4858  0.8741
 3511TIP3    H231949   6.012   1.997   0.628  0.4572 -0.2872 -0.2074
 3512TIP3   OH231950   5.290   5.771   0.245 -0.1938  0.2338 -0.0324
 3512TIP3    H131951   5.238   5.795   0.169  1.7386 -0.9144 -1.8492
 3512TIP3    H231952   5.355   5.841   0.253 -1.4273  1.2764  1.7592
 3513TIP3   OH231953   4.726   5.384  12.806  0.3436 -0.3415  0.0173
 3513TIP3    H131954   4.635   5.393  12.834  0.5419  0.1313  0.5184
 3513TIP3    H231955   4.720   5.337  12.723 -0.2955 -1.1691  0.5145
 3514TIP3   OH231956   5.585   5.070   2.599  0.0314  0.5588  0.2373
 3514TIP3    H131957   5.619   5.027   2.520  0.3086  1.2978 -0.0596
 3514TIP3    H231958   5.601   5.163   2.584 -0.7946  0.7972  0.7455
 3515TIP3   OH231959   6.064   1.206   3.426 -0.1528 -0.0511  0.4218
 3515TIP3    H131960   5.981   1.183   3.467 -0.6782  0.5690 -0.2709
 3515TIP3    H231961   6.107   1.122   3.410 -0.3652 -0.3438  1.3389
 3516TIP3   OH231962   6.477   0.522  15.076  0.6593  0.3080  0.4587
 3516TIP3    H131963   6.542   0.581  15.115  1.1603 -0.1874  0.3800
 3516TIP3    H231964   6.489   0.439  15.122 -0.2084  0.3288  0.7345
 3517TIP3   OH231965   1.865   4.018  14.907  0.5089  0.7340  0.1580
 3517TIP3    H131966   1.818   4.034  14.989 -1.6135  1.8097 -1.1824
 3517TIP3    H231967   1.924   4.093  14.898  1.4122  0.1649  1.0870
 3518TIP3   OH231968   3.166   1.805  15.941  0.2109 -0.1575  0.1302
 3518TIP3    H131969   3.237   1.819  16.003 -0.0953 -0.4034  0.5463
 3518TIP3    H231970   3.183   1.719  15.903  0.3869 -0.0160 -0.1170
 3519TIP3   OH231971   4.091   3.658  17.360 -0.1074  0.1910 -0.0277
 3519TIP3    H131972   4.077   3.748  17.330  1.0804  0.1184 -0.8936
 3519TIP3    H231973   4.063   3.604  17.286 -2.4704 -0.2775  1.1093
 3520TIP3   OH231974   2.675   2.166   6.076  0.1360 -0.1061  0.2393
 3520TIP3    H131975   2.629   2.090   6.111  0.0341 -0.5479 -0.8344
 3520TIP3    H231976   2.614   2.205   6.014  0.6572  0.1273 -0.1383
 3521TIP3   OH231977   5.844   0.832   4.226  0.0403 -0.5998 -0.4678
 3521TIP3    H131978   5.794   0.752   4.211 -1.6444  0.0972  1.0810
 3521TIP3    H231979   5.799   0.898   4.173 -0.3160 -0.0965  0.4466
 3522TIP3   OH231980   4.024   4.898   4.589  0.3091  0.5143  0.1147
 3522TIP3    H131981   3.964   4.898   4.663 -1.1361 -0.8838 -0.9653
 3522TIP3    H231982   4.061   4.986   4.587  0.0634  0.7014  2.2133
 3523TIP3   OH231983   5.429   5.406   3.176  0.3386 -0.0918  0.7580
 3523TIP3    H131984   5.453   5.499   3.176 -0.3332  0.0835  0.9451
 3523TIP3    H231985   5.398   5.389   3.087  0.4526 -0.1355  0.7262
 3524TIP3   OH231986   3.826   5.447   1.858 -0.2647 -0.2789  0.1810
 3524TIP3    H131987   3.861   5.373   1.908 -0.2290  0.3652  1.1346
 3524TIP3    H231988   3.889   5.518   1.873  0.6274 -0.4755 -2.0815
 3525TIP3   OH231989   3.626   5.917  15.537  0.2281  0.0401 -0.4387
 3525TIP3    H131990   3.582   5.841  15.500 -0.2825  0.7380 -1.3050
 3525TIP3    H231991   3.557   5.964  15.584  0.4233  0.2390 -0.3478
 3526TIP3   OH231992   5.540   1.216  16.346  0.2239  0.5524 -0.2409
 3526TIP3    H131993   5.530   1.267  16.426 -1.5321 -0.6831  0.4117
 3526TIP3    H231994   5.610   1.153  16.365  1.2462  1.5844 -0.4660
 3527TIP3   OH231995   2.205   4.420  14.263  0.2583  0.2662  0.1571
 3527TIP3    H131996   2.118   4.384  14.282  0.2477  0.2343  0.0524
 3527TIP3    H231997   2.250   4.350  14.216 -0.5357  1.1475 -2.0743
 3528TIP3   OH231998   1.211   6.634   1.752 -0.0646  0.6454  0.2010
 3528TIP3    H131999   1.246   6.564   1.807 -0.8798  0.8161  0.9514
 3528TIP3    H232000   1.287   6.668   1.706  0.3146 -0.9214 -0.4078
 3529TIP3   OH232001   1.281   2.949   2.979 -0.1188 -0.5612 -0.2853
 3529TIP3    H132002   1.226   2.871   2.984  0.3955 -0.8891  0.4483
 3529TIP3    H232003   1.273   2.978   2.888 -0.3216 -1.4697 -0.5642
 3530TIP3   OH232004   1.858   6.062  13.684  0.3269  0.0750 -0.0447
 3530TIP3    H132005   1.878   6.061  13.590  0.9735  0.9372  0.0758
 3530TIP3    H232006   1.809   5.981  13.699  1.7533 -0.9674 -0.7874
 3531TIP3   OH232007   0.981   2.638  14.274  0.3689  0.7985 -0.5627
 3531TIP3    H132008   1.031   2.707  14.231  0.1179  0.2941 -1.6916
 3531TIP3    H232009   1.006   2.557  14.229  1.2652  0.0038  1.2560
 3532TIP3   OH232010   3.698   4.126  16.017 -0.1420 -0.6431  0.4914
 3532TIP3    H132011   3.758   4.197  15.993 -1.5213 -0.3646 -2.5723
 3532TIP3    H232012   3.710   4.061  15.948 -1.5615 -1.7149  1.2183
 3533TIP3   OH232013   1.928   0.911  13.605 -0.6523 -0.2931  0.1661
 3533TIP3    H132014   1.875   0.972  13.553  0.1068 -0.2888 -0.6279
 3533TIP3    H232015   1.944   0.957  13.687  0.5616  0.9278 -0.7163
 3534TIP3   OH232016   1.905   3.331  17.060  0.0524  0.5869 -0.5030
 3534TIP3    H132017   2.000   3.339  17.066 -0.1448  2.4108  0.8962
 3534TIP3    H232018   1.883   3.257  17.117  0.6180  0.2496 -0.7225
 3535TIP3   OH232019   2.525   1.362  12.185  0.0222 -0.6709  0.1455
 3535TIP3    H132020   2.556   1.272  12.172 -0.2256 -0.7243 -0.0731
 3535TIP3    H232021   2.433   1.353  12.209 -0.0115 -0.4723  0.0951
 3536TIP3   OH232022   2.774   0.630   4.863 -0.2195 -0.0847  0.1991
 3536TIP3    H132023   2.812   0.716   4.846 -0.3243  0.4587  2.4043
 3536TIP3    H232024   2.843   0.582   4.910  0.1465 -1.5473 -1.7032
 3537TIP3   OH232025   1.336   1.398   5.673 -0.5104  0.3682 -0.2223
 3537TIP3    H132026   1.382   1.328   5.718 -1.4969  2.2958  4.2615
 3537TIP3    H232027   1.296   1.355   5.597  1.8588 -3.0288  0.2321
 3538TIP3   OH232028   1.850   2.360  17.360  0.4958 -0.0764  0.1176
 3538TIP3    H132029   1.834   2.266  17.372  0.5182 -0.0355  0.4992
 3538TIP3    H232030   1.944   2.365  17.341  0.1729 -0.2768 -1.6656
 3539TIP3   OH232031   1.132   5.483  11.524  0.7850 -0.1243 -0.0524
 3539TIP3    H132032   1.057   5.429  11.497  1.1923  0.0241 -1.6220
 3539TIP3    H232033   1.132   5.556  11.462  1.4651  0.5767  0.7522
 3540TIP3   OH232034   2.452   1.695  17.061 -0.5958 -0.0900  0.4693
 3540TIP3    H132035   2.422   1.786  17.062 -2.7545 -0.7274 -0.5565
 3540TIP3    H232036   2.535   1.696  17.109  0.3265  2.6972 -0.9478
 3541TIP3   OH232037   4.137   4.630  13.932 -0.1742 -0.3902  0.2491
 3541TIP3    H132038   4.139   4.716  13.973  1.1528 -0.3962  0.2544
 3541TIP3    H232039   4.225   4.619  13.896 -0.5208 -1.4779 -0.3177
 3542TIP3   OH232040   0.583   3.778  13.299  0.2138  0.3144  0.2044
 3542TIP3    H132041   0.661   3.756  13.350 -0.4651  0.6402  1.4503
 3542TIP3    H232042   0.517   3.799  13.365 -1.1300 -0.5669 -0.7971
 3543TIP3   OH232043   4.002   1.273   5.028  0.1315 -0.1758 -0.0521
 3543TIP3    H132044   3.907   1.287   5.036  0.3805  0.9500  1.5583
 3543TIP3    H232045   4.023   1.302   4.940 -0.8830  0.5679 -0.0688
 3544TIP3   OH232046   5.153   4.881   2.684 -0.1993  0.1096 -0.3926
 3544TIP3    H132047   5.240   4.898   2.718 -0.1827 -1.0592  0.1865
 3544TIP3    H232048   5.109   4.831   2.753 -1.6941  1.5229 -0.2237
 3545TIP3   OH232049   0.314   4.068  11.140  0.1240  0.4365 -0.4629
 3545TIP3    H132050   0.310   4.155  11.180  2.2816  0.5900 -0.4344
 3545TIP3    H232051   0.277   4.010  11.206  0.6974  1.0775  0.4474
 3546TIP3   OH232052   5.537   3.161   1.458  0.3860  0.0299 -0.2674
 3546TIP3    H132053   5.469   3.154   1.525  0.7698 -0.1390  0.1095
 3546TIP3    H232054   5.604   3.218   1.496  0.2492  0.5728 -0.8183
 3547TIP3   OH232055   1.293   0.003  14.681 -0.3328 -0.1211 -0.5242
 3547TIP3    H132056   1.236  -0.075  14.679  1.1533 -1.3212  1.1323
 3547TIP3    H232057   1.278   0.041  14.767 -0.3919  0.9681 -0.9997
 3548TIP3   OH232058   4.489   4.630   1.611  0.1145  0.2878 -0.0611
 3548TIP3    H132059   4.465   4.554   1.558 -0.2939  0.1894  0.2626
 3548TIP3    H232060   4.413   4.688   1.607 -0.8138 -0.6807  2.1600
 3549TIP3   OH232061   4.099   0.901   2.449  0.4979  0.4462 -0.0768
 3549TIP3    H132062   4.042   0.827   2.470  0.8562  0.2574  0.2325
 3549TIP3    H232063   4.168   0.863   2.394 -0.5104  0.9556 -1.7673
 3550TIP3   OH232064   4.836   2.727   0.142 -0.1136 -0.2533  0.4239
 3550TIP3    H132065   4.890   2.652   0.169  2.2352  1.3936  0.5366
 3550TIP3    H232066   4.776   2.740   0.215  0.3636 -1.1852  1.0038
 3551TIP3   OH232067   5.615   1.524  14.900 -0.4654 -0.0751  0.9786
 3551TIP3    H132068   5.627   1.616  14.876 -0.8100 -0.3104 -0.1295
 3551TIP3    H232069   5.703   1.486  14.896 -0.6416 -0.3834 -1.1605
 3552TIP3   OH232070   1.433   5.651  17.275  0.1023  0.1209 -0.2254
 3552TIP3    H132071   1.415   5.578  17.334  1.3000  0.8977  1.1606
 3552TIP3    H232072   1.505   5.621  17.221  1.5134  0.6989  1.2558
 3553TIP3   OH232073   1.363   1.259   2.686  0.2607  0.1478  0.7552
 3553TIP3    H132074   1.355   1.253   2.591  1.2723 -1.5050  0.7395
 3553TIP3    H232075   1.431   1.325   2.701  2.0716 -1.5214  0.2022
 3554TIP3   OH232076   2.983   3.568  16.765 -0.5203  0.5464 -0.1652
 3554TIP3    H132077   3.002   3.481  16.730 -0.1330 -0.4268  2.2293
 3554TIP3    H232078   3.019   3.629  16.700  0.2329 -1.0926 -1.3451
 3555TIP3   OH232079   5.773   3.006  15.975 -0.2351  0.2785 -0.1834
 3555TIP3    H132080   5.849   2.953  15.950 -0.7266 -1.2772  1.4124
 3555TIP3    H232081   5.759   2.984  16.067 -2.4344  0.7842 -0.3618
 3556TIP3   OH232082   1.600   5.438   4.476  0.0092 -0.2361 -0.2104
 3556TIP3    H132083   1.623   5.345   4.479  0.2928 -0.1749 -0.3909
 3556TIP3    H232084   1.523   5.441   4.420  0.9257 -0.1945 -1.5227
 3557TIP3   OH232085   3.904   3.916  14.149  0.0572  0.1603  0.0905
 3557TIP3    H132086   3.881   3.917  14.242 -0.2747  0.7079  0.0084
 3557TIP3    H232087   3.929   4.006  14.130  1.6506 -0.2572  0.0070
 3558TIP3   OH232088   2.660   6.167   1.810  0.2814 -0.1484 -0.1673
 3558TIP3    H132089   2.614   6.231   1.864 -0.8114 -1.1581  0.1618
 3558TIP3    H232090   2.751   6.197   1.808 -0.1635  1.2942  0.1071
 3559TIP3   OH232091   4.116   2.217   1.078  0.0758  0.3720  0.2022
 3559TIP3    H132092   4.030   2.182   1.053  1.2634 -1.8030 -1.1695
 3559TIP3    H232093   4.114   2.309   1.050 -1.4420  0.0721 -0.7728
 3560TIP3   OH232094   4.327   0.116  16.832 -0.1900  0.2863  0.0248
 3560TIP3    H132095   4.329   0.200  16.879  0.0253  0.5801 -0.5006
 3560TIP3    H232096   4.276   0.133  16.754 -2.7701 -0.8602  1.3367
 3561TIP3   OH232097   5.422   0.016  14.950 -0.3475  0.3227  0.3739
 3561TIP3    H132098   5.424   0.062  15.034 -0.3096  1.1768 -0.0831
 3561TIP3    H232099   5.416   0.085  14.884  1.3797 -0.2510 -0.4350
 3562TIP3   OH232100   1.654   4.844  16.305  0.5340 -0.0054  0.0095
 3562TIP3    H132101   1.561   4.863  16.322  0.1382 -0.7006 -1.2147
 3562TIP3    H232102   1.700   4.922  16.336 -0.6258  1.1024 -0.9129
 3563TIP3   OH232103   2.758   6.489   2.451 -0.0350 -0.2160 -0.0217
 3563TIP3    H132104   2.692   6.456   2.390  2.2522 -0.4970 -2.5208
 3563TIP3    H232105   2.765   6.582   2.430  0.3434 -0.1791  0.2660
 3564TIP3   OH232106   1.559   0.994   1.808 -0.4183  0.2341  0.3592
 3564TIP3    H132107   1.644   1.030   1.782 -0.8155  0.8181 -0.1755
 3564TIP3    H232108   1.546   1.024   1.898  0.2472 -0.4522  0.7015
 3565TIP3   OH232109   4.776   3.266  12.395 -0.2202  0.8082  0.4554
 3565TIP3    H132110   4.810   3.176  12.397 -0.8127  0.5444 -0.6114
 3565TIP3    H232111   4.732   3.273  12.310  0.7584  2.4546  0.0296
 3566TIP3   OH232112   6.228   1.550  15.844  0.5822  0.2637  0.0493
 3566TIP3    H132113   6.164   1.538  15.775  0.4225  1.2953 -0.0075
 3566TIP3    H232114   6.194   1.501  15.919  0.2255  0.0055 -0.2837
 3567TIP3   OH232115   4.668   4.669   2.109  0.5838  0.4983  0.0434
 3567TIP3    H132116   4.665   4.669   2.013 -1.0149 -0.7869  0.0594
 3567TIP3    H232117   4.605   4.736   2.135 -1.5304 -1.4454  0.1722
 3568TIP3   OH232118   0.442   0.408   4.738  0.0094 -0.3309  0.3564
 3568TIP3    H132119   0.458   0.382   4.647  2.4586 -0.4576  0.7666
 3568TIP3    H232120   0.399   0.332   4.777 -1.8506  0.0360 -0.8587
 3569TIP3   OH232121   2.648   3.476   0.615 -0.4993 -0.1599 -0.2481
 3569TIP3    H132122   2.654   3.427   0.697 -2.0674  2.5418  1.6044
 3569TIP3    H232123   2.728   3.529   0.612 -0.9222  0.4913  0.0402
 3570TIP3   OH232124   6.472   3.265   2.949  0.3489 -0.2615  0.1138
 3570TIP3    H132125   6.504   3.335   3.006  1.4789 -0.2536 -0.4970
 3570TIP3    H232126   6.416   3.212   3.006 -2.1599  2.1846  0.1232
 3571TIP3   OH232127   2.447   3.812  14.443  0.0573  0.3300 -0.6792
 3571TIP3    H132128   2.486   3.896  14.416  0.9410  0.2162  0.1870
 3571TIP3    H232129   2.500   3.747  14.397 -2.0691  0.2144 -3.2540
 3572TIP3   OH232130   3.656   0.220  13.471 -0.6227 -0.3244  0.4391
 3572TIP3    H132131   3.740   0.250  13.507  0.1784 -1.6046 -0.2594
 3572TIP3    H232132   3.611   0.181  13.546 -0.3359 -0.1498  0.7058
 3573TIP3   OH232133   0.081   4.763   1.000  0.0113 -0.5921  0.2662
 3573TIP3    H132134   0.171   4.792   0.983  0.2646 -0.2720  2.0098
 3573TIP3    H232135   0.046   4.829   1.059 -0.6333 -1.8837  1.3545
 3574TIP3   OH232136   5.716   3.160  13.639 -0.5984  0.0752  0.3459
 3574TIP3    H132137   5.801   3.165  13.595  0.3929  1.2084  2.2413
 3574TIP3    H232138   5.732   3.104  13.715 -1.6307  0.0747  0.5765
 3575TIP3   OH232139   6.620   3.532  11.057 -0.3612 -0.0888 -1.1998
 3575TIP3    H132140   6.640   3.441  11.078 -0.4037 -0.3663 -2.2830
 3575TIP3    H232141   6.607   3.532  10.962 -1.3332  0.8641 -1.0820
 3576TIP3   OH232142   4.454   2.104  16.285  0.0069  0.0511 -0.0205
 3576TIP3    H132143   4.541   2.123  16.249 -0.3038  0.5877 -0.5144
 3576TIP3    H232144   4.471   2.053  16.364  0.8562  1.6090  0.8643
 3577TIP3   OH232145   1.410   0.013   4.449 -0.1285  0.4041  0.1737
 3577TIP3    H132146   1.348  -0.017   4.515 -1.7748 -0.9833 -1.8782
 3577TIP3    H232147   1.485  -0.046   4.458 -1.2660 -1.2462 -0.5572
 3578TIP3   OH232148   1.274   4.993  12.124  0.3587 -0.1456  0.0509
 3578TIP3    H132149   1.280   4.902  12.095 -0.1978  0.1226 -0.9657
 3578TIP3    H232150   1.261   4.987  12.219 -0.4885 -1.1618 -0.1078
 3579TIP3   OH232151   3.244   5.092  16.080 -0.1341  0.0179 -0.2661
 3579TIP3    H132152   3.162   5.073  16.125 -0.9013 -0.0081 -1.6403
 3579TIP3    H232153   3.288   5.155  16.137 -1.1275  0.0789  0.4590
 3580TIP3   OH232154   4.051   0.854  16.944 -0.2617  0.6268 -0.1221
 3580TIP3    H132155   3.984   0.889  17.003 -1.4103 -1.3291 -0.1416
 3580TIP3    H232156   4.131   0.854  16.996  0.1772  4.4039 -0.5833
 3581TIP3   OH232157   2.183   0.094   0.731  0.0680 -0.4434  0.0247
 3581TIP3    H132158   2.100   0.049   0.740 -0.3015  0.5466  2.0210
 3581TIP3    H232159   2.177   0.139   0.647 -1.9912  0.6878  0.7108
 3582TIP3   OH232160   1.256   3.004  10.699  0.5936  0.3465 -0.1380
 3582TIP3    H132161   1.323   2.952  10.744  0.3618  0.0493 -0.1349
 3582TIP3    H232162   1.173   2.975  10.737  0.5227  1.3599  0.5039
 3583TIP3   OH232163   3.388   5.408   5.074  0.4020 -0.6864  0.0912
 3583TIP3    H132164   3.447   5.483   5.087  0.1268 -0.4882  0.2138
 3583TIP3    H232165   3.438   5.347   5.019  0.5862 -0.3610 -0.1076
 3584TIP3   OH232166   0.777   2.051  13.686  0.4039 -0.6865  0.4534
 3584TIP3    H132167   0.770   1.957  13.670 -0.1270 -0.6354  0.3787
 3584TIP3    H232168   0.714   2.090  13.626  1.4353 -0.1967 -0.3457
 3585TIP3   OH232169   4.485   0.210   0.965 -0.6574  0.0166  0.0750
 3585TIP3    H132170   4.478   0.195   1.059 -1.3485  2.1603  0.4258
 3585TIP3    H232171   4.579   0.204   0.947 -0.5100 -0.3173  0.9176
 3586TIP3   OH232172   1.503   2.457   2.559  0.1260 -0.1128 -0.3884
 3586TIP3    H132173   1.417   2.452   2.601  0.1710  0.1848 -0.2527
 3586TIP3    H232174   1.533   2.546   2.579  0.7450 -0.4321  0.1231
 3587TIP3   OH232175   0.079   6.367  11.513 -0.3312  0.2037 -0.3113
 3587TIP3    H132176   0.161   6.409  11.486 -0.0951 -1.0517 -1.6382
 3587TIP3    H232177   0.020   6.380  11.439 -1.1686  0.6082  0.4118
 3588TIP3   OH232178   5.638   3.215  15.013  0.2084 -0.0258 -0.0961
 3588TIP3    H132179   5.641   3.121  14.995 -1.3255  0.0196 -0.6598
 3588TIP3    H232180   5.724   3.247  14.985  0.3093 -1.0668 -1.0391
 3589TIP3   OH232181   2.939   1.409  11.898 -0.0894  0.3919 -0.3374
 3589TIP3    H132182   2.956   1.330  11.948  1.5717  1.0968  0.2803
 3589TIP3    H232183   2.860   1.446  11.937 -0.7896 -0.8409 -0.5288
 3590TIP3   OH232184   2.374   3.773  15.794 -0.1886 -0.5571 -0.7019
 3590TIP3    H132185   2.299   3.815  15.753 -0.1104 -1.2985 -1.6435
 3590TIP3    H232186   2.402   3.706  15.731 -0.0771 -1.7554  0.5648
 3591TIP3   OH232187   6.426   3.553   0.427  0.1509  0.3350  0.1629
 3591TIP3    H132188   6.398   3.492   0.359  0.6578 -0.2426  0.4509
 3591TIP3    H232189   6.431   3.499   0.506  0.4589  0.7855  0.4540
 3592TIP3   OH232190   1.957   5.320   2.041 -0.0780 -0.0240  0.1527
 3592TIP3    H132191   2.048   5.335   2.068  0.8207 -1.7280 -1.6154
 3592TIP3    H232192   1.911   5.299   2.122  1.4823 -0.7121  0.9124
 3593TIP3   OH232193   2.036   3.030   1.884  0.0067  0.3323 -0.0942
 3593TIP3    H132194   2.040   2.935   1.873 -1.9831  0.4068 -2.5106
 3593TIP3    H232195   1.948   3.045   1.919  0.5538  1.2720  0.9086
 3594TIP3   OH232196   1.993   6.015  11.052  0.3766  0.0097  0.4911
 3594TIP3    H132197   1.980   5.934  11.101  0.7796  0.2503  1.0056
 3594TIP3    H232198   1.949   6.000  10.968  1.2500 -1.1019  0.2098
 3595TIP3   OH232199   2.165   4.674  15.255  0.2907  0.2435  0.5982
 3595TIP3    H132200   2.167   4.768  15.236  0.8606  0.2653  0.7362
 3595TIP3    H232201   2.117   4.636  15.182  2.4881  0.3182 -0.9820
 3596TIP3   OH232202   6.103   5.060  14.726 -0.1513  0.3586 -0.1573
 3596TIP3    H132203   6.170   5.016  14.777 -0.7721 -0.1549  0.2376
 3596TIP3    H232204   6.063   4.990  14.674 -0.5569  0.6060 -0.1859
 3597TIP3   OH232205   4.747   5.785  12.834  0.7822  0.2469 -0.2599
 3597TIP3    H132206   4.674   5.736  12.796  0.0634  0.8157  0.3487
 3597TIP3    H232207   4.804   5.717  12.871 -0.7543 -0.1468  1.5520
 3598TIP3   OH232208   5.400   3.503   3.892 -0.7415  0.1687  0.3884
 3598TIP3    H132209   5.366   3.501   3.981 -0.9296  0.6001  0.3316
 3598TIP3    H232210   5.481   3.554   3.898  0.0397 -1.0732  0.5670
 3599TIP3   OH232211   2.380   6.413   2.808 -0.2314  0.1587 -0.2451
 3599TIP3    H132212   2.399   6.432   2.717  0.7039 -1.9967 -0.5583
 3599TIP3    H232213   2.285   6.426   2.816 -0.1433  1.5930 -1.1614
 3600TIP3   OH232214   2.879   2.929  13.919 -0.1302 -0.0332 -0.4707
 3600TIP3    H132215   2.871   2.869  13.994  4.0222 -0.9231 -0.4812
 3600TIP3    H232216   2.915   3.009  13.956  1.9089 -0.4609 -1.4037
 3601TIP3   OH232217   2.712   1.320   3.389 -0.3147  0.0986 -1.0806
 3601TIP3    H132218   2.765   1.243   3.410 -0.2382 -0.2896 -2.5651
 3601TIP3    H232219   2.621   1.291   3.399 -0.2798 -0.0554 -1.2179
 3602TIP3   OH232220   4.107   6.120  10.831  0.1028  0.2197 -0.1467
 3602TIP3    H132221   4.127   6.206  10.794  0.2414 -0.0432 -0.6985
 3602TIP3    H232222   4.122   6.130  10.925 -0.1220  0.8642 -0.1767
 3603TIP3   OH232223   1.015   5.207  12.922  0.8138  0.4380 -0.9997
 3603TIP3    H132224   1.105   5.181  12.940  0.3289  0.1147  1.2702
 3603TIP3    H232225   1.004   5.290  12.968 -0.2847  0.0222 -0.4595
 3604TIP3   OH232226   0.431   6.746   3.640  0.3338  0.0126  0.1515
 3604TIP3    H132227   0.369   6.711   3.704 -1.5553 -0.3698 -1.7392
 3604TIP3    H232228   0.408   6.839   3.633 -1.2252 -0.4421 -1.6926
 3605TIP3   OH232229   4.081   2.614  10.767 -0.0715 -0.7947  0.1646
 3605TIP3    H132230   4.159   2.652  10.808  0.3643 -0.1827 -1.1577
 3605TIP3    H232231   4.010   2.631  10.829  0.5651  0.1001  0.6699
 3606TIP3   OH232232   2.630   4.378  13.994 -0.2316 -0.0236  0.2333
 3606TIP3    H132233   2.631   4.467  13.957  0.6909 -0.0415  0.2101
 3606TIP3    H232234   2.643   4.391  14.088 -0.9705 -0.0896  0.3560
 3607TIP3   OH232235   5.763   2.032  12.527 -0.8132  0.2655 -0.6538
 3607TIP3    H132236   5.690   2.076  12.570  0.3999  2.4660 -0.7088
 3607TIP3    H232237   5.789   2.091  12.457  1.0523 -0.4067 -0.5931
 3608TIP3   OH232238   3.239   5.690  14.794 -0.4984 -0.3032 -0.4386
 3608TIP3    H132239   3.222   5.603  14.758 -1.4894 -0.6149  0.7192
 3608TIP3    H232240   3.152   5.724  14.818  0.0541  0.1138  1.0879
 3609TIP3   OH232241   6.193   5.564  11.635  0.2423  0.8222 -0.3956
 3609TIP3    H132242   6.240   5.604  11.562 -0.9311  3.1259  0.0220
 3609TIP3    H232243   6.208   5.623  11.709 -2.9514  1.5450 -0.1759
 3610TIP3   OH232244   6.501   2.696   4.661 -0.1519  0.2236  0.4937
 3610TIP3    H132245   6.547   2.615   4.681 -0.1734  0.4451  1.4945
 3610TIP3    H232246   6.542   2.762   4.716 -0.2047  0.8841 -0.2317
 3611TIP3   OH232247   1.174   5.377   3.792  0.5108 -0.0989  0.1666
 3611TIP3    H132248   1.150   5.312   3.727 -0.4538  0.7625 -0.3684
 3611TIP3    H232249   1.136   5.459   3.760  3.8300  1.3325 -0.5331
 3612TIP3   OH232250   2.068   3.568   2.916 -0.5449 -0.7859 -0.1690
 3612TIP3    H132251   2.152   3.529   2.942  0.0956 -0.1225 -1.1808
 3612TIP3    H232252   2.042   3.621   2.991  0.3809 -0.3141 -0.1663
 3613TIP3   OH232253   5.974   6.513   5.966  0.0842 -0.5175 -0.1326
 3613TIP3    H132254   5.963   6.452   6.039 -1.4075 -0.7075 -0.4902
 3613TIP3    H232255   6.004   6.457   5.893  0.0981 -0.5767 -0.0815
 3614TIP3   OH232256   1.881   1.453   3.259 -0.3207  0.0515  0.1805
 3614TIP3    H132257   1.856   1.475   3.169  0.7599  0.8236  0.0595
 3614TIP3    H232258   1.903   1.536   3.300 -1.1186 -0.2505  1.2851
 3615TIP3   OH232259   6.049   3.598  12.907 -0.1282  0.0967  0.6010
 3615TIP3    H132260   6.093   3.555  12.833 -0.1809  0.8174  0.1425
 3615TIP3    H232261   6.102   3.575  12.983  0.1800 -0.2888  0.2729
 3616TIP3   OH232262   4.619   0.895  11.987  0.1683  0.4483 -0.3010
 3616TIP3    H132263   4.675   0.818  11.983 -2.0855 -1.4633  1.6660
 3616TIP3    H232264   4.678   0.967  12.005  2.1187 -1.2400  0.4881
 3617TIP3   OH232265   6.289   6.278  13.276 -0.4466  0.5750 -0.4568
 3617TIP3    H132266   6.334   6.296  13.359 -1.2449  0.6049 -0.0171
 3617TIP3    H232267   6.238   6.357  13.259  0.4215  0.9328 -1.4611
 3618TIP3   OH232268   2.661   3.354  15.192  0.6384 -0.0264  0.5925
 3618TIP3    H132269   2.611   3.273  15.203  1.3454 -0.8163 -1.5183
 3618TIP3    H232270   2.620   3.416  15.253 -0.3892 -1.7389  1.7311
 3619TIP3   OH232271   1.690   4.649  14.950  0.5809  0.1911 -0.4377
 3619TIP3    H132272   1.642   4.723  14.913  0.5933 -0.5812 -2.0976
 3619TIP3    H232273   1.623   4.596  14.992  0.1821 -0.0742 -1.3704
 3620TIP3   OH232274   0.394   1.407  16.798 -0.7050  0.2057  0.4541
 3620TIP3    H132275   0.446   1.349  16.742 -2.0747  0.1059 -0.7760
 3620TIP3    H232276   0.354   1.349  16.863 -0.1135  0.1410  0.7681
 3621TIP3   OH232277   5.848   4.852   1.973  0.1810 -0.3547 -0.2355
 3621TIP3    H132278   5.942   4.832   1.973 -0.0716 -1.7122  1.1016
 3621TIP3    H232279   5.805   4.768   1.958 -0.8424  0.3553 -1.5094
 3622TIP3   OH232280   3.033   5.018  14.383 -0.2694  0.2270 -0.8274
 3622TIP3    H132281   3.051   5.048  14.294  1.0220  1.7688 -0.0986
 3622TIP3    H232282   3.108   5.048  14.434 -1.3431  0.0467  0.9357
 3623TIP3   OH232283   1.106   5.130   5.583  0.1714  0.0678  0.3271
 3623TIP3    H132284   1.126   5.037   5.572 -0.0447  0.0454  0.1158
 3623TIP3    H232285   1.068   5.156   5.499  0.7280  0.4784  0.1976
 3624TIP3   OH232286   0.905   6.422  16.783  0.1243  0.5792 -0.9347
 3624TIP3    H132287   0.879   6.430  16.875  1.5004  1.2637 -0.5781
 3624TIP3    H232288   0.999   6.441  16.783  0.0184  1.2587 -2.5679
 3625TIP3   OH232289   4.802   2.304  15.630 -0.1746  0.4038 -0.7409
 3625TIP3    H132290   4.745   2.331  15.559  0.2865  0.2634 -1.1711
 3625TIP3    H232291   4.869   2.249  15.588  0.7082  1.1672 -0.3673
 3626TIP3   OH232292   5.466   6.157   2.523  0.2079 -0.1522 -0.3938
 3626TIP3    H132293   5.503   6.119   2.602  2.7183  0.4107 -1.2217
 3626TIP3    H232294   5.427   6.082   2.477 -0.6840 -0.5880  1.0022
 3627TIP3   OH232295   0.980   3.132   5.912  0.2124  0.0120 -0.4102
 3627TIP3    H132296   0.943   3.107   5.827  1.8635 -0.0277 -1.1510
 3627TIP3    H232297   1.019   3.218   5.897  0.8083 -0.1392  0.2135
 3628TIP3   OH232298   5.673   4.205   5.905 -0.3315  0.9159  0.2928
 3628TIP3    H132299   5.684   4.245   5.992  1.8561  1.5581 -0.2023
 3628TIP3    H232300   5.739   4.249   5.851 -0.4890 -0.6763 -1.2589
 3629TIP3   OH232301   2.159   0.638   5.993 -0.4825 -0.5492  0.1469
 3629TIP3    H132302   2.102   0.707   6.027  0.4753  0.9866 -1.2120
 3629TIP3    H232303   2.230   0.685   5.949  2.2452 -2.3340  2.3145
 3630TIP3   OH232304   1.512   2.879  12.677 -0.3451  0.1904  0.3727
 3630TIP3    H132305   1.590   2.825  12.689  1.1223  2.3524  0.9978
 3630TIP3    H232306   1.480   2.895  12.765 -0.3102  0.9541  0.2527
 3631TIP3   OH232307   0.949   1.525  12.867  0.4760  0.1203 -0.3622
 3631TIP3    H132308   0.868   1.506  12.915  0.2837  0.6359 -0.4746
 3631TIP3    H232309   0.994   1.591  12.920  0.3421  0.5707 -0.8003
 3632TIP3   OH232310   0.369   2.043   1.646  0.1222  0.1794  0.1588
 3632TIP3    H132311   0.295   2.034   1.706 -1.1169 -0.6873 -1.4302
 3632TIP3    H232312   0.433   2.094   1.695 -1.3006  0.4999  1.7813
 3633TIP3   OH232313   1.435   6.231  13.482 -0.3044  0.2906 -0.2706
 3633TIP3    H132314   1.355   6.178  13.485 -0.1544  0.0814  0.1837
 3633TIP3    H232315   1.416   6.299  13.418  0.0513 -1.2213 -2.0983
 3634TIP3   OH232316   5.638   5.803   1.541 -0.0945 -0.1815 -0.0403
 3634TIP3    H132317   5.680   5.724   1.506  0.1058  0.4634 -1.3071
 3634TIP3    H232318   5.544   5.787   1.531 -0.0920 -0.6832  0.6806
 3635TIP3   OH232319   5.839   0.346  15.267  0.4261  0.9731 -0.1501
 3635TIP3    H132320   5.924   0.306  15.247  1.3760  1.8733  1.8078
 3635TIP3    H232321   5.862   0.433  15.300 -1.1199  0.5858  2.1156
 3636TIP3   OH232322   0.964   0.913   1.229  0.2603  0.0656 -0.2609
 3636TIP3    H132323   0.899   0.845   1.216  0.8951 -0.3469 -1.4022
 3636TIP3    H232324   1.029   0.874   1.287 -0.4229  0.4342  0.7756
 3637TIP3   OH232325   3.954   3.598   3.261 -0.0985 -0.1469  0.2392
 3637TIP3    H132326   3.921   3.543   3.333 -0.0764 -0.1739  0.2288
 3637TIP3    H232327   3.965   3.537   3.188 -1.0530  0.0600 -0.0801
 3638TIP3   OH232328   0.778   3.845   1.110  0.3184  0.7205 -0.4595
 3638TIP3    H132329   0.772   3.819   1.018 -2.3564  2.6832 -0.9904
 3638TIP3    H232330   0.689   3.874   1.132  1.1539  1.4323  2.4032
 3639TIP3   OH232331   6.394   0.471   1.604  0.0182  0.0658 -0.1714
 3639TIP3    H132332   6.399   0.566   1.594 -0.6030  0.0177 -0.9989
 3639TIP3    H232333   6.485   0.442   1.602  0.1704  0.5704 -0.6325
 3640TIP3   OH232334   4.485   1.971   6.653 -0.1005 -0.1504 -0.0895
 3640TIP3    H132335   4.464   1.899   6.711  0.1474  0.5122  0.8443
 3640TIP3    H232336   4.564   1.944   6.607 -0.3692 -0.7244 -0.2199
 3641TIP3   OH232337   5.100   3.533  13.017  0.0599 -0.1836  0.4554
 3641TIP3    H132338   5.184   3.572  12.994 -0.4811  0.3238 -0.8095
 3641TIP3    H232339   5.041   3.607  13.028 -0.7473 -0.5605 -0.9766
 3642TIP3   OH232340   2.026   6.387  16.366  0.5213  1.1037  0.2760
 3642TIP3    H132341   1.968   6.313  16.354 -0.0602  1.1700  2.2038
 3642TIP3    H232342   2.108   6.361  16.325 -0.2583  0.2059 -0.7674
 3643TIP3   OH232343   0.567   1.276  11.082 -0.0783 -0.2066  0.1083
 3643TIP3    H132344   0.634   1.343  11.074 -1.2301  0.8522 -1.2475
 3643TIP3    H232345   0.493   1.322  11.122 -1.3218 -0.2728 -1.9787
 3644TIP3   OH232346   3.082   1.084  13.932 -0.4613  0.1718  0.2110
 3644TIP3    H132347   3.017   1.022  13.964 -0.5462  0.5551  0.8029
 3644TIP3    H232348   3.129   1.112  14.011 -0.5066  0.9509 -0.0356
 3645TIP3   OH232349   4.653   2.855   5.915 -0.2492 -0.5273  0.6366
 3645TIP3    H132350   4.658   2.916   5.989  1.4085 -1.8528  1.6987
 3645TIP3    H232351   4.703   2.898   5.845  0.5949 -0.4878  1.2524
 3646TIP3   OH232352   0.712   5.712   2.679  0.0707  0.7293  0.1893
 3646TIP3    H132353   0.716   5.808   2.684  0.6910  0.7712 -0.8416
 3646TIP3    H232354   0.786   5.688   2.623 -0.1087 -0.3553  0.4010
 3647TIP3   OH232355   6.609   2.148  14.935  0.0834  0.4374 -0.3892
 3647TIP3    H132356   6.682   2.102  14.895 -0.6126 -0.4373 -0.6872
 3647TIP3    H232357   6.533   2.123  14.882 -0.2881  2.1547 -0.7392
 3648TIP3   OH232358   1.629   4.214  13.422  0.6948  0.0702 -0.4382
 3648TIP3    H132359   1.641   4.307  13.442 -0.8530 -0.0231  1.2065
 3648TIP3    H232360   1.589   4.178  13.502 -2.8153 -1.0821 -2.4926
 3649TIP3   OH232361   5.677   5.383   2.891 -0.2208  0.1882  0.0690
 3649TIP3    H132362   5.619   5.306   2.884  2.4134 -1.9799  0.3991
 3649TIP3    H232363   5.709   5.396   2.802 -0.5533  0.8569  0.0421
 3650TIP3   OH232364   2.215   0.286   0.957  0.5260  0.3882  0.0317
 3650TIP3    H132365   2.196   0.209   0.904 -1.4411 -0.1346  1.3913
 3650TIP3    H232366   2.186   0.360   0.903  1.4023  0.1145 -0.8346
 3651TIP3   OH232367   2.130   5.092   0.629 -0.3297  0.3484  0.0041
 3651TIP3    H132368   2.054   5.129   0.585 -0.0585  1.0142  0.0813
 3651TIP3    H232369   2.158   5.160   0.690  0.3512  0.1359 -0.0604
 3652TIP3   OH232370   2.796   6.111   3.284  0.1772  0.0012  0.2068
 3652TIP3    H132371   2.888   6.136   3.277 -0.0661  0.5404 -1.9369
 3652TIP3    H232372   2.786   6.080   3.374  2.5524 -0.4983  0.3782
 3653TIP3   OH232373   1.224   1.482  16.718 -0.5261 -0.3150  0.6079
 3653TIP3    H132374   1.169   1.554  16.748 -1.2131 -0.2912 -0.6372
 3653TIP3    H232375   1.294   1.525  16.669 -2.2764 -0.4873 -2.3066
 3654TIP3   OH232376   2.537   1.369  16.184  0.4689 -0.0121  0.0369
 3654TIP3    H132377   2.595   1.425  16.236  1.4816 -1.3702  0.4325
 3654TIP3    H232378   2.458   1.421  16.172  1.5537  1.6881 -0.0466
 3655TIP3   OH232379   0.369   1.963  17.240  0.2750  0.3685 -0.4596
 3655TIP3    H132380   0.419   1.974  17.159 -1.5648  1.0928 -1.5664
 3655TIP3    H232381   0.369   2.050  17.280  0.6142  0.1726 -0.0387
 3656TIP3   OH232382   5.302   2.981  16.955 -0.0340  0.0085  0.4232
 3656TIP3    H132383   5.274   2.889  16.953  1.5252 -0.5072 -1.5460
 3656TIP3    H232384   5.234   3.026  17.004 -1.7902 -1.8942 -0.1100
 3657TIP3   OH232385   4.719   5.269   1.770 -0.7231  0.1731 -0.2043
 3657TIP3    H132386   4.764   5.343   1.731  1.3608 -0.5030  0.7679
 3657TIP3    H232387   4.705   5.295   1.861 -2.2173  0.3013 -0.4423
 3658TIP3   OH232388   4.210   2.452   3.349 -0.1002 -0.9796 -0.5391
 3658TIP3    H132389   4.294   2.405   3.347  0.4119 -0.0988 -0.2403
 3658TIP3    H232390   4.163   2.413   3.422  0.0741 -1.4290 -0.6581
 3659TIP3   OH232391   2.803   5.184  17.041 -0.4643 -0.7490 -0.5287
 3659TIP3    H132392   2.863   5.171  17.115 -1.1062 -0.8343 -0.0178
 3659TIP3    H232393   2.762   5.098  17.029 -0.3100 -0.7529 -1.0341
 3660TIP3   OH232394   6.493   2.684  15.460  0.2390  0.0314  0.3051
 3660TIP3    H132395   6.467   2.776  15.453  0.5790  0.0038 -2.5981
 3660TIP3    H232396   6.440   2.639  15.394  0.4918 -1.7844  1.2765
 3661TIP3   OH232397   5.642   0.559   0.367 -0.1583 -0.2020  0.2369
 3661TIP3    H132398   5.716   0.556   0.307 -0.2423  0.6644  0.0744
 3661TIP3    H232399   5.565   0.568   0.310 -0.2562  0.4183  0.4654
 3662TIP3   OH232400   2.027   4.913  12.637  0.2477 -0.1381  0.0972
 3662TIP3    H132401   2.114   4.921  12.677  0.3955 -0.3878 -0.1680
 3662TIP3    H232402   2.044   4.918  12.543  0.2224 -2.2468 -0.0681
 3663TIP3   OH232403   2.179   4.211   0.003  0.2232 -0.1492 -0.3693
 3663TIP3    H132404   2.123   4.281  -0.032  0.6001  0.1143 -0.4510
 3663TIP3    H232405   2.130   4.130  -0.015 -0.1057  0.0726 -0.4879
 3664TIP3   OH232406   6.232   2.802   6.594 -0.0029 -0.6267  0.3802
 3664TIP3    H132407   6.235   2.888   6.552 -2.0041 -0.0753  1.2886
 3664TIP3    H232408   6.232   2.740   6.520  2.5526  0.0214 -0.2749
 3665TIP3   OH232409   4.374   2.270  11.561 -0.0067  0.4706  0.3824
 3665TIP3    H132410   4.380   2.317  11.644  0.1971 -0.0894  0.6917
 3665TIP3    H232411   4.453   2.216  11.558 -0.0225  0.4701 -0.1657
 3666TIP3   OH232412   3.266   5.626  13.715 -0.2069 -0.2473 -0.2744
 3666TIP3    H132413   3.275   5.666  13.628 -1.5548 -1.1727 -0.8695
 3666TIP3    H232414   3.246   5.700  13.773  2.8139  0.7308 -0.2582
 3667TIP3   OH232415   3.976   4.060   5.301 -0.4757  0.1800 -0.0283
 3667TIP3    H132416   3.941   4.022   5.220 -0.3996  1.6604 -0.7902
 3667TIP3    H232417   4.067   4.082   5.279  0.4946 -2.0380  1.3909
 3668TIP3   OH232418   5.634   5.445  14.131 -0.1837 -0.2901 -0.1696
 3668TIP3    H132419   5.694   5.513  14.161  0.6867  0.3741 -3.0989
 3668TIP3    H232420   5.689   5.368  14.117  0.2967  0.4941 -3.4603
 3669TIP3   OH232421   1.287   4.959  14.622  0.5279  0.2859 -0.6319
 3669TIP3    H132422   1.204   4.958  14.669 -0.3483  2.5578 -1.9628
 3669TIP3    H232423   1.281   4.886  14.561 -0.4830  0.3558 -0.6354
 3670TIP3   OH232424   5.193   4.025  13.457  0.0107  0.2903  0.1224
 3670TIP3    H132425   5.169   3.942  13.499  1.1265 -0.3155 -0.3902
 3670TIP3    H232426   5.145   4.025  13.374  0.2785 -0.0271 -0.0379
 3671TIP3   OH232427   1.112   3.742  17.130 -0.1410  0.2833  0.1814
 3671TIP3    H132428   1.091   3.683  17.058 -1.1345  0.4942  0.2895
 3671TIP3    H232429   1.196   3.710  17.164 -0.7058 -1.1176  0.3109
 3672TIP3   OH232430   3.993   3.953  15.664  0.2753 -0.1661 -0.2240
 3672TIP3    H132431   3.916   3.927  15.613  0.3850 -1.2475  0.1363
 3672TIP3    H232432   4.038   3.871  15.683  1.7901  0.4825 -0.8454
 3673TIP3   OH232433   2.389   0.151   0.183 -0.0615 -0.5197 -0.3384
 3673TIP3    H132434   2.339   0.227   0.153 -0.5646 -0.7965 -0.2102
 3673TIP3    H232435   2.450   0.133   0.111  2.0855  1.7256  0.7443
 3674TIP3   OH232436   2.080   5.086  12.942  0.0885 -0.0471  0.3495
 3674TIP3    H132437   1.993   5.045  12.941  0.2435 -0.3731 -0.3886
 3674TIP3    H232438   2.067   5.169  12.989 -0.7262  0.1438 -0.1931
 3675TIP3   OH232439   4.889   1.384   5.160  0.3720  0.4739 -0.1826
 3675TIP3    H132440   4.810   1.395   5.107  0.6385  0.4024 -0.6028
 3675TIP3    H232441   4.960   1.381   5.096  0.5322 -1.6317  0.0326
 3676TIP3   OH232442   4.586   6.743  16.590  0.1630  0.6050 -0.6380
 3676TIP3    H132443   4.562   6.831  16.561 -1.3473  0.6226  0.5860
 3676TIP3    H232444   4.674   6.754  16.627  0.9850  1.1018 -2.6049
 3677TIP3   OH232445   2.471   3.667   0.335 -0.3730  0.4428  0.0380
 3677TIP3    H132446   2.534   3.717   0.388 -0.0150  2.2986 -1.9765
 3677TIP3    H232447   2.406   3.635   0.398  0.1073  2.3847  1.6155
 3678TIP3   OH232448   6.323   0.810   2.953  0.0420 -0.0166 -0.0538
 3678TIP3    H132449   6.343   0.843   2.866 -1.3620  2.6268  0.5278
 3678TIP3    H232450   6.408   0.801   2.995  0.7459 -1.4298 -1.6803
 3679TIP3   OH232451   3.990   6.631  15.887 -0.4996 -0.1207 -0.8680
 3679TIP3    H132452   3.954   6.558  15.939 -0.8122 -0.0843 -1.0298
 3679TIP3    H232453   4.051   6.589  15.827 -0.1942 -0.1729 -0.5271
 3680TIP3   OH232454   5.654   3.172   4.829 -0.0140 -0.2161  0.7037
 3680TIP3    H132455   5.746   3.192   4.847 -0.0361  0.9574 -0.3838
 3680TIP3    H232456   5.648   3.170   4.733 -1.1907  0.0683  0.7601
 3681TIP3   OH232457   1.980   3.033  16.382 -0.0190 -0.2479 -0.3514
 3681TIP3    H132458   2.070   3.002  16.385  0.5584  1.3002 -1.0158
 3681TIP3    H232459   1.966   3.075  16.466 -0.1188 -0.4672 -0.2564
 3682TIP3   OH232460   0.937   0.030  15.731 -0.5212 -0.3519 -0.1258
 3682TIP3    H132461   1.021   0.043  15.774 -0.1832 -0.0244 -0.8648
 3682TIP3    H232462   0.959   0.004  15.642 -1.1547  2.0759 -1.0690
 3683TIP3   OH232463   4.566   3.348   4.033 -0.6754  0.3785  0.1234
 3683TIP3    H132464   4.483   3.321   3.994  0.0774 -2.1608  0.1074
 3683TIP3    H232465   4.624   3.364   3.958  0.2254 -2.7170  0.0074
 3684TIP3   OH232466   5.719   3.701  16.818 -0.1921 -0.3230 -0.1848
 3684TIP3    H132467   5.768   3.759  16.876  0.0385 -0.8161  0.1204
 3684TIP3    H232468   5.633   3.692  16.858  0.1474 -1.1170  0.4030
 3685TIP3   OH232469   5.714   6.185  15.632 -0.6608 -0.1068  0.1333
 3685TIP3    H132470   5.720   6.167  15.538 -0.1631  1.1336 -0.0819
 3685TIP3    H232471   5.675   6.272  15.638  1.1283  0.6900  0.9909
 3686TIP3   OH232472   3.830   2.447   0.534  0.0128 -0.7371 -0.1817
 3686TIP3    H132473   3.900   2.421   0.594  1.4242 -1.6055 -2.1000
 3686TIP3    H232474   3.834   2.382   0.464 -1.1426  0.5929 -1.5371
 3687TIP3   OH232475   2.199   1.713   3.268 -0.2148  0.3182 -0.3795
 3687TIP3    H132476   2.132   1.645   3.267  0.9459 -0.8693 -0.4876
 3687TIP3    H232477   2.270   1.677   3.322  0.8822  0.9629 -1.3259
 3688TIP3   OH232478   2.855   2.364   1.836  0.6251  0.0830  0.8911
 3688TIP3    H132479   2.866   2.341   1.929  0.5830 -0.6957  0.7090
 3688TIP3    H232480   2.919   2.309   1.790 -1.0389 -1.4042  0.2290
 3689TIP3   OH232481   1.950   5.403   1.142 -0.4830 -0.0629 -0.2183
 3689TIP3    H132482   1.971   5.310   1.134  0.1646  0.1929 -2.0515
 3689TIP3    H232483   1.856   5.406   1.155 -0.6351 -0.9559 -1.0052
 3690TIP3   OH232484   0.306   0.789   3.024  0.0061  0.4213  0.2220
 3690TIP3    H132485   0.333   0.704   3.061 -0.7826 -1.1005 -2.4028
 3690TIP3    H232486   0.298   0.847   3.100 -0.1743 -2.0415  2.2247
 3691TIP3   OH232487   2.460   1.898   0.298  0.1066  0.3239 -0.0958
 3691TIP3    H132488   2.404   1.830   0.260  0.5917 -0.2555  0.2126
 3691TIP3    H232489   2.499   1.942   0.222 -0.6146  0.6087 -0.3070
 3692TIP3   OH232490   2.794   5.710  12.758  0.1409 -0.1007 -0.4309
 3692TIP3    H132491   2.832   5.629  12.723  0.4191 -0.2837  0.2815
 3692TIP3    H232492   2.784   5.693  12.851 -3.4973 -0.8189 -0.7734
 3693TIP3   OH232493   3.876   2.839  13.671 -0.4273 -0.1054  0.0796
 3693TIP3    H132494   3.885   2.757  13.624  0.1828 -1.2372  2.0545
 3693TIP3    H232495   3.798   2.880  13.633  0.7702 -0.2423 -2.8107
 3694TIP3   OH232496   4.817   3.652   3.533 -0.0696 -0.0810 -0.4320
 3694TIP3    H132497   4.780   3.730   3.573  0.4949 -0.6712  1.3466
 3694TIP3    H232498   4.747   3.587   3.537  0.1442 -0.2862  0.0868
 3695TIP3   OH232499   4.102   2.370   3.596 -0.0855  0.2880 -0.7851
 3695TIP3    H132500   4.163   2.399   3.665  0.1135 -0.4098 -0.6651
 3695TIP3    H232501   4.093   2.276   3.609 -1.4557  0.4265 -0.6051
 3696TIP3   OH232502   2.215   4.660  16.101 -0.2916 -0.6686 -0.4247
 3696TIP3    H132503   2.123   4.648  16.079 -0.5369  0.4798 -0.0472
 3696TIP3    H232504   2.258   4.672  16.016 -0.6114 -0.3717 -0.5471
 3697TIP3   OH232505   1.738   2.423   2.247 -0.4576 -0.2582  0.0160
 3697TIP3    H132506   1.672   2.451   2.183  0.0609 -0.4268 -0.6129
 3697TIP3    H232507   1.699   2.348   2.292  0.2335 -1.9943 -2.0963
 3698TIP3   OH232508   0.468   3.133  15.898 -0.2167 -0.7735  0.1772
 3698TIP3    H132509   0.497   3.133  15.807  1.6633  1.6784  0.6693
 3698TIP3    H232510   0.372   3.132  15.893 -0.1541 -0.9429 -1.7859
 3699TIP3   OH232511   1.073   4.677   1.141  0.1300  0.0388  0.4995
 3699TIP3    H132512   1.066   4.681   1.046 -0.3790 -0.9913  0.4807
 3699TIP3    H232513   1.085   4.584   1.160  2.7114  0.4534  1.2998
 3700TIP3   OH232514   4.440   3.709   0.809  0.3904  0.6670  0.2185
 3700TIP3    H132515   4.459   3.620   0.780  0.1901  1.1662 -1.5297
 3700TIP3    H232516   4.481   3.765   0.743 -0.6051  1.8640  0.5858
 3701TIP3   OH232517   2.324   4.994   4.176 -0.5858 -0.5680 -0.8534
 3701TIP3    H132518   2.350   5.063   4.115 -1.0021  1.5754  1.2463
 3701TIP3    H232519   2.392   4.996   4.244 -1.4418 -1.1344  0.0410
 3702TIP3   OH232520   5.070   3.156   2.865  0.2993  0.2607 -0.6004
 3702TIP3    H132521   5.037   3.228   2.811  1.0355  0.3410 -0.9520
 3702TIP3    H232522   5.149   3.125   2.819 -0.5135 -1.3943 -0.9678
 3703TIP3   OH232523   2.710   1.487  12.026 -0.1562  0.2108 -0.2871
 3703TIP3    H132524   2.646   1.434  12.072  0.0375  0.7017  0.5655
 3703TIP3    H232525   2.739   1.552  12.091 -0.6230  1.5607 -1.3739
 3704TIP3   OH232526   3.610   2.316  15.210 -0.7987  0.1522 -0.4960
 3704TIP3    H132527   3.551   2.242  15.221 -0.3563  0.0082  1.2746
 3704TIP3    H232528   3.697   2.279  15.223 -0.5629  0.9490  0.2820
 3705TIP3   OH232529   2.790   0.985   3.719  0.0835 -0.3304  0.6539
 3705TIP3    H132530   2.861   1.014   3.776  0.5053 -1.8743  0.9591
 3705TIP3    H232531   2.804   0.891   3.709 -2.8466 -1.0689  2.1613
 3706TIP3   OH232532   4.992   1.199   4.342  0.0246 -0.2131  0.7986
 3706TIP3    H132533   4.939   1.127   4.377  1.5220 -0.5372  2.5565
 3706TIP3    H232534   5.070   1.200   4.397  0.2740  2.4787  0.5263
 3707TIP3   OH232535   5.592   5.629  15.468 -0.4063  0.0242 -0.5382
 3707TIP3    H132536   5.647   5.574  15.412  1.3728 -2.7282  3.4518
 3707TIP3    H232537   5.513   5.576  15.482  0.0759 -0.3010  1.0955
 3708TIP3   OH232538   4.610   0.260   0.001  0.0548  0.1977  0.9482
 3708TIP3    H132539   4.537   0.198   0.000  2.8755 -3.5020  1.6818
 3708TIP3    H232540   4.623   0.283  -0.091 -0.9727 -0.4547  0.6313
 3709TIP3   OH232541   2.670   4.057  16.207 -0.0151  0.0481 -0.1361
 3709TIP3    H132542   2.710   3.973  16.183  1.8793  0.5817  0.9074
 3709TIP3    H232543   2.722   4.122  16.159  0.5932  0.7841  1.4438
 3710TIP3   OH232544   3.247   0.656   1.100 -0.6754 -0.1921 -0.4922
 3710TIP3    H132545   3.336   0.648   1.134 -0.0559  1.0591 -1.7464
 3710TIP3    H232546   3.229   0.750   1.103 -1.4260 -0.2879 -1.5370
 3711TIP3   OH232547   4.536   4.831  14.333  0.2649 -0.1687 -0.5952
 3711TIP3    H132548   4.464   4.887  14.362  0.6029 -0.5957  1.2357
 3711TIP3    H232549   4.494   4.754  14.295 -0.2183  0.4391 -1.3093
 3712TIP3   OH232550   4.813   6.674  15.884 -0.0171 -0.1666 -0.0015
 3712TIP3    H132551   4.769   6.639  15.961  0.1577 -1.7649 -0.5728
 3712TIP3    H232552   4.744   6.681  15.818 -1.1027  5.1031  1.3033
 3713TIP3   OH232553   4.365   3.658   0.148 -0.6079  0.0099  0.1031
 3713TIP3    H132554   4.298   3.717   0.184  0.4255  0.7060  0.9440
 3713TIP3    H232555   4.337   3.571   0.177 -1.0817  0.3074  0.5741
 3714TIP3   OH232556   3.617   2.715  14.153  0.0651  0.6606  0.2435
 3714TIP3    H132557   3.623   2.684  14.243  0.1605  0.7743  0.2772
 3714TIP3    H232558   3.523   2.717  14.134  0.0518 -3.1647 -1.0049
 3715TIP3   OH232559   5.493   2.476   2.203 -0.1342 -0.9875 -0.1735
 3715TIP3    H132560   5.495   2.525   2.120 -0.5057 -0.2724  0.2322
 3715TIP3    H232561   5.580   2.490   2.240 -0.3604 -0.3277  0.1135
 3716TIP3   OH232562   5.485   3.286   3.240 -0.3211 -0.0407 -0.0565
 3716TIP3    H132563   5.401   3.329   3.251 -0.0639  0.7350 -1.0309
 3716TIP3    H232564   5.547   3.340   3.290 -0.6031 -1.4231  1.9104
 3717TIP3   OH232565   1.884   0.335  17.337 -0.2727 -0.4562  0.3347
 3717TIP3    H132566   1.817   0.362  17.274  0.4755  1.4630  0.2659
 3717TIP3    H232567   1.854   0.371  17.420  0.8020  0.7974  0.2287
 3718TIP3   OH232568   1.362   0.266  14.058  0.1119  0.1339 -0.1736
 3718TIP3    H132569   1.333   0.180  14.027 -1.2897  0.6094 -0.2553
 3718TIP3    H232570   1.300   0.289  14.128  1.5569  0.3018  1.0913
 3719TIP3   OH232571   0.513   1.195  15.265 -0.5630 -0.2906  0.1491
 3719TIP3    H132572   0.448   1.145  15.314 -2.5343 -0.1423 -2.0849
 3719TIP3    H232573   0.542   1.136  15.196  2.4698 -0.6505  1.5585
 3720TIP3   OH232574   4.372   0.573  11.103 -0.1362  0.5318  0.0170
 3720TIP3    H132575   4.334   0.568  11.015 -0.6636 -0.9796  0.2887
 3720TIP3    H232576   4.464   0.549  11.091  0.2576  2.0983 -0.3432
 3721TIP3   OH232577   5.857   0.299   1.571  0.0762 -0.1410  0.1175
 3721TIP3    H132578   5.881   0.305   1.663  0.7960 -0.0214 -0.0699
 3721TIP3    H232579   5.776   0.351   1.563 -0.1546 -0.4066  0.7305
 3722TIP3   OH232580   0.237   2.457  17.199 -0.3121 -0.1500  0.1565
 3722TIP3    H132581   0.310   2.395  17.196 -1.1165 -1.0930 -0.5417
 3722TIP3    H232582   0.267   2.532  17.149  0.4467 -0.2220  0.4892
 3723TIP3   OH232583   4.840   3.041   0.916  0.1275  0.2571 -0.3522
 3723TIP3    H132584   4.888   3.097   0.978  0.2672  0.2773 -0.4771
 3723TIP3    H232585   4.844   2.954   0.955  0.2770  0.2562 -0.3688
 3724TIP3   OH232586   4.570   3.472  15.915 -0.8816 -0.1262 -0.2526
 3724TIP3    H132587   4.497   3.489  15.856 -0.5460 -0.4919 -0.7809
 3724TIP3    H232588   4.567   3.545  15.978 -3.3275 -1.4997  1.3957
 3725TIP3   OH232589   2.790   4.789  14.192  0.1963 -0.2417 -0.3860
 3725TIP3    H132590   2.793   4.884  14.175 -1.2218 -0.2929 -1.0316
 3725TIP3    H232591   2.874   4.757  14.160  0.1936  0.6296 -1.3262
 3726TIP3   OH232592   4.846   0.829  11.676  0.0348  0.8817  0.0204
 3726TIP3    H132593   4.910   0.876  11.623  1.3259 -0.6797  0.1197
 3726TIP3    H232594   4.899   0.772  11.732 -1.4626 -2.5055 -1.7734
 3727TIP3   OH232595   0.919   2.075   4.369  0.0641 -0.7023 -0.1435
 3727TIP3    H132596   0.981   2.116   4.429  0.0717 -1.8573  0.6772
 3727TIP3    H232597   0.838   2.125   4.381  0.7968  0.7928 -1.2019
 3728TIP3   OH232598   2.731   3.376  16.906  0.0223 -0.3935  0.1556
 3728TIP3    H132599   2.715   3.470  16.900 -1.5351 -0.6723 -0.6070
 3728TIP3    H232600   2.664   3.344  16.967  1.3400 -0.8660  1.4270
 3729TIP3   OH232601   2.969   3.559  13.093  0.3052 -0.8723 -0.2487
 3729TIP3    H132602   2.990   3.588  13.005  1.1493 -0.5803  0.0360
 3729TIP3    H232603   3.032   3.605  13.149  0.6986 -2.0949  0.3609
 3730TIP3   OH232604   5.897   5.335   2.036  0.4799 -0.1396  0.2969
 3730TIP3    H132605   5.934   5.390   1.966  0.4083  0.1716  0.5001
 3730TIP3    H232606   5.947   5.359   2.114  1.8727 -1.8686 -0.0060
 3731TIP3   OH232607   2.675   6.746   2.392  0.0623  0.1199 -0.3620
 3731TIP3    H132608   2.710   6.820   2.440 -0.7473 -0.8319  1.8137
 3731TIP3    H232609   2.584   6.770   2.373  0.3202  0.4082 -1.2918
 3732TIP3   OH232610   4.893   3.086   1.360  0.6197 -0.4568 -0.1019
 3732TIP3    H132611   4.940   3.105   1.279  1.8209 -1.6195  0.3009
 3732TIP3    H232612   4.919   2.997   1.384 -1.1319 -0.8311  0.6014
 3733TIP3   OH232613   3.297   1.437  17.045 -0.2231 -0.2584 -0.1021
 3733TIP3    H132614   3.263   1.371  16.984  0.9952 -2.6472  1.6304
 3733TIP3    H232615   3.248   1.423  17.126  1.0605 -0.0724  0.7510
 3734TIP3   OH232616   6.249   2.424  12.862 -0.1438  0.3229 -0.4665
 3734TIP3    H132617   6.167   2.464  12.891 -0.2592  0.1964 -0.6163
 3734TIP3    H232618   6.310   2.497  12.852 -0.2162  0.4097 -0.2852
 3735TIP3   OH232619   2.357   3.563  14.548 -0.5194  0.7224  0.2785
 3735TIP3    H132620   2.385   3.654  14.538 -0.7433  0.8341  0.6507
 3735TIP3    H232621   2.373   3.524  14.462  0.2932  0.9123  0.3282
 3736TIP3   OH232622   4.064   5.156   1.142  0.5733  0.0958  0.0837
 3736TIP3    H132623   4.028   5.137   1.229  3.2567 -0.2401  1.2076
 3736TIP3    H232624   4.135   5.218   1.159  1.3481 -0.2164 -1.8424
 3737TIP3   OH232625   6.420   5.301  16.786  0.2882 -0.1784 -0.0997
 3737TIP3    H132626   6.435   5.347  16.703 -2.4044 -1.2878 -1.2926
 3737TIP3    H232627   6.388   5.369  16.846  1.0619  0.3835 -0.2986
 3738TIP3   OH232628   2.832   1.362   2.778  0.0251 -0.3922 -0.0935
 3738TIP3    H132629   2.845   1.432   2.842 -0.7985  0.5812 -0.9500
 3738TIP3    H232630   2.737   1.359   2.765  0.0924 -1.3669 -0.4100
 3739TIP3   OH232631   4.657   3.681  15.595  0.6208  0.2733  0.3435
 3739TIP3    H132632   4.608   3.686  15.677  2.1250  0.6473  1.2563
 3739TIP3    H232633   4.596   3.713  15.529 -0.2891  0.9664  1.4779
 3740TIP3   OH232634   0.819   6.415   0.642 -0.3655 -0.2036  0.3969
 3740TIP3    H132635   0.878   6.359   0.693  2.0619  1.2952 -0.6353
 3740TIP3    H232636   0.784   6.477   0.706  0.8255  0.2012  0.6690
 3741TIP3   OH232637   2.861   2.632  12.174  0.1719 -0.2674  0.0898
 3741TIP3    H132638   2.788   2.588  12.219  2.1127 -0.8998  2.8564
 3741TIP3    H232639   2.832   2.723  12.166 -0.8074 -0.4116  1.4927
 3742TIP3   OH232640   1.387   1.161  16.157 -0.4507 -0.3710  0.1405
 3742TIP3    H132641   1.481   1.172  16.141  0.3061  1.4908  4.4276
 3742TIP3    H232642   1.375   1.066  16.163  1.4204 -0.6426  0.4494
 3743TIP3   OH232643   5.561   6.412  11.854  0.1055  0.1838 -0.4812
 3743TIP3    H132644   5.595   6.425  11.766 -1.5704  1.9480 -0.9163
 3743TIP3    H232645   5.576   6.319  11.871  1.8314  0.1173 -1.9916
 3744TIP3   OH232646   0.036   2.645  13.048 -0.1948  0.0818  0.1289
 3744TIP3    H132647  -0.013   2.582  12.995  0.8043 -0.7653  0.1672
 3744TIP3    H232648   0.023   2.616  13.138 -0.3402  0.3833  0.2071
 3745TIP3   OH232649   4.566   1.330   0.558  0.1952  0.0670  0.2962
 3745TIP3    H132650   4.624   1.260   0.585 -0.1929  0.2969  1.7837
 3745TIP3    H232651   4.481   1.309   0.598 -0.1408  0.9376  0.0726
 3746TIP3   OH232652   2.289   1.183   2.810  0.1410 -0.3409 -0.7323
 3746TIP3    H132653   2.223   1.114   2.821 -0.9773  0.9843  1.6699
 3746TIP3    H232654   2.373   1.137   2.813 -0.5815 -1.6574  0.3081
 3747TIP3   OH232655   3.785   6.184  13.128  0.2990  0.0339 -0.3307
 3747TIP3    H132656   3.701   6.140  13.139  0.9657 -1.2475 -0.1722
 3747TIP3    H232657   3.850   6.120  13.157  1.2370  1.7125  1.6497
 3748TIP3   OH232658   2.188   3.108   4.213 -0.3279  0.6237  0.1258
 3748TIP3    H132659   2.101   3.086   4.245  0.0081 -0.3927  0.4106
 3748TIP3    H232660   2.184   3.092   4.119  0.0548 -1.3724  0.3886
 3749TIP3   OH232661   1.643   5.235   2.050  0.5960 -0.3924 -0.7059
 3749TIP3    H132662   1.583   5.290   2.101 -0.5200 -1.2340 -1.0854
 3749TIP3    H232663   1.729   5.252   2.090 -0.0858 -0.2360  0.7786
 3750TIP3   OH232664   2.845   1.392   4.983  0.0727 -0.1853  0.0258
 3750TIP3    H132665   2.802   1.317   5.023 -1.1932  0.3728 -0.2390
 3750TIP3    H232666   2.900   1.354   4.913 -1.2565 -0.8122 -0.7181
 3751TIP3   OH232667   0.502   6.026   0.274 -0.4260 -0.3496  0.0458
 3751TIP3    H132668   0.499   6.056   0.183  0.7582  0.3283  0.1990
 3751TIP3    H232669   0.580   5.971   0.279 -0.6715 -0.6566  0.5733
 3752TIP3   OH232670   3.527   1.351  13.501  0.2682  0.2521  0.8012
 3752TIP3    H132671   3.531   1.320  13.592 -1.9409  1.7797  1.4991
 3752TIP3    H232672   3.461   1.295  13.460  1.6111 -0.7559 -0.0446
 3753TIP3   OH232673   6.029   4.903   1.542 -0.1933 -0.1644 -0.0006
 3753TIP3    H132674   6.104   4.917   1.484 -0.6176  0.0735 -0.4991
 3753TIP3    H232675   6.042   4.816   1.578  0.5217  0.0260  0.2123
 3754TIP3   OH232676   2.660   1.299   1.756 -0.3063  0.1456  0.6525
 3754TIP3    H132677   2.750   1.320   1.781  0.0066  1.2286 -1.2112
 3754TIP3    H232678   2.635   1.229   1.815  1.4391  0.4534  1.8332
 3755TIP3   OH232679   4.961   0.664   1.831  0.0540 -0.1444 -0.4242
 3755TIP3    H132680   5.033   0.718   1.863 -0.5456 -0.6873  2.0743
 3755TIP3    H232681   5.003   0.586   1.794  0.8021 -0.7179  1.5087
 3756TIP3   OH232682   2.602   0.533   4.015  0.6420  0.0911  0.3520
 3756TIP3    H132683   2.670   0.517   3.949  1.2290  0.1409  0.9350
 3756TIP3    H232684   2.633   0.610   4.063 -0.4608  0.9139 -0.2063
 3757TIP3   OH232685   6.215   5.790   1.067  0.5525 -0.1566  0.0962
 3757TIP3    H132686   6.230   5.730   0.994 -0.7810 -2.5090  1.6116
 3757TIP3    H232687   6.138   5.841   1.042  1.3428  0.5705 -0.9582
 3758TIP3   OH232688   0.151   1.102   3.366 -0.1089  0.2748  0.2608
 3758TIP3    H132689   0.093   1.169   3.330 -0.9510 -0.4084  0.2840
 3758TIP3    H232690   0.148   1.116   3.460  2.4667  2.3607  0.1310
 3759TIP3   OH232691   3.799   6.078  10.821  0.2924 -0.5920  0.3673
 3759TIP3    H132692   3.893   6.091  10.834  0.4246 -0.2818 -0.7898
 3759TIP3    H232693   3.768   6.160  10.783 -0.2310 -1.0820 -0.2867
 3760TIP3   OH232694   3.513   4.027   3.631  0.4104  0.0743  0.3806
 3760TIP3    H132695   3.597   4.073   3.632  0.1686  0.5481  2.6590
 3760TIP3    H232696   3.454   4.085   3.583  0.9713  0.4743  0.1642
 3761TIP3   OH232697   6.202   4.270  12.048  0.5957 -0.0970 -0.6013
 3761TIP3    H132698   6.259   4.288  12.123 -2.2931  0.3529  1.7072
 3761TIP3    H232699   6.122   4.319  12.067 -0.7710 -1.0565 -3.3758
 3762TIP3   OH232700   4.808   5.354   0.302  0.0084  0.0925  0.6349
 3762TIP3    H132701   4.776   5.387   0.386  1.9106  1.6600  0.8300
 3762TIP3    H232702   4.837   5.265   0.321  1.9764  0.9671  2.1492
 3763TIP3   OH232703   0.497   1.781   1.850  0.5483  0.2199  0.0781
 3763TIP3    H132704   0.555   1.845   1.807 -0.6876  0.8253 -0.7566
 3763TIP3    H232705   0.487   1.814   1.939  0.2562  0.9761 -0.2234
 3764TIP3   OH232706   3.252   0.101  11.146 -0.0478  0.1322  1.3124
 3764TIP3    H132707   3.273   0.191  11.169  3.1428 -0.4871  1.3163
 3764TIP3    H232708   3.274   0.094  11.053 -0.6258 -0.5533  1.2136
 3765TIP3   OH232709   3.110   6.584   0.160  0.1768  0.4630  0.6182
 3765TIP3    H132710   3.060   6.503   0.162 -2.9778  2.2474  1.0422
 3765TIP3    H232711   3.072   6.637   0.230  1.8121  2.4639  0.0716
 3766TIP3   OH232712   2.328   3.160  11.797 -0.0356  0.0881  0.1284
 3766TIP3    H132713   2.269   3.226  11.835 -1.6051 -0.8533 -0.5464
 3766TIP3    H232714   2.414   3.182  11.832 -0.2860  3.1057 -0.8659
 3767TIP3   OH232715   0.855   1.044  13.493 -0.2454 -0.2307  0.2303
 3767TIP3    H132716   0.820   1.132  13.505  1.7229  0.5240  0.9444
 3767TIP3    H232717   0.786   0.996  13.448 -0.8705  2.0539 -1.4297
 3768TIP3   OH232718   4.657   6.433   0.946  0.0553 -0.3193 -1.0976
 3768TIP3    H132719   4.572   6.432   0.901  1.0008  0.9961 -3.0718
 3768TIP3    H232720   4.687   6.342   0.942 -1.3320 -0.8588 -0.1308
 3769TIP3   OH232721   6.525   2.726   2.882  0.2184 -0.4784 -0.0606
 3769TIP3    H132722   6.522   2.674   2.962  0.9244 -1.7955 -0.8382
 3769TIP3    H232723   6.437   2.718   2.845 -0.0340 -0.0829  0.4500
 3770TIP3   OH232724   1.881   6.596  16.455  0.2700  0.4232 -0.1113
 3770TIP3    H132725   1.874   6.519  16.398 -0.2178 -1.1506  1.9564
 3770TIP3    H232726   1.969   6.591  16.492  1.2210  2.4035 -1.9510
 3771TIP3   OH232727   1.274   2.554   3.863 -0.1769  0.8547  0.8618
 3771TIP3    H132728   1.333   2.498   3.913 -2.2101  0.0461  2.5206
 3771TIP3    H232729   1.258   2.629   3.921 -0.9299  0.9501  0.5435
 3772TIP3   OH232730   2.392   0.720  11.812 -0.1648  0.1727  0.6897
 3772TIP3    H132731   2.322   0.670  11.771 -0.3149 -0.7709  2.0185
 3772TIP3    H232732   2.372   0.718  11.905 -0.0219  2.5193  0.8453
 3773TIP3   OH232733   2.761   1.409   4.331 -0.1984 -0.1311 -0.2339
 3773TIP3    H132734   2.802   1.496   4.335 -1.3002  0.3762  0.8760
 3773TIP3    H232735   2.738   1.397   4.239  0.1973  0.6333 -0.4434
 3774TIP3   OH232736   1.877   2.237  11.491 -0.4044 -0.0520  0.3743
 3774TIP3    H132737   1.808   2.301  11.476  0.1408  0.3116 -0.7067
 3774TIP3    H232738   1.956   2.277  11.455  0.3349 -0.5570  1.3666
 3775TIP3   OH232739   0.670   4.185  17.264  0.0583  0.0983 -0.3360
 3775TIP3    H132740   0.750   4.232  17.241  0.0468  1.0074  1.3181
 3775TIP3    H232741   0.674   4.104  17.212  3.0274 -0.8053  1.0484
 3776TIP3   OH232742   1.085   2.566   1.677 -0.3932 -0.1803  0.3288
 3776TIP3    H132743   1.157   2.583   1.738 -0.8499 -0.8783  1.0840
 3776TIP3    H232744   1.128   2.537   1.596  0.1850 -0.1579  0.6252
 3777TIP3   OH232745   0.938   2.249   2.770  0.5814  0.4442  0.1854
 3777TIP3    H132746   0.953   2.226   2.678 -0.1433  0.4820  0.0588
 3777TIP3    H232747   1.017   2.217   2.815  0.8578  0.2587 -0.4145
 3778TIP3   OH232748   6.081   5.807   3.010 -0.3368  0.4625 -0.2695
 3778TIP3    H132749   6.164   5.766   2.985  0.1492  0.5754  1.1005
 3778TIP3    H232750   6.044   5.838   2.927 -1.6746 -4.2940 -1.7708
 3779TIP3   OH232751   4.338   1.196   0.604 -0.0315  0.4692 -0.0368
 3779TIP3    H132752   4.283   1.129   0.564  1.6539 -2.7439  2.5347
 3779TIP3    H232753   4.309   1.200   0.695  0.4474  2.7781  0.0815
 3780TIP3   OH232754   5.072   2.302   6.199 -0.9404  0.3069  0.2345
 3780TIP3    H132755   5.128   2.376   6.224 -1.2080 -0.0501  2.0376
 3780TIP3    H232756   5.119   2.259   6.128  0.4802  0.7244  0.8914
 3781TIP3   OH232757   0.361   3.799   5.389 -0.6331 -0.8118 -0.5939
 3781TIP3    H132758   0.354   3.840   5.303  0.7868 -1.4316 -1.0338
 3781TIP3    H232759   0.443   3.831   5.425  0.6865 -3.3900 -1.0775
 3782TIP3   OH232760   0.519   3.263  14.944 -0.1919 -0.2479  0.0714
 3782TIP3    H132761   0.597   3.208  14.937 -0.7757 -1.1727  0.6480
 3782TIP3    H232762   0.470   3.227  15.018 -1.7749 -0.4816 -1.0217
 3783TIP3   OH232763   5.044   4.943  12.574  0.6534  0.1312  0.2744
 3783TIP3    H132764   4.985   4.880  12.532 -0.1731  0.9808  0.1049
 3783TIP3    H232765   5.132   4.909  12.559  0.1727 -1.8252  1.6043
 3784TIP3   OH232766   3.787   6.153   4.903  0.1125 -0.0205 -0.2171
 3784TIP3    H132767   3.773   6.196   4.819 -0.0885  2.2737  0.9029
 3784TIP3    H232768   3.881   6.139   4.908  0.0302 -1.0379 -1.1865
 3785TIP3   OH232769   0.988   6.452  11.479 -0.5950 -0.5215 -0.0233
 3785TIP3    H132770   1.009   6.380  11.539 -2.2311  0.2966  1.6350
 3785TIP3    H232771   1.018   6.530  11.526 -2.2501  0.1716 -0.0788
 3786TIP3   OH232772   5.782   1.512  10.939 -0.4472  0.1171  0.4911
 3786TIP3    H132773   5.816   1.583  10.884 -1.4050  0.5730  0.4640
 3786TIP3    H232774   5.809   1.432  10.893  0.6904  0.4440  0.5476
 3787TIP3   OH232775   5.714   4.869   4.596  0.7471  0.7536  0.0472
 3787TIP3    H132776   5.690   4.890   4.506  0.4448  2.0360  0.3968
 3787TIP3    H232777   5.632   4.875   4.645  1.1337  1.4808  0.6293
 3788TIP3   OH232778   0.163   2.421  13.433 -0.0439 -0.0510  0.7742
 3788TIP3    H132779   0.115   2.339  13.423  0.3318 -0.1836 -0.0822
 3788TIP3    H232780   0.237   2.412  13.374 -0.7467  1.4597 -0.4117
 3789TIP3   OH232781   6.199   3.084   5.447 -0.0676 -0.1159  0.1213
 3789TIP3    H132782   6.107   3.103   5.464 -0.0802 -0.1210  0.0610
 3789TIP3    H232783   6.247   3.140   5.508 -0.0717  0.8886 -0.7610
 3790TIP3   OH232784   3.696   6.580  13.808  0.0578 -0.1650  0.0892
 3790TIP3    H132785   3.750   6.565  13.885  1.2127 -0.0739 -0.6752
 3790TIP3    H232786   3.650   6.497  13.794  0.5041 -0.4601  0.3588
 3791TIP3   OH232787   1.537   2.066   2.214  0.3204 -0.2648  0.0968
 3791TIP3    H132788   1.449   2.030   2.208  0.5587 -0.9252  0.5312
 3791TIP3    H232789   1.533   2.128   2.287  0.1258 -0.0108 -0.1250
 3792TIP3   OH232790   1.263   1.244   1.006  0.3834  0.5128 -0.3038
 3792TIP3    H132791   1.276   1.231   0.912 -0.8717 -0.2685 -0.3990
 3792TIP3    H232792   1.220   1.164   1.036 -1.6607  1.7676  0.4040
 3793TIP3   OH232793   1.599   5.901  15.217 -0.0247  0.3767 -0.3614
 3793TIP3    H132794   1.512   5.904  15.258  0.4765  0.4448  0.7373
 3793TIP3    H232795   1.606   5.983  15.168  0.1520  1.3097  1.1387
 3794TIP3   OH232796   2.887   0.019  16.375 -0.3078 -0.6335  0.4874
 3794TIP3    H132797   2.974   0.027  16.414 -0.6259 -0.8173  1.2512
 3794TIP3    H232798   2.869   0.106  16.339  1.1553 -1.2009 -1.8160
 3795TIP3   OH232799   5.580   0.067   0.260  0.1133  0.0129  0.0197
 3795TIP3    H132800   5.578   0.119   0.180  1.5406 -0.7547 -0.5323
 3795TIP3    H232801   5.633   0.119   0.321  1.1566 -0.5563 -0.3828
 3796TIP3   OH232802   2.305   4.606  13.088  1.0178  0.1313 -0.3504
 3796TIP3    H132803   2.272   4.691  13.117 -0.8862 -0.5087 -0.4886
 3796TIP3    H232804   2.228   4.549  13.087  2.3180 -1.7713  0.3084
 3797TIP3   OH232805   0.498   0.619  12.049  0.2479 -0.0202  0.1989
 3797TIP3    H132806   0.511   0.699  11.998  1.0227 -0.1103  0.2564
 3797TIP3    H232807   0.532   0.549  11.994 -3.2491 -0.7980 -1.2610
 3798TIP3   OH232808   6.513   1.952  15.231  0.4616  0.2742  0.0288
 3798TIP3    H132809   6.548   1.931  15.317  1.0810  0.6761 -0.1162
 3798TIP3    H232810   6.554   2.035  15.208 -0.3372  0.5934 -0.3003
 3799TIP3   OH232811   4.379   4.632  14.921  0.1353  0.2664 -0.1125
 3799TIP3    H132812   4.303   4.583  14.951  0.2783  1.6195  2.9118
 3799TIP3    H232813   4.454   4.586  14.960  0.5038  1.0879  0.1850
 3800TIP3   OH232814   6.270   5.678   0.214 -0.5288  0.3988  0.1437
 3800TIP3    H132815   6.240   5.675   0.305 -1.3796  0.4961 -0.1265
 3800TIP3    H232816   6.189   5.683   0.162 -0.2859 -2.7495 -0.7807
 3801TIP3   OH232817   2.477   5.010   0.153 -0.4671 -0.5527 -0.1302
 3801TIP3    H132818   2.531   5.060   0.092  0.3839 -1.7199 -0.3709
 3801TIP3    H232819   2.497   4.918   0.133 -1.1624 -0.9777  1.0249
 3802TIP3   OH232820   3.412   5.426  16.576 -0.2364  0.8165 -0.3084
 3802TIP3    H132821   3.491   5.408  16.628 -0.2709  1.1152 -0.1532
 3802TIP3    H232822   3.388   5.515  16.599 -0.2538  0.9531 -0.8437
 3803TIP3   OH232823   2.374   1.281   1.930 -0.1310  0.2422 -0.2365
 3803TIP3    H132824   2.391   1.187   1.932 -2.3806 -0.2236  1.4615
 3803TIP3    H232825   2.376   1.304   1.837 -0.9746 -1.7896 -0.8079
 3804TIP3   OH232826   0.543   2.218  12.151  0.4595  0.5411  0.2472
 3804TIP3    H132827   0.595   2.298  12.156  1.2919 -0.0421  1.4388
 3804TIP3    H232828   0.517   2.212  12.060  0.9800  1.7965 -0.0068
 3805TIP3   OH232829   2.162   3.751  16.620  0.2869 -0.0146 -0.3266
 3805TIP3    H132830   2.095   3.816  16.642  2.2386  1.6579  1.1008
 3805TIP3    H232831   2.191   3.775  16.532  0.9640  1.0873  0.1724
 3806TIP3   OH232832   0.622   2.729  12.437 -0.6383 -0.7387 -0.5344
 3806TIP3    H132833   0.535   2.700  12.410 -0.6791 -1.9271  0.7323
 3806TIP3    H232834   0.677   2.651  12.431  0.3669 -0.0095 -1.3161
 3807TIP3   OH232835   4.363   3.800  11.722  0.2049  0.0791 -0.3389
 3807TIP3    H132836   4.375   3.857  11.646 -0.0638  0.8883  0.2073
 3807TIP3    H232837   4.451   3.784  11.755  0.2236  1.2306  0.2379
 3808TIP3   OH232838   3.444   0.010  10.870  0.3369 -0.2654  0.1543
 3808TIP3    H132839   3.510   0.073  10.843  0.7504 -0.9671 -0.5219
 3808TIP3    H232840   3.489  -0.075  10.867  0.1100 -0.4946  2.0823
 3809TIP3   OH232841   5.461   6.413   2.806  0.2167  0.4554 -0.0926
 3809TIP3    H132842   5.453   6.409   2.711 -1.3783 -1.9171  0.0595
 3809TIP3    H232843   5.545   6.457   2.821  0.1634  1.5560 -2.5447
 3810TIP3   OH232844   4.673   0.053   1.809  0.6464  0.4216 -0.6174
 3810TIP3    H132845   4.623   0.028   1.887  1.1680 -1.1692 -0.7547
 3810TIP3    H232846   4.764   0.054   1.837  0.8537 -0.2980 -1.2161
 3811TIP3   OH232847   5.418   6.263   1.989 -0.1230  0.2376 -0.3861
 3811TIP3    H132848   5.504   6.303   1.978 -0.5886  1.1239 -0.8918
 3811TIP3    H232849   5.387   6.295   2.074  0.0115 -0.0141 -0.2421
 3812TIP3   OH232850   4.800   1.793   2.358  0.5686  0.3385  0.2675
 3812TIP3    H132851   4.836   1.716   2.315 -1.1743  1.3024 -3.2402
 3812TIP3    H232852   4.740   1.758   2.424 -1.2821 -1.4649 -2.1943
 3813TIP3   OH232853   4.558   5.239   4.707  0.0351 -0.1950  0.2950
 3813TIP3    H132854   4.588   5.155   4.671  1.7378  0.9708 -1.1697
 3813TIP3    H232855   4.618   5.256   4.780 -0.4582 -0.3454  0.7410
 3814TIP3   OH232856   5.250   2.085   0.049 -0.2569  0.8317 -0.3522
 3814TIP3    H132857   5.175   2.050   0.001  0.2112  1.2956 -1.4579
 3814TIP3    H232858   5.282   2.011   0.100 -1.5832  0.6810  0.3055
 3815TIP3   OH232859   0.830   0.350   2.898 -0.1757 -0.3799 -0.1055
 3815TIP3    H132860   0.922   0.329   2.882 -0.2324 -0.9870  0.3464
 3815TIP3    H232861   0.782   0.274   2.865 -0.5025 -0.1620 -0.1369
 3816TIP3   OH232862   6.451   3.942   0.948 -0.1556 -0.3464  0.0755
 3816TIP3    H132863   6.391   3.948   1.022 -1.3993 -1.8936 -0.7581
 3816TIP3    H232864   6.444   3.851   0.918  1.8262 -0.2973 -0.7198
 3817TIP3   OH232865   0.507   3.781  15.090  0.0940 -0.1159 -0.0010
 3817TIP3    H132866   0.439   3.806  15.152  1.6414  1.4119  1.1740
 3817TIP3    H232867   0.459   3.749  15.014 -2.2235  4.5249 -0.8518
 3818TIP3   OH232868   0.332   0.901  16.424 -0.5216  0.2228  0.0070
 3818TIP3    H132869   0.293   0.871  16.506 -0.7466  1.6249  0.4462
 3818TIP3    H232870   0.259   0.942  16.377 -0.6021 -1.3648 -1.3248
 3819TIP3   OH232871   3.774   2.085  14.009  0.7945  0.4408  0.4087
 3819TIP3    H132872   3.740   2.173  13.994 -0.5295 -0.1970 -0.5559
 3819TIP3    H232873   3.696   2.029  14.011  1.6961 -0.9032 -0.5549
 3820TIP3   OH232874   1.963   4.638  17.185 -0.0935  0.8623 -0.6246
 3820TIP3    H132875   2.002   4.695  17.251 -0.2593  1.4108 -0.9933
 3820TIP3    H232876   2.037   4.605  17.134  0.1591 -0.5550  0.5824
 3821TIP3   OH232877   4.074   5.483  15.701 -0.6092 -0.0363  0.2093
 3821TIP3    H132878   4.018   5.408  15.679  0.5023 -0.3599 -1.7160
 3821TIP3    H232879   4.013   5.555  15.718 -1.6321 -0.7782 -0.2375
 3822TIP3   OH232880   0.244   5.999   1.295 -1.1272 -0.0977 -0.2963
 3822TIP3    H132881   0.271   6.090   1.288 -2.9880  0.5253  0.0592
 3822TIP3    H232882   0.308   5.959   1.353 -1.4947  1.5531  1.3628
 3823TIP3   OH232883   2.582   1.331   3.040 -0.2004 -0.0071 -0.0352
 3823TIP3    H132884   2.654   1.278   3.075 -0.8001 -0.4970  0.4767
 3823TIP3    H232885   2.625   1.404   2.997  0.6724 -1.0809 -1.0685
 3824TIP3   OH232886   2.822   2.855  16.058 -0.0224  0.0124 -0.2710
 3824TIP3    H132887   2.839   2.926  15.996 -0.1114  1.2275  1.0620
 3824TIP3    H232888   2.765   2.893  16.124  1.4138 -0.7180  1.4949
 3825TIP3   OH232889   4.109   3.822   5.973 -0.3189  0.1230  0.5448
 3825TIP3    H132890   4.176   3.769   5.930 -0.2861  0.2320  0.4606
 3825TIP3    H232891   4.040   3.760   5.995 -1.2370  0.3689 -1.4471
 3826TIP3   OH232892   3.862   6.590  13.548 -0.0371 -0.1169  0.0966
 3826TIP3    H132893   3.789   6.577  13.609 -0.3864  0.0583 -0.2741
 3826TIP3    H232894   3.825   6.568  13.462  0.3519 -0.0382 -0.0915
 3827TIP3   OH232895   2.202   4.579  17.049  0.6173  0.1869 -0.0654
 3827TIP3    H132896   2.254   4.651  17.014  0.6413  0.1741 -0.0560
 3827TIP3    H232897   2.176   4.528  16.972 -0.5248  0.9573 -0.2237
 3828TIP3   OH232898   0.166   0.343   2.639 -0.5704 -0.3011 -0.5113
 3828TIP3    H132899   0.180   0.406   2.568 -0.9083  0.6477  0.2431
 3828TIP3    H232900   0.220   0.376   2.711 -1.4336 -0.3874  0.1854
 3829TIP3   OH232901   5.416   5.605   4.012  0.3843 -0.1589 -0.4086
 3829TIP3    H132902   5.381   5.693   4.026  1.2725  0.0844  0.3936
 3829TIP3    H232903   5.497   5.603   4.062 -0.0200 -1.7082  0.2393
 3830TIP3   OH232904   4.630   3.886  14.769 -0.1014  0.6104  0.2616
 3830TIP3    H132905   4.709   3.833  14.777 -0.2788  0.2242 -0.4410
 3830TIP3    H232906   4.649   3.947  14.698 -0.7796 -0.1418 -0.5950
 3831TIP3   OH232907   4.097   4.225  15.034  0.3486 -0.5702  0.0995
 3831TIP3    H132908   4.112   4.180  14.951  1.5311  0.8211 -0.4773
 3831TIP3    H232909   4.049   4.162  15.087  0.6608 -1.9460 -1.1929
 3832TIP3   OH232910   5.108   4.151   2.968 -0.2297 -0.1402  0.0833
 3832TIP3    H132911   5.020   4.180   2.944 -1.0747 -1.2510  1.6818
 3832TIP3    H232912   5.165   4.224   2.942 -1.5589  0.4630 -1.2752
 3833TIP3   OH232913   2.035   3.890  11.802 -0.1837 -0.1641 -0.5902
 3833TIP3    H132914   2.032   3.854  11.713 -2.2298  0.2054 -0.6986
 3833TIP3    H232915   2.100   3.835  11.847 -0.7256 -1.8115 -1.7061
 3834TIP3   OH232916   2.675   5.960  11.371 -0.0854  0.0243  0.4715
 3834TIP3    H132917   2.605   6.024  11.364  0.0248  0.1192  0.2239
 3834TIP3    H232918   2.665   5.905  11.293 -1.3984 -1.4966  1.6243
 3835TIP3   OH232919   4.425   3.041  15.371 -0.4020  0.8368  0.1724
 3835TIP3    H132920   4.386   3.054  15.285  1.1536  3.1376 -0.2790
 3835TIP3    H232921   4.487   2.969  15.358 -0.7837  0.6017 -0.4014
 3836TIP3   OH232922   0.322   6.375  12.659  0.1659 -0.2391  0.6237
 3836TIP3    H132923   0.243   6.416  12.623  1.4266  3.6553  1.7519
 3836TIP3    H232924   0.326   6.406  12.750  3.6401  0.9915  0.2124
 3837TIP3   OH232925   1.591   0.111   1.405  0.4831  0.1383  0.0342
 3837TIP3    H132926   1.615   0.174   1.473  1.0931  0.6197 -0.6152
 3837TIP3    H232927   1.617   0.153   1.323  0.7589 -0.8923 -0.4219
 3838TIP3   OH232928   2.587   4.048  14.323 -0.4475 -0.1315  0.0292
 3838TIP3    H132929   2.613   4.026  14.233 -0.9721  1.2752 -0.5060
 3838TIP3    H232930   2.653   4.111  14.352 -1.8905  1.7439 -0.5197
 3839TIP3   OH232931   1.847   1.669   2.529 -0.2047 -0.4159 -0.5056
 3839TIP3    H132932   1.828   1.737   2.594  0.7415  0.3569 -1.0151
 3839TIP3    H232933   1.792   1.692   2.454  0.5091  0.1114 -0.8773
 3840TIP3   OH232934   4.913   5.985   1.921 -0.7709 -1.1391 -0.1574
 3840TIP3    H132935   4.901   5.976   2.016 -1.1144 -0.2070 -0.0925
 3840TIP3    H232936   4.999   6.026   1.912 -0.6954 -1.3206 -0.2507
 3841TIP3   OH232937   5.004   4.809  14.597  0.0395  0.2203 -0.2633
 3841TIP3    H132938   5.048   4.745  14.541 -1.3829 -2.8820  1.8709
 3841TIP3    H232939   4.915   4.815  14.562 -0.0126  0.5771 -0.0784
 3842TIP3   OH232940   0.769   0.085   3.183 -0.1287  1.2472  0.0253
 3842TIP3    H132941   0.851   0.045   3.152  0.5960  1.5149  1.5092
 3842TIP3    H232942   0.705   0.014   3.180  1.2465 -0.3110  3.0605
 3843TIP3   OH232943   5.158   5.754   2.681  0.4582 -1.0733  0.1941
 3843TIP3    H132944   5.139   5.847   2.688  1.5737 -0.7368 -0.9935
 3843TIP3    H232945   5.251   5.749   2.660  1.0361 -2.5625  2.6627
 3844TIP3   OH232946   4.970   5.406   2.389 -0.5541 -0.0331 -0.3335
 3844TIP3    H132947   4.948   5.387   2.298 -1.1912  0.2280 -0.2368
 3844TIP3    H232948   5.000   5.322   2.424 -0.0156 -0.0678 -0.8613
 3845TIP3   OH232949   2.477   1.040  16.792 -0.0419  0.5651  0.1295
 3845TIP3    H132950   2.387   1.034  16.762 -0.1523 -0.0151  0.5631
 3845TIP3    H232951   2.529   0.999  16.722 -0.2757 -0.5708  0.5917
 3846TIP3   OH232952   5.978   6.229   1.279 -0.2771  0.1384  0.4693
 3846TIP3    H132953   6.004   6.137   1.275  1.6125  0.6349  0.5474
 3846TIP3    H232954   5.938   6.246   1.194  0.6198 -0.4084 -0.0723
 3847TIP3   OH232955   3.992   4.736  11.393  0.5080  0.7102  0.0740
 3847TIP3    H132956   4.046   4.770  11.464  1.0830  0.6090 -0.3104
 3847TIP3    H232957   4.046   4.746  11.315 -0.1701  0.9474 -0.3750
 3848TIP3   OH232958   0.859   0.118   0.963 -0.2063  0.1739 -0.2216
 3848TIP3    H132959   0.878   0.210   0.947  0.6320 -0.0313 -0.4861
 3848TIP3    H232960   0.878   0.075   0.879  1.7842 -0.5649  0.5391
 3849TIP3   OH232961   1.559   3.599  13.160 -0.2620 -0.5777 -0.1307
 3849TIP3    H132962   1.557   3.511  13.197  1.2283 -0.8396 -0.5815
 3849TIP3    H232963   1.469   3.631  13.167 -0.7353 -1.9686  0.4207
 3850TIP3   OH232964   4.654   4.985   1.781 -0.3788  0.1586  0.0590
 3850TIP3    H132965   4.654   5.080   1.797 -0.7769  0.8036 -3.1821
 3850TIP3    H232966   4.567   4.956   1.807 -0.0781  0.5232  1.5872
 3851TIP3   OH232967   2.775   1.538  15.448 -0.4457 -0.4017  0.2155
 3851TIP3    H132968   2.783   1.615  15.504  0.0698 -0.9318  0.8806
 3851TIP3    H232969   2.852   1.541  15.392  0.5065 -1.3357  1.4050
 3852TIP3   OH232970   0.634   3.131  12.753 -0.7267 -0.0415  1.0378
 3852TIP3    H132971   0.670   3.084  12.677  0.6536  0.3153  1.4395
 3852TIP3    H232972   0.570   3.192  12.715  0.2051  0.3831  0.0943
 3853TIP3   OH232973   3.841   0.851   0.661 -0.4961 -0.0303 -0.1922
 3853TIP3    H132974   3.934   0.847   0.637 -0.3040  2.0578  0.0618
 3853TIP3    H232975   3.836   0.798   0.741 -0.1666 -2.7073 -1.8141
 3854TIP3   OH232976   4.464   4.011   6.314  0.2757 -0.2059 -0.0691
 3854TIP3    H132977   4.472   4.038   6.405  1.0225  0.2414 -0.2609
 3854TIP3    H232978   4.550   4.026   6.276  0.1982 -1.1387 -0.6588
 3855TIP3   OH232979   3.452   4.061  14.830 -0.0503 -0.2384  0.5121
 3855TIP3    H132980   3.390   3.990  14.851 -2.2368  1.4742  0.2288
 3855TIP3    H232981   3.404   4.141  14.850  1.7772  1.2181 -0.6353
 3856TIP3   OH232982   3.279   5.739   6.095 -0.6260  0.1458  0.0085
 3856TIP3    H132983   3.268   5.828   6.129 -0.1156  0.3810 -0.4170
 3856TIP3    H232984   3.320   5.691   6.166  0.4867  0.6488 -0.2721
 3857TIP3   OH232985   6.090   4.336   5.556 -0.1180 -0.2032  0.2322
 3857TIP3    H132986   6.082   4.421   5.513  1.2064  0.6870  1.6373
 3857TIP3    H232987   6.161   4.348   5.619 -1.2485 -1.7546  1.8857
 3858TIP3   OH232988   5.904   5.821  15.435 -0.4281 -0.0995  0.3305
 3858TIP3    H132989   5.894   5.882  15.508 -2.8720 -0.5858  0.4647
 3858TIP3    H232990   5.858   5.863  15.362  1.1098 -0.0890 -0.6876
 3859TIP3   OH232991   2.919   2.990   0.290  0.2130 -0.4949 -0.0655
 3859TIP3    H132992   3.014   2.995   0.304  0.0874 -0.4738  0.8701
 3859TIP3    H232993   2.883   3.052   0.353 -0.5268 -1.9784  1.0362
 3860TIP3   OH232994   0.760   5.395  16.664 -0.8312 -0.0947  0.1577
 3860TIP3    H132995   0.738   5.314  16.710  0.8524 -0.9377 -0.4678
 3860TIP3    H232996   0.847   5.380  16.627 -1.0789  1.4779 -1.1922
 3861TIP3   OH232997   0.517   3.566   5.825  0.2955 -0.0180  0.1182
 3861TIP3    H132998   0.459   3.641   5.808 -0.7271 -0.7913  0.0626
 3861TIP3    H232999   0.461   3.503   5.871  1.3913 -0.3844  0.9874
 3862TIP3   OH233000   3.764   6.384   6.690 -0.1080  0.8590 -0.0101
 3862TIP3    H133001   3.846   6.349   6.655 -0.0917  0.9404 -0.0520
 3862TIP3    H233002   3.706   6.307   6.694  0.8588  0.1665  2.7859
 3863TIP3   OH233003   5.632   6.386   4.563  0.5019 -0.5649 -0.3750
 3863TIP3    H133004   5.646   6.292   4.568  1.0633 -0.4621  0.0711
 3863TIP3    H233005   5.669   6.421   4.644  0.4245  0.0540 -0.5977
 3864TIP3   OH233006   6.290   3.221  15.238 -0.4333  0.4139 -0.0630
 3864TIP3    H133007   6.383   3.199  15.248 -0.3652  1.0442  0.7603
 3864TIP3    H233008   6.271   3.282  15.309 -1.3359  0.7710 -0.5876
 3865TIP3   OH233009   6.684   5.052   6.138  0.5563  0.1078 -0.7620
 3865TIP3    H133010   6.668   4.975   6.193 -0.1919  0.3225 -0.6763
 3865TIP3    H233011   6.598   5.090   6.124  0.7841  0.2650 -1.7965
 3866TIP3   OH233012   2.500   4.846   1.103 -0.4003 -0.5621  0.3823
 3866TIP3    H133013   2.507   4.861   1.008 -0.7402 -0.1901  0.4136
 3866TIP3    H233014   2.586   4.815   1.129 -0.7135 -2.0928 -0.3024
 3867TIP3   OH233015   1.549   5.967  14.353 -0.1339 -0.5663  0.4153
 3867TIP3    H133016   1.519   5.932  14.269  0.5602 -0.3574  0.0775
 3867TIP3    H233017   1.475   6.020  14.384  0.1354  0.5741 -0.7812
 3868TIP3   OH233018   6.096   1.831  15.126 -0.2683 -0.7093  0.0844
 3868TIP3    H133019   6.074   1.822  15.033 -1.3360  1.3970  0.0886
 3868TIP3    H233020   6.164   1.765  15.140 -0.5487 -1.5443 -2.0201
 3869TIP3   OH233021   5.263   4.365   2.895  0.2819 -0.4222  0.2832
 3869TIP3    H133022   5.340   4.396   2.847 -0.3083 -0.7883 -0.9611
 3869TIP3    H233023   5.229   4.444   2.938 -0.0707  0.2923 -1.2261
 3870TIP3   OH233024   5.299   0.069  15.997  0.0780 -0.1363  0.7075
 3870TIP3    H133025   5.219   0.025  16.025  1.0521 -2.6490 -0.2019
 3870TIP3    H233026   5.281   0.095  15.906 -0.1175  0.4556  0.9070
 3871TIP3   OH233027   3.669   0.384  16.676 -0.1337  0.1357 -0.3281
 3871TIP3    H133028   3.751   0.385  16.725 -0.2544 -0.6108 -0.0906
 3871TIP3    H233029   3.617   0.453  16.716 -1.1378 -1.9296  2.2646
 3872TIP3   OH233030   0.628   4.996   1.009 -0.4120 -0.2723 -0.2325
 3872TIP3    H133031   0.555   5.034   0.960 -0.2149  2.5809  1.5118
 3872TIP3    H233032   0.586   4.940   1.074 -0.7537 -2.3192 -2.0816
 3873TIP3   OH233033   6.501   6.590  10.479  0.6299  0.1412 -0.6575
 3873TIP3    H133034   6.433   6.594  10.546 -0.8639 -0.7020 -2.0705
 3873TIP3    H233035   6.581   6.568  10.528 -0.5855 -1.3399  0.7507
 3874TIP3   OH233036   3.150   6.703   2.794  0.1793  0.2768 -0.4514
 3874TIP3    H133037   3.242   6.676   2.787  0.0677  0.2471 -2.5530
 3874TIP3    H233038   3.154   6.793   2.828  0.7091 -1.0320  3.3918
 3875TIP3   OH233039   6.632   0.919  14.673  0.2590  0.3971  0.0928
 3875TIP3    H133040   6.592   0.950  14.592 -1.6225  0.6140  1.0560
 3875TIP3    H233041   6.724   0.907  14.651  0.2234  2.4776 -1.4892
 3876TIP3   OH233042   1.408   2.606  12.592  0.1628 -0.6575  0.5168
 3876TIP3    H133043   1.366   2.565  12.668  0.2358 -1.8559 -0.0632
 3876TIP3    H233044   1.397   2.542  12.521  3.1503 -1.1453  0.3673
 3877TIP3   OH233045   5.264   1.554  15.799 -0.4205 -0.0221 -0.5620
 3877TIP3    H133046   5.235   1.472  15.840  2.2915  0.0577  1.8428
 3877TIP3    H233047   5.360   1.551  15.804 -0.2107  3.7953  0.7774
 3878TIP3   OH233048   3.567   3.984   2.210 -0.2384 -0.5249 -0.7359
 3878TIP3    H133049   3.627   4.037   2.262 -2.1105  1.3629 -0.3566
 3878TIP3    H233050   3.620   3.952   2.137  1.2884  0.7898 -0.2591
 3879TIP3   OH233051   6.661   2.120  12.336  0.0919 -0.5339 -0.5874
 3879TIP3    H133052   6.626   2.197  12.381  0.2434 -0.5970 -0.3600
 3879TIP3    H233053   6.744   2.102  12.380 -0.1752 -1.1214 -0.3090
 3880TIP3   OH233054   5.989   4.254   4.048  0.0880  0.9215 -0.2100
 3880TIP3    H133055   6.030   4.168   4.037 -2.2633 -0.6198  2.0668
 3880TIP3    H233056   5.909   4.250   3.995 -0.1552  1.6422  0.0857
 3881TIP3   OH233057   4.962   2.948   4.655  0.2316 -0.3516  0.0495
 3881TIP3    H133058   4.872   2.957   4.687  0.7146  0.9221  1.1560
 3881TIP3    H233059   4.953   2.911   4.567 -1.3429 -0.6882  0.3320
 3882TIP3   OH233060   2.888   4.433   2.565  0.4206 -0.1698 -0.6811
 3882TIP3    H133061   2.978   4.464   2.555  0.3820 -0.2780 -1.4169
 3882TIP3    H233062   2.892   4.370   2.636  0.5919  1.1402  0.5309
 3883TIP3   OH233063   0.212   3.251   0.640 -0.4593 -0.6095 -0.1002
 3883TIP3    H133064   0.213   3.158   0.659 -0.7114 -0.6538 -0.3031
 3883TIP3    H233065   0.167   3.291   0.715 -2.0002 -0.8468 -0.8568
 3884TIP3   OH233066   5.527   4.478   4.088  0.5877  0.0657 -0.0466
 3884TIP3    H133067   5.538   4.572   4.101 -2.4179  0.5509 -0.1887
 3884TIP3    H233068   5.469   4.450   4.159  1.8018 -1.8412  0.2824
 3885TIP3   OH233069   6.249   0.256   1.727 -0.2757  0.6051 -0.0189
 3885TIP3    H133070   6.234   0.182   1.668 -2.1079  1.6514 -0.9418
 3885TIP3    H233071   6.307   0.314   1.678 -0.1829  0.5514  0.0271
 3886TIP3   OH233072   0.974   5.610   4.626 -0.1819 -0.3960 -0.2799
 3886TIP3    H133073   0.925   5.691   4.640  0.1930 -0.3470  0.9004
 3886TIP3    H233074   0.912   5.540   4.649 -0.1842 -0.3990 -0.2953
 3887TIP3   OH233075   1.597   4.321   2.433 -0.1710 -0.4506  0.0136
 3887TIP3    H133076   1.524   4.294   2.378 -0.2512 -0.5261  0.1566
 3887TIP3    H233077   1.609   4.414   2.413 -0.3336 -0.4277  0.0218
 3888TIP3   OH233078   5.390   0.741  14.221 -0.7558  0.1372  0.1543
 3888TIP3    H133079   5.298   0.755  14.243 -1.1836 -0.2272 -1.2288
 3888TIP3    H233080   5.411   0.655  14.258  0.1829  1.7474  3.6895
 3889TIP3   OH233081   2.352   5.029  15.209  0.2325  0.5446 -0.2141
 3889TIP3    H133082   2.422   4.965  15.223  1.3334  1.9143  0.7427
 3889TIP3    H233083   2.397   5.113  15.201 -1.3160  1.4891  0.6126
 3890TIP3   OH233084   6.210   5.267   5.259  0.2025  0.3726  0.1357
 3890TIP3    H133085   6.291   5.245   5.213  0.2945 -0.0634  0.5029
 3890TIP3    H233086   6.188   5.355   5.228 -0.4029 -0.3640 -1.6934
 3891TIP3   OH233087   3.169   3.688   2.104  0.5762  0.1292  0.1963
 3891TIP3    H133088   3.139   3.641   2.182  0.9153 -0.6128 -0.1066
 3891TIP3    H233089   3.219   3.762   2.138  1.8349 -0.9120  0.7023
 3892TIP3   OH233090   2.839   1.033   1.592 -0.1962 -0.3970 -0.1570
 3892TIP3    H133091   2.913   1.011   1.536  2.0325  2.6778  1.2648
 3892TIP3    H233092   2.864   1.003   1.679 -1.3045 -0.6052  0.1140
 3893TIP3   OH233093   4.942   1.470  12.254  0.6871 -0.3237 -0.0254
 3893TIP3    H133094   4.883   1.395  12.242 -0.6507  0.6354  0.2802
 3893TIP3    H233095   4.939   1.488  12.348  1.0119  0.0894 -0.0926
 3894TIP3   OH233096   3.139   1.872   1.820 -0.8482 -0.0865  0.4344
 3894TIP3    H133097   3.208   1.935   1.803 -0.7612 -0.2431  0.1905
 3894TIP3    H233098   3.087   1.911   1.890 -3.3399  2.3444 -2.4764
 3895TIP3   OH233099   2.526   0.298   0.368  0.3245  0.0926 -0.6377
 3895TIP3    H133100   2.520   0.362   0.296 -1.0841  0.1928 -0.4494
 3895TIP3    H233101   2.543   0.215   0.324 -2.0100 -0.1214 -1.2728
 3896TIP3   OH233102   1.709   4.067   2.484  0.2805 -0.2426 -0.9857
 3896TIP3    H133103   1.660   3.995   2.444  0.2495 -0.3108 -0.8259
 3896TIP3    H233104   1.642   4.133   2.502  0.3948  0.0778 -1.6803
 3897TIP3   OH233105   0.527   4.419   5.982 -0.2462 -0.6176 -0.2864
 3897TIP3    H133106   0.521   4.407   6.076 -1.2346 -2.2011 -0.5073
 3897TIP3    H233107   0.476   4.498   5.964  0.4781  0.0555  0.5495
 3898TIP3   OH233108   2.396   2.653   4.185  0.3085  0.2821 -0.2253
 3898TIP3    H133109   2.418   2.699   4.266  0.5437 -0.1380 -0.0479
 3898TIP3    H233110   2.410   2.561   4.205 -0.1530  0.1287 -0.5809
 3899TIP3   OH233111   1.644   3.647  15.317 -0.1055  0.2590  0.6347
 3899TIP3    H133112   1.675   3.557  15.319  1.2819  0.7095  1.4949
 3899TIP3    H233113   1.696   3.691  15.384 -0.9705  1.6354  0.4464
 3900TIP3   OH233114   4.337   4.972   0.577  0.1636  0.1219  0.2381
 3900TIP3    H133115   4.407   4.908   0.566  0.9338  1.1467 -1.0806
 3900TIP3    H233116   4.279   4.933   0.643  0.6780 -1.8366 -0.4114
 3901TIP3   OH233117   2.466   0.018   3.359  0.0564 -0.1504  0.2201
 3901TIP3    H133118   2.476  -0.058   3.300  0.1524 -2.5871  3.1150
 3901TIP3    H233119   2.377   0.048   3.344  0.0934 -0.6469 -1.1785
 3902TIP3   OH233120   2.366   1.610   2.176 -0.2193  0.3714  0.5660
 3902TIP3    H133121   2.307   1.665   2.126 -3.2221 -0.1187  3.2307
 3902TIP3    H233122   2.453   1.634   2.145 -1.6328  2.8429 -1.9682
 3903TIP3   OH233123   6.427   3.164  17.360 -0.2213 -0.0263 -0.2027
 3903TIP3    H133124   6.480   3.196  17.433  0.2295 -0.6161 -0.2604
 3903TIP3    H233125   6.381   3.088  17.396 -0.3475 -0.0416 -0.3991
 3904TIP3   OH233126   3.356   6.106   2.021  0.1167 -0.4375  0.7253
 3904TIP3    H133127   3.358   6.021   1.978  1.1770  0.1971 -0.5462
 3904TIP3    H233128   3.368   6.087   2.114  1.2968 -1.6060  0.3509
 3905TIP3   OH233129   1.695   5.774  14.906 -0.0376 -0.3970  0.4523
 3905TIP3    H133130   1.676   5.681  14.897 -0.2408 -0.4194  1.0911
 3905TIP3    H233131   1.611   5.817  14.891 -0.2183 -0.3920  1.4471
 3906TIP3   OH233132   5.276   5.899   3.014  0.5253 -0.3130  0.3001
 3906TIP3    H133133   5.197   5.849   3.032 -0.6366  0.4353 -2.2011
 3906TIP3    H233134   5.247   5.990   3.013  1.8712  0.1613  1.3084
 3907TIP3   OH233135   5.078   0.597   4.030  0.2818 -0.6289 -0.3551
 3907TIP3    H133136   5.141   0.569   4.096  0.5964  1.6211  0.3974
 3907TIP3    H233137   4.999   0.619   4.080 -0.0087 -0.3809 -0.9096
 3908TIP3   OH233138   3.837   6.627  16.485 -0.0495  0.5887  0.2074
 3908TIP3    H133139   3.811   6.655  16.573 -0.7656 -1.6544  0.7680
 3908TIP3    H233140   3.801   6.539  16.476  2.8805 -0.6086 -1.0364
 3909TIP3   OH233141   4.192   2.834   3.977  0.1789  0.3117  0.4592
 3909TIP3    H133142   4.230   2.920   3.962 -0.3892  0.2823 -1.3755
 3909TIP3    H233143   4.263   2.772   3.958  0.0501  0.3257 -0.0586
 3910TIP3   OH233144   6.450   3.419   0.703  0.1624  0.1524 -0.2961
 3910TIP3    H133145   6.397   3.421   0.782  0.3220  0.6131 -0.1994
 3910TIP3    H233146   6.494   3.333   0.706  3.3324  1.6290  2.2349
 3911TIP3   OH233147   2.341   0.119   3.037  0.2301  0.2550 -0.2279
 3911TIP3    H133148   2.294   0.144   3.117 -0.4987 -0.1265 -0.5199
 3911TIP3    H233149   2.392   0.042   3.063  1.2101  1.0559  0.2573
 3912TIP3   OH233150   0.083   2.071   3.863  0.4861  0.1251  0.1950
 3912TIP3    H133151   0.073   2.065   3.958  1.9458 -0.1069  0.3584
 3912TIP3    H233152   0.081   1.980   3.833 -0.0138  0.2000 -0.0021
 3913TIP3   OH233153   4.550   4.055   0.360 -0.0921 -1.0937  0.0461
 3913TIP3    H133154   4.514   4.048   0.272 -0.7445 -2.4630  0.3938
 3913TIP3    H233155   4.489   4.112   0.407  0.3671 -0.2007 -0.4360
 3914TIP3   OH233156   6.754   1.750   4.959 -0.3069 -0.3401  0.2847
 3914TIP3    H133157   6.753   1.772   5.053 -0.2011 -1.1781  0.4885
 3914TIP3    H233158   6.842   1.775   4.930 -0.4845  0.3201  0.3097
 3915TIP3   OH233159   4.109   5.024   6.142  0.4913 -0.0261  0.5470
 3915TIP3    H133160   4.118   5.110   6.184 -2.7253  0.4828  0.4377
 3915TIP3    H233161   4.054   4.973   6.202 -0.5746 -0.7577 -0.9829
 3916TIP3   OH233162   6.003   5.885   0.639  0.0561 -0.1032 -0.4840
 3916TIP3    H133163   6.087   5.917   0.672 -0.8134  0.7272  1.0364
 3916TIP3    H233164   5.940   5.907   0.708 -1.1165 -2.4295 -0.7262
 3917TIP3   OH233165   1.841   4.363  12.411 -0.4501 -0.0364  0.7239
 3917TIP3    H133166   1.850   4.406  12.326 -0.2068 -1.0825  0.1972
 3917TIP3    H233167   1.912   4.398  12.464  1.4734 -1.7131 -0.5622
 3918TIP3   OH233168   3.364   0.726  16.654  0.0072 -0.4467  0.5767
 3918TIP3    H133169   3.299   0.656  16.653 -1.6746  0.9980  2.0078
 3918TIP3    H233170   3.446   0.683  16.679 -0.8376 -1.9950  0.7995
 3919TIP3   OH233171   1.061   0.759  14.421 -0.2362 -0.0751 -0.1969
 3919TIP3    H133172   0.990   0.782  14.362 -0.4461  0.5490  0.2825
 3919TIP3    H233173   1.138   0.802  14.383  0.3207 -2.3161 -1.7785
 3920TIP3   OH233174   5.122   6.074   0.465 -0.4716  0.2288  0.3730
 3920TIP3    H133175   5.118   6.106   0.375  1.8161 -1.6073 -0.5004
 3920TIP3    H233176   5.138   6.152   0.518 -1.9321  1.3545 -0.7637
 3921TIP3   OH233177   3.207   2.388   0.696  1.1312 -0.2202  0.0065
 3921TIP3    H133178   3.258   2.445   0.638  0.3297 -0.2126 -0.7014
 3921TIP3    H233179   3.273   2.349   0.754  1.8145  0.6419 -0.1529
 3922TIP3   OH233180   3.069   5.824   0.352 -0.4030 -0.6267  0.6705
 3922TIP3    H133181   3.011   5.896   0.374 -0.8581 -1.3398  1.9292
 3922TIP3    H233182   3.148   5.841   0.404 -0.3244 -0.7797  0.6008
 3923TIP3   OH233183   5.899   3.864  11.904 -0.0578  0.0164  0.0766
 3923TIP3    H133184   5.808   3.894  11.912 -0.5748 -1.7956  1.5582
 3923TIP3    H233185   5.892   3.774  11.871  1.2278 -0.0450 -0.0861
 3924TIP3   OH233186   5.594   2.975   5.726  0.0077 -0.2400 -0.1244
 3924TIP3    H133187   5.617   3.017   5.809  2.6947  0.0525 -0.9487
 3924TIP3    H233188   5.592   3.047   5.662  2.2225 -0.9404 -1.0742
 3925TIP3   OH233189   6.663   3.631  17.018 -0.1009 -0.9188  0.3024
 3925TIP3    H133190   6.732   3.632  16.951 -0.5762  0.4690 -0.2003
 3925TIP3    H233191   6.632   3.540  17.019  0.8008 -1.2494 -0.4397
 3926TIP3   OH233192   2.468   6.034   4.816 -0.3135  0.4081  0.3171
 3926TIP3    H133193   2.546   6.070   4.858 -0.4511  0.3974  0.5812
 3926TIP3    H233194   2.449   6.096   4.744  1.3683 -0.8805 -1.3243
 3927TIP3   OH233195   1.007   1.498   5.133  0.3578  0.0565 -0.0048
 3927TIP3    H133196   0.998   1.593   5.121 -0.3079  0.1984  1.4237
 3927TIP3    H233197   1.102   1.484   5.136  0.4755  1.0133  1.9441
 3928TIP3   OH233198   2.122   2.715   4.448  0.8818  0.1812 -0.3832
 3928TIP3    H133199   2.101   2.631   4.407  0.8367  0.4214 -0.8568
 3928TIP3    H233200   2.210   2.703   4.483  0.6940 -0.2165 -0.0373
 3929TIP3   OH233201   4.500   1.233  15.425 -0.3979  0.2274 -0.1778
 3929TIP3    H133202   4.441   1.213  15.497 -0.3566 -3.6397 -0.9805
 3929TIP3    H233203   4.443   1.260  15.353 -0.6238  1.9098  0.6050
 3930TIP3   OH233204   0.186   1.507   0.179 -0.1679 -0.4417  0.6879
 3930TIP3    H133205   0.102   1.465   0.159  0.3990 -1.1575 -0.2323
 3930TIP3    H233206   0.247   1.470   0.116  0.5966  0.9604  0.5878
 3931TIP3   OH233207   3.351   2.420  14.545 -0.2882  0.2254  0.0319
 3931TIP3    H133208   3.379   2.405  14.455  1.7136  1.5460  0.3601
 3931TIP3    H233209   3.425   2.466  14.585 -0.8865 -0.8248  2.5099
 3932TIP3   OH233210   3.356   6.249  13.611 -0.0806  0.1361 -0.3356
 3932TIP3    H133211   3.277   6.199  13.629  0.3635 -0.3763  0.2311
 3932TIP3    H233212   3.373   6.234  13.518  2.0313 -3.7853  0.4947
 3933TIP3   OH233213   2.264   3.236   1.637  0.4279  0.1666 -0.0605
 3933TIP3    H133214   2.339   3.290   1.662 -0.2611  1.3569 -0.4699
 3933TIP3    H233215   2.287   3.199   1.552  0.5383  0.5538 -0.1985
 3934TIP3   OH233216   6.095   2.366  16.180  0.1960 -0.6024 -0.2428
 3934TIP3    H133217   6.072   2.394  16.268  2.2187  1.7111 -0.3385
 3934TIP3    H233218   6.167   2.304  16.192  0.1570 -0.6500 -0.2545
 3935TIP3   OH233219   0.351   3.602   1.119  0.3866 -0.0918 -0.0556
 3935TIP3    H133220   0.322   3.574   1.206 -0.1820  2.3354  0.6011
 3935TIP3    H233221   0.384   3.691   1.132 -0.6486  0.7387 -2.5015
 3936TIP3   OH233222   6.236   6.635  16.002 -0.1819 -0.7736  0.4943
 3936TIP3    H133223   6.291   6.696  16.052 -0.0350 -0.2452 -0.2988
 3936TIP3    H233224   6.286   6.553  16.001  2.0103  0.4314 -2.5877
 3937TIP3   OH233225   2.992   2.651   2.568 -0.1795 -0.6745  0.0286
 3937TIP3    H133226   2.963   2.622   2.654 -2.4987  0.4477 -0.2916
 3937TIP3    H233227   3.083   2.622   2.562  0.7726  0.9880  3.6687
 3938TIP3   OH233228   0.508   4.426   1.572 -0.1920 -0.2293  0.0872
 3938TIP3    H133229   0.517   4.372   1.651 -1.7737 -1.4788 -0.5218
 3938TIP3    H233230   0.558   4.380   1.505  0.1988  0.2159  0.0669
 3939TIP3   OH233231   2.924   0.359  13.423 -0.0110  0.1566  0.2618
 3939TIP3    H133232   3.020   0.360  13.417  0.1005 -0.3631  1.6740
 3939TIP3    H233233   2.905   0.309  13.502 -1.4654  0.1220 -0.0831
 3940TIP3   OH233234   0.091   0.107  11.467  0.2435 -0.0706  0.5260
 3940TIP3    H133235   0.145   0.103  11.546  0.2259 -0.6820  0.5077
 3940TIP3    H233236   0.144   0.158  11.405  0.8079 -0.6572  0.5108
 3941TIP3   OH233237   2.327   2.196   3.312 -0.3493 -0.0548  0.2133
 3941TIP3    H133238   2.293   2.253   3.244 -2.1678 -0.1584  0.9820
 3941TIP3    H233239   2.349   2.114   3.266  0.6531  0.6389 -0.5942
 3942TIP3   OH233240   1.826   5.996   1.842  0.3576 -1.0363 -0.1630
 3942TIP3    H133241   1.907   5.948   1.822  0.4280  0.3428 -4.1350
 3942TIP3    H233242   1.803   6.039   1.759 -1.4105  3.2045  2.1879
 3943TIP3   OH233243   4.150   3.942   4.267 -0.6093  0.0371  0.2405
 3943TIP3    H133244   4.107   3.903   4.191  0.5009 -0.9135  0.0685
 3943TIP3    H233245   4.130   3.882   4.339 -0.0859 -0.0886  0.2843
 3944TIP3   OH233246   3.198   1.813  16.411  0.1788  0.0795 -0.1302
 3944TIP3    H133247   3.237   1.829  16.497  0.6586 -3.0204  0.3541
 3944TIP3    H233248   3.269   1.774  16.359 -0.9597 -1.2132 -0.7856
 3945TIP3   OH233249   5.311   6.495  12.106 -0.2619 -0.4932  0.4450
 3945TIP3    H133250   5.285   6.513  12.016  0.4901 -0.5342  0.2169
 3945TIP3    H233251   5.399   6.458  12.100 -0.4425 -1.0624  1.1560
 3946TIP3   OH233252   5.892   6.257   5.275 -0.0803 -0.0073  0.1428
 3946TIP3    H133253   5.886   6.297   5.188  0.5521 -0.5932 -0.1897
 3946TIP3    H233254   5.942   6.320   5.327  1.4479 -0.5866 -0.5452
 3947TIP3   OH233255   1.444   6.225  10.934  0.5460 -0.2027 -0.1709
 3947TIP3    H133256   1.509   6.280  10.977  2.2134 -2.0370 -0.2269
 3947TIP3    H233257   1.395   6.286  10.878  1.6413  1.3788  0.5011
 3948TIP3   OH233258   3.077   4.704  11.059 -0.2884  0.2580  0.7433
 3948TIP3    H133259   3.014   4.760  11.013  0.1338  0.9159  0.9392
 3948TIP3    H233260   3.031   4.622  11.073 -0.4495  0.0486 -0.8188
 3949TIP3   OH233261   0.469   0.894  11.920  0.3926  0.2797 -0.0877
 3949TIP3    H133262   0.420   0.957  11.868  0.9149  2.1704  1.5839
 3949TIP3    H233263   0.555   0.935  11.932  2.6290 -2.9783 -3.0860
 3950TIP3   OH233264   5.614   1.102  11.592  0.3350  0.0989  0.4534
 3950TIP3    H133265   5.587   1.018  11.629  1.3493 -0.7718 -0.6705
 3950TIP3    H233266   5.537   1.158  11.599 -0.3344 -0.8903  1.3163
 3951TIP3   OH233267   1.982   6.632  13.365  0.0829 -0.0744  0.6094
 3951TIP3    H133268   1.943   6.545  13.377  0.9661 -0.2661  2.4136
 3951TIP3    H233269   2.074   6.620  13.390  0.5909  1.0402 -0.6429
 3952TIP3   OH233270   2.457   5.978   1.339  0.5278  0.4277  0.0911
 3952TIP3    H133271   2.507   6.037   1.395 -0.3611  1.2295  0.0676
 3952TIP3    H233272   2.366   6.002   1.354  0.0023 -1.9833  1.2331
 3953TIP3   OH233273   3.304   3.929   2.102  0.0012 -0.5340 -0.1295
 3953TIP3    H133274   3.385   3.940   2.153  0.4915 -0.6091 -0.8745
 3953TIP3    H233275   3.285   4.016   2.069  0.9563 -0.8583 -1.6702
 3954TIP3   OH233276   2.916   2.418  10.663 -0.1366 -0.9309  0.5432
 3954TIP3    H133277   2.920   2.511  10.640 -1.1402 -0.9352  0.3140
 3954TIP3    H233278   2.934   2.415  10.757 -0.7965 -0.4370  0.6885
 3955TIP3   OH233279   3.137   5.368  10.753 -0.3336  0.5213  0.1945
 3955TIP3    H133280   3.232   5.356  10.758 -0.0918  1.9426 -0.3985
 3955TIP3    H233281   3.106   5.293  10.701  0.5579  0.4027 -0.1869
 3956TIP3   OH233282   2.733   3.120   0.661  0.0354 -0.9617  0.7695
 3956TIP3    H133283   2.697   3.097   0.575 -1.3721  0.0927  1.0561
 3956TIP3    H233284   2.660   3.105   0.722  0.8976 -1.3060  1.7400
 3957TIP3   OH233285   1.881   1.569   5.195 -0.2287 -0.1320 -0.4190
 3957TIP3    H133286   1.913   1.623   5.123  0.0294  1.1659  0.6402
 3957TIP3    H233287   1.939   1.493   5.195  1.2015  0.9110 -0.2010
 3958TIP3   OH233288   5.930   4.024   0.469 -0.2889  0.2553  0.6932
 3958TIP3    H133289   5.871   4.097   0.449  0.5953  1.1688  1.3217
 3958TIP3    H233290   5.996   4.028   0.400  0.8770  1.3230  1.8178
 3959TIP3   OH233291   5.848   5.347  14.530  0.0282 -0.5428  0.6301
 3959TIP3    H133292   5.833   5.274  14.469 -1.2483 -0.1471  0.4397
 3959TIP3    H233293   5.760   5.373  14.557  0.4644  0.9277  0.6914
 3960TIP3   OH233294   1.585   6.737  15.517  0.2706  0.1661  0.2748
 3960TIP3    H133295   1.659   6.677  15.508 -0.2549 -0.3669 -0.6643
 3960TIP3    H233296   1.535   6.727  15.435  0.4880  2.3484 -0.1813
 3961TIP3   OH233297   4.380   6.668   1.254 -0.0549  0.5400  0.0403
 3961TIP3    H133298   4.450   6.603   1.256  0.7545  1.4044  1.4000
 3961TIP3    H233299   4.417   6.744   1.299 -1.7423  1.1525  0.4651
 3962TIP3   OH233300   2.998   2.364  13.257  0.2566  0.0344  0.0994
 3962TIP3    H133301   2.981   2.273  13.232  0.3603 -0.6043  2.2018
 3962TIP3    H233302   2.926   2.387  13.315  1.6226  0.3536  1.7540
 3963TIP3   OH233303   2.737   2.120   5.270 -0.4041 -0.0178 -0.2781
 3963TIP3    H133304   2.743   2.205   5.227 -1.4225 -0.0053 -0.4152
 3963TIP3    H233305   2.695   2.139   5.354 -1.4911 -0.5073 -0.6985
 3964TIP3   OH233306   5.429   0.700  15.179 -0.2453 -0.2523 -0.2338
 3964TIP3    H133307   5.427   0.702  15.084  1.1734  0.5471 -0.2686
 3964TIP3    H233308   5.476   0.619  15.201 -1.1000 -0.7473 -0.1840
 3965TIP3   OH233309   3.408   3.896  13.783  0.8280 -0.2877 -0.3899
 3965TIP3    H133310   3.453   3.958  13.841 -1.3663  2.2804 -1.1834
 3965TIP3    H233311   3.463   3.891  13.705  0.0686  2.6469 -1.2731
 3966TIP3   OH233312   5.912   4.795  11.685  0.8033 -0.9344  0.3624
 3966TIP3    H133313   5.828   4.750  11.677  0.9422 -1.0940 -0.2725
 3966TIP3    H233314   5.967   4.756  11.616  0.9384  0.1875 -0.1985
 3967TIP3   OH233315   6.137   3.772   0.235 -0.2549 -0.0039 -0.4602
 3967TIP3    H133316   6.131   3.769   0.331  1.8058 -1.5897 -0.3065
 3967TIP3    H233317   6.047   3.785   0.206 -1.1192 -0.7701  1.6697
 3968TIP3   OH233318   2.548   0.188  11.894 -0.1571 -0.3118 -0.3700
 3968TIP3    H133319   2.538   0.115  11.833 -0.3063 -0.1601 -0.5267
 3968TIP3    H233320   2.465   0.236  11.887 -0.8792 -1.2353  1.1818
 3969TIP3   OH233321   5.248   4.170  11.330  0.0213 -0.0439 -0.5976
 3969TIP3    H133322   5.290   4.200  11.250 -0.4460 -0.0986 -0.8672
 3969TIP3    H233323   5.170   4.225  11.339  1.4409  1.7942  1.2643
 3970TIP3   OH233324   1.303   6.671  11.211  0.1488  0.0120  0.3899
 3970TIP3    H133325   1.319   6.711  11.297 -0.2975 -0.0896  0.5252
 3970TIP3    H233326   1.374   6.703  11.156 -0.1664  0.9399  0.5107
 3971TIP3   OH233327   6.342   1.640   1.032 -0.1297  0.1308 -0.1081
 3971TIP3    H133328   6.347   1.583   0.955  2.6028 -0.7687  0.5851
 3971TIP3    H233329   6.425   1.689   1.031 -0.6540  1.1436  1.4876
 3972TIP3   OH233330   4.337   2.545   6.698  0.2674 -0.1227  0.1959
 3972TIP3    H133331   4.309   2.454   6.687  0.9917 -0.1695 -1.7238
 3972TIP3    H233332   4.259   2.597   6.674  0.1470 -0.2378  0.3377
 3973TIP3   OH233333   4.540   2.490   2.397  0.0082  0.1858  0.1075
 3973TIP3    H133334   4.500   2.532   2.321 -1.7258 -0.2242  0.7484
 3973TIP3    H233335   4.632   2.516   2.393  0.0687 -0.1459 -2.3449
 3974TIP3   OH233336   4.143   5.584   6.324  0.1854 -0.1783 -0.0492
 3974TIP3    H133337   4.063   5.636   6.334 -0.5465 -1.3330  0.2702
 3974TIP3    H233338   4.150   5.534   6.405  1.5165  0.2668  0.1366
 3975TIP3   OH233339   3.325   2.075  14.236 -0.1406 -0.3863  0.2624
 3975TIP3    H133340   3.290   2.038  14.155  0.7376  0.3529 -0.4741
 3975TIP3    H233341   3.248   2.087  14.292 -0.8304 -0.4221 -0.6620
 3976TIP3   OH233342   2.655   5.452  15.345 -0.0141 -0.0776 -0.1447
 3976TIP3    H133343   2.620   5.418  15.427  0.0839  2.8860  1.2674
 3976TIP3    H233344   2.738   5.406  15.333 -0.1311 -0.7089  1.3203
 3977TIP3   OH233345   4.085   5.819  14.808  0.0614 -0.3348  0.0474
 3977TIP3    H133346   4.037   5.738  14.791  1.0756 -0.9168 -0.1062
 3977TIP3    H233347   4.020   5.878  14.844 -0.5942 -1.3782  0.6053
 3978TIP3   OH233348   2.141   2.719  14.886 -0.3526 -0.2583 -0.4894
 3978TIP3    H133349   2.157   2.663  14.962 -0.5393  0.6490  0.2332
 3978TIP3    H233350   2.214   2.782  14.887  0.0040 -0.6350 -1.4453
 3979TIP3   OH233351   0.577   2.281   2.220  0.4741  0.2113 -0.0229
 3979TIP3    H133352   0.490   2.248   2.243  0.2840  1.1083  0.6082
 3979TIP3    H233353   0.633   2.203   2.218 -0.0848 -0.2224  0.8409
 3980TIP3   OH233354   1.633   2.439   6.177 -0.1160  0.0257 -0.7051
 3980TIP3    H133355   1.538   2.435   6.190 -0.2081 -2.0428 -1.6014
 3980TIP3    H233356   1.656   2.351   6.147  2.1223  0.4497 -0.3548
 3981TIP3   OH233357   0.319   4.418   1.283  0.3447  0.4008  0.4813
 3981TIP3    H133358   0.281   4.373   1.358  0.1159  1.4270  0.9936
 3981TIP3    H233359   0.343   4.347   1.223 -1.1195 -0.3488  0.7293
 3982TIP3   OH233360   1.813   0.325  13.973  0.8461  0.0665  0.2742
 3982TIP3    H133361   1.802   0.236  13.939  0.3905 -0.2603  1.2546
 3982TIP3    H233362   1.750   0.332  14.044 -0.5532  1.8600 -1.0535
 3983TIP3   OH233363   2.878   2.273  14.789 -0.2460  0.1794 -0.7120
 3983TIP3    H133364   2.972   2.264  14.772  0.0920  1.7418  0.0862
 3983TIP3    H233365   2.841   2.187  14.768  1.0322  0.1196 -3.0159
 3984TIP3   OH233366   2.340   2.339   1.560  0.4420  0.4345  0.0323
 3984TIP3    H133367   2.422   2.370   1.600 -0.1729  2.3363 -0.1046
 3984TIP3    H233368   2.316   2.263   1.613  0.3960  2.0149  2.4710
 3985TIP3   OH233369   6.309   2.441  17.126  0.0939  0.6222 -0.0510
 3985TIP3    H133370   6.313   2.532  17.096  0.0767  0.1010 -1.7037
 3985TIP3    H233371   6.305   2.389  17.046 -1.4117 -0.7697  0.8672
 3986TIP3   OH233372   3.443   2.900  16.473  0.0163  0.0313  0.7312
 3986TIP3    H133373   3.369   2.952  16.441  0.4601  0.0610 -0.2948
 3986TIP3    H233374   3.495   2.883  16.395  0.7837 -0.4973  1.3474
 3987TIP3   OH233375   3.038   2.527   1.177 -0.1647  0.2711 -0.4774
 3987TIP3    H133376   3.095   2.582   1.231  0.7495 -1.4877  0.4323
 3987TIP3    H233377   3.054   2.557   1.087  0.9268  0.9523 -0.0760
 3988TIP3   OH233378   3.351   4.734  13.573 -0.2782  0.0275 -0.6045
 3988TIP3    H133379   3.272   4.730  13.626  0.2051 -0.0815  0.1190
 3988TIP3    H233380   3.347   4.820  13.530 -0.8137 -0.0035 -0.6228
 3989TIP3   OH233381   4.380   0.135  16.261 -0.3789 -0.2457 -0.3240
 3989TIP3    H133382   4.346   0.225  16.258  0.2954  0.0465  0.5526
 3989TIP3    H233383   4.304   0.081  16.283 -0.5581  0.2465  0.2988
 3990TIP3   OH233384   2.533   5.841  13.651 -0.5655  0.0746  0.4827
 3990TIP3    H133385   2.615   5.888  13.637 -0.4850  0.2259  1.4608
 3990TIP3    H233386   2.465   5.899  13.615 -0.2511 -0.1202 -0.4730
 3991TIP3   OH233387   5.889   4.808   3.795  0.2105  0.6056  0.3697
 3991TIP3    H133388   5.869   4.846   3.710  2.9784 -0.1674 -0.7222
 3991TIP3    H233389   5.975   4.843   3.818 -0.3546  0.6099  2.7848
 3992TIP3   OH233390   5.632   1.197  13.199  0.1240 -0.3594 -0.2521
 3992TIP3    H133391   5.705   1.187  13.136 -0.4151 -0.8557 -0.8167
 3992TIP3    H233392   5.623   1.110  13.237 -1.3126 -0.7917 -1.4834
 3993TIP3   OH233393   5.321   4.717   5.730  0.3359  0.1179  0.5509
 3993TIP3    H133394   5.381   4.787   5.704  0.4610 -0.2583 -0.2016
 3993TIP3    H233395   5.355   4.639   5.688 -1.4139  0.1324 -1.0191
 3994TIP3   OH233396   3.662   0.731  15.208  0.4175 -0.2802  0.5190
 3994TIP3    H133397   3.589   0.695  15.259 -0.5535 -0.2250 -0.7934
 3994TIP3    H233398   3.682   0.815  15.251  0.3541 -0.7263  1.4520
 3995TIP3   OH233399   6.441   2.543  17.354 -0.0516  0.6332 -0.4221
 3995TIP3    H133400   6.399   2.528  17.270 -0.5517 -0.9350  0.0678
 3995TIP3    H233401   6.535   2.546  17.334 -0.2052  0.8468 -1.1092
 3996TIP3   OH233402   5.644   1.638   0.991  0.4815  0.1337  0.4081
 3996TIP3    H133403   5.590   1.560   0.980  0.8284  0.1967 -2.6643
 3996TIP3    H233404   5.595   1.707   0.946  1.6568  0.9044  0.2668
 3997TIP3   OH233405   1.806   6.053   0.703  0.4618 -0.3661 -0.0247
 3997TIP3    H133406   1.843   6.138   0.682  0.9099 -0.4477  0.4195
 3997TIP3    H233407   1.829   5.998   0.628  1.0492 -0.3560  0.1445
 3998TIP3   OH233408   4.324   6.469   5.822 -0.5469 -0.1292 -0.1450
 3998TIP3    H133409   4.239   6.475   5.778 -0.3333 -1.3060 -0.7640
 3998TIP3    H233410   4.348   6.560   5.841 -1.3811  0.2993 -1.0416
 3999TIP3   OH233411   4.271   4.457   0.933  0.0752  0.3870 -0.4507
 3999TIP3    H133412   4.186   4.424   0.959  0.9651 -1.6032  0.0964
 3999TIP3    H233413   4.254   4.547   0.905 -2.5731 -0.6514 -2.6055
 4000TIP3   OH233414   5.184   4.856  14.216  0.5772  0.2162 -0.5004
 4000TIP3    H133415   5.218   4.935  14.174  0.1005  0.6390 -0.1083
 4000TIP3    H233416   5.089   4.867  14.215  0.5472  0.9642  1.9606
 4001TIP3   OH233417   3.861   4.233  15.564 -0.6249  0.2217  0.4341
 4001TIP3    H133418   3.936   4.188  15.602 -0.1831 -0.2332 -0.9528
 4001TIP3    H233419   3.896   4.280  15.489 -1.0891  2.8178  1.7203
 4002TIP3   OH233420   6.339   2.455   5.826 -0.1160 -0.0382  0.0527
 4002TIP3    H133421   6.336   2.375   5.878 -2.1095  0.1803  0.3461
 4002TIP3    H233422   6.270   2.444   5.761  0.6279  0.7994 -0.9097
 4003TIP3   OH233423   1.369   0.314  11.783  0.1391 -0.4691  0.2759
 4003TIP3    H133424   1.340   0.312  11.692  1.6551 -1.2527 -0.2215
 4003TIP3    H233425   1.390   0.406  11.799  0.6840 -0.4621 -0.4416
 4004TIP3   OH233426   3.281   0.475   1.859 -0.5762 -0.4924 -0.2847
 4004TIP3    H133427   3.243   0.402   1.810  1.1462 -1.6007 -0.0817
 4004TIP3    H233428   3.328   0.527   1.794  2.0936 -2.2148  0.0953
 4005TIP3   OH233429   4.680   6.281  12.683 -0.7228  0.1559  0.1245
 4005TIP3    H133430   4.654   6.263  12.774 -0.3628 -0.3438  0.1296
 4005TIP3    H233431   4.687   6.195  12.642  0.8099  0.2754  0.0910
 4006TIP3   OH233432   1.370   1.688  12.181  0.4097  0.1839  0.1225
 4006TIP3    H133433   1.289   1.637  12.188  0.8956 -0.4634  1.2477
 4006TIP3    H233434   1.427   1.636  12.124 -0.1920  0.9860 -1.2729
 4007TIP3   OH233435   3.042   0.801   0.006  0.0508  0.2738 -0.0902
 4007TIP3    H133436   3.002   0.805  -0.081 -2.3909 -1.9311  0.7814
 4007TIP3    H233437   3.016   0.882   0.049 -1.6942 -0.1199 -0.3270
 4008TIP3   OH233438   0.102   2.662   0.624 -0.6992 -0.1033  0.1564
 4008TIP3    H133439   0.037   2.691   0.559 -1.4725  0.7852  1.2650
 4008TIP3    H233440   0.079   2.711   0.703  1.5719  0.5275  0.4979
 4009TIP3   OH233441   4.421   0.922  10.864  0.4995  0.1411  0.0613
 4009TIP3    H133442   4.360   0.993  10.842  1.1480  0.7965  0.3203
 4009TIP3    H233443   4.475   0.911  10.785 -1.2753 -1.8899 -0.9579
 4010TIP3   OH233444   3.204   4.221  13.522  1.0159 -0.0697 -0.3194
 4010TIP3    H133445   3.281   4.219  13.466  0.3024  0.0554 -1.3441
 4010TIP3    H233446   3.238   4.223  13.611  2.1731 -1.4625 -0.6985
 4011TIP3   OH233447   6.531   5.550   2.361 -0.5529 -0.1884 -0.1744
 4011TIP3    H133448   6.616   5.561   2.318  0.4396 -0.7320  1.5785
 4011TIP3    H233449   6.499   5.639   2.374  1.5608  0.3063  2.5386
 4012TIP3   OH233450   0.519   5.148   5.243  0.5139  0.2761  0.0319
 4012TIP3    H133451   0.491   5.085   5.177 -0.7313  0.1439  0.6590
 4012TIP3    H233452   0.528   5.231   5.196  0.1113  0.0842 -0.3868
 4013TIP3   OH233453   1.281   6.653  10.918 -0.5976  0.0821  0.0981
 4013TIP3    H133454   1.237   6.725  10.873 -0.1447 -1.6189 -3.3690
 4013TIP3    H233455   1.363   6.691  10.949  0.3689  0.8867 -3.0346
 4014TIP3   OH233456   4.679   1.159  15.855 -0.3217  0.1252 -0.3495
 4014TIP3    H133457   4.768   1.171  15.889 -1.0327 -0.4946  1.9366
 4014TIP3    H233458   4.627   1.133  15.932 -2.9955  2.7520 -1.0794
 4015TIP3   OH233459   1.948   2.584  15.639 -0.2558 -0.6355 -0.1196
 4015TIP3    H133460   1.917   2.527  15.709 -0.0966 -0.4052  0.1393
 4015TIP3    H233461   1.984   2.524  15.574  0.6039 -0.8012  0.4925
 4016TIP3   OH233462   1.567   0.126  15.946  0.2562 -0.3636 -0.8660
 4016TIP3    H133463   1.578   0.202  16.002 -3.5702 -0.4353  0.2583
 4016TIP3    H233464   1.565   0.051  16.006 -4.9305 -0.3614 -0.5283
 4017TIP3   OH233465   5.996   0.324  12.331  0.1411  0.1835  0.0409
 4017TIP3    H133466   6.037   0.291  12.411  2.8005  1.2305 -0.7653
 4017TIP3    H233467   5.934   0.390  12.361 -0.0118 -0.5133  1.3090
 4018TIP3   OH233468   2.904   5.532   3.141  0.0075  0.3014  0.4727
 4018TIP3    H133469   2.941   5.501   3.223  1.2304 -0.7258 -0.4182
 4018TIP3    H233470   2.816   5.497   3.138  0.5497 -1.1108  0.5769
 4019TIP3   OH233471   1.671   2.716  13.239 -0.4677  0.4889 -0.5761
 4019TIP3    H133472   1.610   2.739  13.310 -1.0317  2.9602 -1.7263
 4019TIP3    H233473   1.757   2.739  13.273 -0.1053 -2.5219  0.8609
 4020TIP3   OH233474   0.761   5.267  15.042  0.3094  0.0810  0.2138
 4020TIP3    H133475   0.669   5.274  15.067  0.0813 -0.2854 -0.4876
 4020TIP3    H233476   0.804   5.340  15.088 -0.6799  1.5280 -1.0426
 4021TIP3   OH233477   2.626   6.088  16.069  0.2218  0.2975  0.0448
 4021TIP3    H133478   2.609   6.173  16.029  1.3707  1.3840  1.6829
 4021TIP3    H233479   2.546   6.067  16.116 -0.4926 -0.1340 -1.3240
 4022TIP3   OH233480   2.194   2.061   5.495 -0.4969 -0.0264  0.8064
 4022TIP3    H133481   2.128   2.103   5.439 -0.2683 -0.4511  0.2185
 4022TIP3    H233482   2.163   1.971   5.504 -0.4308 -0.0106  1.2179
 4023TIP3   OH233483   5.696   0.241   4.735  0.6814  0.2837  0.5044
 4023TIP3    H133484   5.732   0.277   4.816 -0.2115  0.7857  0.6980
 4023TIP3    H233485   5.658   0.317   4.690  0.5903 -0.0971 -0.0725
 4024TIP3   OH233486   0.873   6.466  15.062 -0.3403  0.0277  0.1039
 4024TIP3    H133487   0.861   6.413  15.141 -1.1988 -1.0771 -0.7372
 4024TIP3    H233488   0.885   6.402  14.992  1.8108  0.9823 -0.4954
 4025TIP3   OH233489   5.460   5.556   1.928  0.0211  0.4155 -0.5024
 4025TIP3    H133490   5.494   5.480   1.882  1.6157 -0.1652  1.4618
 4025TIP3    H233491   5.376   5.528   1.964  1.1898 -0.9767  1.3311
 4026TIP3   OH233492   5.487   3.103   3.791 -0.0369  0.0515 -0.2006
 4026TIP3    H133493   5.416   3.165   3.810 -0.4198 -0.5103  0.2121
 4026TIP3    H233494   5.517   3.128   3.704 -2.0748 -0.9248 -1.2640
 4027TIP3   OH233495   0.000   3.937   4.968 -0.0961  0.0348  0.1917
 4027TIP3    H133496   0.053   3.857   4.967 -1.3322 -0.8324 -1.2641
 4027TIP3    H233497   0.063   4.008   4.954  1.2704 -0.4323  3.1547
 4028TIP3   OH233498   1.360   3.911  15.802 -0.0197  0.0952  0.6813
 4028TIP3    H133499   1.346   3.885  15.711 -0.6035 -1.0153  1.0666
 4028TIP3    H233500   1.289   3.973  15.820 -0.1344  0.0216  0.4875
 4029TIP3   OH233501   5.848   1.664  11.725 -0.4477  0.1616  0.0259
 4029TIP3    H133502   5.842   1.673  11.629  2.2848  0.1342 -0.2350
 4029TIP3    H233503   5.775   1.607  11.748 -0.6896 -0.5392 -2.1735
 4030TIP3   OH233504   1.815   6.072   5.291  0.6318 -0.0935  0.0871
 4030TIP3    H133505   1.872   5.995   5.289  2.6065  1.2543 -2.4969
 4030TIP3    H233506   1.784   6.081   5.200 -1.2136  1.0259  0.7720
 4031TIP3   OH233507   4.919   1.564   2.228 -0.8537 -0.1875  0.0870
 4031TIP3    H133508   4.896   1.482   2.185 -3.3912  0.7786 -0.5823
 4031TIP3    H233509   4.895   1.632   2.165 -0.3830  1.1166  1.2647
 4032TIP3   OH233510   6.428   4.695  13.336  0.5483  0.5313  0.0751
 4032TIP3    H133511   6.348   4.662  13.376  1.0941 -1.2294 -0.2076
 4032TIP3    H233512   6.443   4.636  13.262  2.5430  0.3073  0.6147
 4033TIP3   OH233513   0.526   0.387   5.256  0.2870 -0.2116  0.7156
 4033TIP3    H133514   0.587   0.350   5.191 -0.0721 -1.6203  1.1593
 4033TIP3    H233515   0.583   0.414   5.328  0.9186  3.0093 -0.7943
 4034TIP3   OH233516   3.944   4.020  13.361  0.0109 -0.4140 -0.1206
 4034TIP3    H133517   3.986   4.052  13.281 -1.0873  0.2531 -0.4584
 4034TIP3    H233518   3.981   4.073  13.431  1.7429 -1.6809  0.0014
 4035TIP3   OH233519   1.203   4.977  13.123  0.3034 -0.2482  0.8770
 4035TIP3    H133520   1.227   4.895  13.080 -2.6378  0.0583 -1.7469
 4035TIP3    H233521   1.240   5.045  13.067 -0.0107  0.1945  1.1981
 4036TIP3   OH233522   0.838   1.712  10.946 -0.1556 -0.1295 -0.3967
 4036TIP3    H133523   0.859   1.705  10.853  0.8890 -0.4167 -0.1536
 4036TIP3    H233524   0.789   1.632  10.965 -1.6250  0.6014 -0.9976
 4037TIP3   OH233525   2.248   3.780  16.366  0.5582  0.3525 -0.1708
 4037TIP3    H133526   2.244   3.839  16.291  2.6882  1.8563  0.7932
 4037TIP3    H233527   2.336   3.791  16.400  1.2565 -3.7623 -0.1459
 4038TIP3   OH233528   4.699   1.486   5.372 -0.2498 -0.4210 -0.3097
 4038TIP3    H133529   4.708   1.582   5.368 -1.6919 -0.3112 -2.1053
 4038TIP3    H233530   4.771   1.453   5.319  0.2582 -0.3451  0.3234
 4039TIP3   OH233531   1.054   3.447   3.474  0.0243  0.0904 -0.0218
 4039TIP3    H133532   0.971   3.421   3.437  0.0776 -1.9687  1.1835
 4039TIP3    H233533   1.037   3.460   3.567  1.1754 -1.0963  0.3873
 4040TIP3   OH233534   5.149   6.207  15.830 -0.0374 -0.1077 -0.3839
 4040TIP3    H133535   5.122   6.298  15.839 -1.8707 -0.7520  1.3962
 4040TIP3    H233536   5.067   6.158  15.821  0.8492 -1.6909 -0.2417
 4041TIP3   OH233537   2.130   6.268   2.665  0.7191 -0.0529 -0.4792
 4041TIP3    H133538   2.137   6.267   2.760  0.6973 -0.8121 -0.4799
 4041TIP3    H233539   2.114   6.177   2.641  0.3581  0.1883 -1.1842
 4042TIP3   OH233540   3.349   6.738   3.762  0.1134  0.2995 -0.0707
 4042TIP3    H133541   3.388   6.660   3.801 -1.0460 -0.7011 -0.8473
 4042TIP3    H233542   3.255   6.728   3.776  0.0083  2.0855  0.7263
 4043TIP3   OH233543   0.266   3.598  13.393 -0.1455  0.7776 -0.2004
 4043TIP3    H133544   0.284   3.583  13.300 -1.5205  0.2106 -0.4011
 4043TIP3    H233545   0.241   3.690  13.398  0.3093  0.9090 -0.3259
 4044TIP3   OH233546   4.618   0.769  13.673  0.1054 -0.2529 -0.5939
 4044TIP3    H133547   4.646   0.806  13.589  2.6045  2.5796  1.2440
 4044TIP3    H233548   4.527   0.798  13.683  0.7875  2.2389 -0.9869
 4045TIP3   OH233549   4.902   3.649  16.448 -0.3909 -0.5674  0.1440
 4045TIP3    H133550   4.823   3.611  16.411 -1.6375  1.3435  0.6883
 4045TIP3    H233551   4.949   3.686  16.373 -1.1223  0.1852  0.0435
 4046TIP3   OH233552   0.640   3.027  13.834 -0.5471  1.0892 -0.3187
 4046TIP3    H133553   0.572   3.031  13.901 -0.3086  1.1868 -0.0797
 4046TIP3    H233554   0.714   2.984  13.877 -0.6757  0.4011 -0.7658
 4047TIP3   OH233555   3.268   5.044  16.528  0.3044  0.4447  0.4282
 4047TIP3    H133556   3.208   4.990  16.577  0.9160 -0.3709  0.2976
 4047TIP3    H233557   3.353   5.030  16.570  0.7339  0.1543 -0.5069
 4048TIP3   OH233558   3.165   2.897  11.830  0.3423  0.4793  0.5829
 4048TIP3    H133559   3.224   2.827  11.858  0.5105 -0.0991 -1.1157
 4048TIP3    H233560   3.164   2.891  11.735 -2.1989  0.6896  0.5356
 4049TIP3   OH233561   4.431   1.522   5.465 -0.5337  0.5589 -0.2468
 4049TIP3    H133562   4.422   1.617   5.464  0.4328  0.7145  1.3568
 4049TIP3    H233563   4.525   1.507   5.451 -1.1293 -0.3823 -4.2822
 4050TIP3   OH233564   5.313   3.376  16.949  0.0901 -0.0726  0.3371
 4050TIP3    H133565   5.281   3.295  16.990 -2.2457  0.7464  0.2730
 4050TIP3    H233566   5.359   3.422  17.020  0.5477 -0.9710  0.6418
 4051TIP3   OH233567   1.356   1.356  14.814  0.1005 -0.1161  0.8843
 4051TIP3    H133568   1.322   1.325  14.730  0.7876  0.2447  0.4571
 4051TIP3    H233569   1.373   1.449  14.799 -0.1320  0.0339  1.5459
 4052TIP3   OH233570   2.832   4.986   5.044  0.0911 -0.3968 -0.2314
 4052TIP3    H133571   2.786   5.009   4.963 -0.6456 -0.9074  0.0296
 4052TIP3    H233572   2.889   4.913   5.018  2.0178  1.2529 -0.9286
 4053TIP3   OH233573   0.454   1.006   5.707  0.1950 -0.7110 -0.0565
 4053TIP3    H133574   0.540   1.010   5.665 -0.7982 -1.8548 -2.4566
 4053TIP3    H233575   0.464   1.054   5.789  1.9238  3.3757 -2.3355
 4054TIP3   OH233576   5.387   3.964   3.668 -0.1894 -0.4695 -0.4315
 4054TIP3    H133577   5.464   4.016   3.690  0.5290 -0.9027 -1.7827
 4054TIP3    H233578   5.315   4.005   3.716  0.3684  1.7423 -1.3686
 4055TIP3   OH233579   3.223   2.722  14.898  0.2854 -0.4552 -0.0213
 4055TIP3    H133580   3.272   2.794  14.858  0.6703 -0.6477  0.0894
 4055TIP3    H233581   3.284   2.648  14.895 -0.7672 -1.2980 -1.8256
 4056TIP3   OH233582   2.444   3.095   0.224  0.2179 -0.4853  0.1286
 4056TIP3    H133583   2.373   3.118   0.164  2.3378  0.9392 -1.9952
 4056TIP3    H233584   2.431   3.153   0.300 -0.6851 -0.0264 -0.3632
 4057TIP3   OH233585   4.545   5.210   5.305 -0.3936 -0.5881  0.2379
 4057TIP3    H133586   4.594   5.227   5.386  1.3850  1.8154 -1.2089
 4057TIP3    H233587   4.496   5.291   5.290 -0.6280 -0.9695 -1.1333
 4058TIP3   OH233588   6.440   3.918   3.264  0.1426  0.3371  0.3975
 4058TIP3    H133589   6.414   3.960   3.346  2.2397 -0.4780  1.5434
 4058TIP3    H233590   6.530   3.945   3.250  0.4673 -1.1249 -0.5967
 4059TIP3   OH233591   1.476   2.619   0.735  0.5063 -0.0629 -0.2342
 4059TIP3    H133592   1.546   2.684   0.742 -1.2661  2.0150 -0.6998
 4059TIP3    H233593   1.414   2.643   0.804  0.1483 -1.7824  0.0964
 4060TIP3   OH233594   0.834   3.971   2.457 -0.5328  0.4035 -0.5331
 4060TIP3    H133595   0.791   3.886   2.465 -0.7250  0.6132  1.1289
 4060TIP3    H233596   0.923   3.951   2.430 -0.0355 -0.5094  1.5964
 4061TIP3   OH233597   3.800   3.029   5.948 -0.2258 -0.0357  0.0185
 4061TIP3    H133598   3.707   3.051   5.942 -0.1573 -0.1296 -1.9496
 4061TIP3    H233599   3.800   2.936   5.971 -0.6793 -0.4689 -1.5989
 4062TIP3   OH233600   0.412   4.219   6.293 -0.1607  0.3416 -0.2036
 4062TIP3    H133601   0.426   4.170   6.374  0.8736 -1.4314 -1.3912
 4062TIP3    H233602   0.483   4.283   6.292  2.4274 -2.3199 -1.5753
 4063TIP3   OH233603   1.318   3.021   2.710 -0.1535  0.0722 -0.3289
 4063TIP3    H133604   1.360   2.997   2.627 -0.8380 -0.2271 -0.5882
 4063TIP3    H233605   1.336   3.115   2.719 -0.2692  0.1526 -0.9233
 4064TIP3   OH233606   0.136   2.592   0.311  0.0841  0.3376  0.1225
 4064TIP3    H133607   0.077   2.519   0.293  1.1941 -0.2993 -1.1583
 4064TIP3    H233608   0.199   2.556   0.374  0.4252  0.3020 -0.2392
 4065TIP3   OH233609   6.076   5.617   4.871 -0.5182 -0.1642 -0.2429
 4065TIP3    H133610   6.083   5.534   4.824 -1.5478  0.1734 -1.0308
 4065TIP3    H233611   6.021   5.672   4.815 -0.4622  0.7982  0.6138
 4066TIP3   OH233612   2.940   3.417  16.169 -0.6311  0.1026 -0.1018
 4066TIP3    H133613   2.901   3.456  16.090 -1.4485  1.0619  0.7485
 4066TIP3    H233614   2.994   3.488  16.205 -2.6781  0.7732  1.8484
 4067TIP3   OH233615   4.150   1.998  15.823 -0.1792  0.0832  0.2798
 4067TIP3    H133616   4.094   1.977  15.748 -2.5619  3.8520  0.7564
 4067TIP3    H233617   4.236   2.014  15.785 -0.9773  0.4489 -1.4609
 4068TIP3   OH233618   3.655   4.734   4.104  0.3660 -0.6354  0.0587
 4068TIP3    H133619   3.639   4.826   4.085  0.3581 -0.1817  1.9985
 4068TIP3    H233620   3.746   4.720   4.080  0.4180 -0.0676 -0.0947
 4069TIP3   OH233621   6.060   5.385  15.253 -0.2811  1.3161 -0.1270
 4069TIP3    H133622   5.970   5.370  15.223 -0.2060 -1.1411  0.6720
 4069TIP3    H233623   6.111   5.388  15.172 -0.6065 -1.3741 -0.5439
 4070TIP3   OH233624   2.392   2.064   5.279 -0.3285  0.1320  0.6552
 4070TIP3    H133625   2.328   2.134   5.265 -1.7647 -0.9873  1.4002
 4070TIP3    H233626   2.357   2.013   5.352  1.9274  0.0378  1.7670
 4071TIP3   OH233627   1.904   3.190   0.860 -0.3683  0.1019 -0.3148
 4071TIP3    H133628   1.954   3.110   0.844  3.0370  2.1510 -0.7530
 4071TIP3    H233629   1.869   3.214   0.774  0.0876  0.0112 -0.5265
 4072TIP3   OH233630   2.192   1.804   1.195  0.1091  0.4290  0.5939
 4072TIP3    H133631   2.169   1.719   1.156  1.8674  0.1862 -0.0077
 4072TIP3    H233632   2.135   1.867   1.151  1.4555  0.0522 -1.8534
 4073TIP3   OH233633   3.685   3.548  12.681  0.0892 -0.7411 -0.1121
 4073TIP3    H133634   3.667   3.502  12.599 -0.2774  0.2018 -0.5841
 4073TIP3    H233635   3.654   3.637  12.665  1.8744  0.0009  0.3466
 4074TIP3   OH233636   0.140   2.732  17.305 -0.1980 -0.0724  0.5083
 4074TIP3    H133637   0.049   2.731  17.334 -0.3909 -0.2880 -0.1035
 4074TIP3    H233638   0.190   2.743  17.386 -0.7500 -0.2261  0.8764
 4075TIP3   OH233639   3.822   4.694  12.197 -0.2977  0.2460 -0.4571
 4075TIP3    H133640   3.907   4.734  12.216 -1.0289  0.8835  1.6676
 4075TIP3    H233641   3.841   4.632  12.126  1.5061  1.9039 -1.5356
 4076TIP3   OH233642   1.482   0.253   0.328  0.2446  0.3190  0.3623
 4076TIP3    H133643   1.438   0.313   0.267  0.9254 -0.6968 -1.1963
 4076TIP3    H233644   1.560   0.300   0.356 -0.1479  0.8554  0.5816
 4077TIP3   OH233645   0.745   2.199  16.554  0.3756 -0.9504 -0.0054
 4077TIP3    H133646   0.653   2.189  16.528  0.1203  3.2371 -1.4321
 4077TIP3    H233647   0.794   2.168  16.478  0.1965 -2.6937  0.5509
 4078TIP3   OH233648   2.351   2.012  12.310 -0.4121 -0.0421  0.6047
 4078TIP3    H133649   2.257   2.018  12.327 -0.8035  3.4619 -1.6619
 4078TIP3    H233650   2.358   1.992  12.217  1.1548 -1.1502  0.9107
 4079TIP3   OH233651   3.529   0.399   6.687 -0.3306  0.3855 -0.1505
 4079TIP3    H133652   3.522   0.377   6.594  1.0500  0.4906 -0.3028
 4079TIP3    H233653   3.586   0.330   6.723  1.1166  1.6490  0.1002
 4080TIP3   OH233654   5.494   3.917  12.428 -0.5838  0.0403 -0.1624
 4080TIP3    H133655   5.564   3.887  12.486 -1.5161  0.5586  1.2854
 4080TIP3    H233656   5.416   3.921  12.484 -0.7706  4.1280 -0.4461
 4081TIP3   OH233657   5.302   3.576   0.397 -0.2375 -0.0667 -0.0102
 4081TIP3    H133658   5.317   3.664   0.432  1.2387 -0.7231  1.1127
 4081TIP3    H233659   5.367   3.567   0.327 -0.7598 -0.0816 -0.5006
 4082TIP3   OH233660   5.387   4.530  16.306  0.0179  0.0781  0.3437
 4082TIP3    H133661   5.310   4.587  16.315  0.5858  0.9598 -0.3402
 4082TIP3    H233662   5.350   4.441  16.304 -0.8798  0.4069  1.3183
 4083TIP3   OH233663   5.508   4.568  15.666  0.1828  0.1586 -0.2224
 4083TIP3    H133664   5.557   4.514  15.728  0.5273 -0.5268 -1.0758
 4083TIP3    H233665   5.574   4.605  15.608 -0.1375  0.7663 -0.2095
 4084TIP3   OH233666   1.510   0.728  16.597 -0.0393 -0.3964  0.1264
 4084TIP3    H133667   1.451   0.659  16.627  0.5177 -0.5634  0.8585
 4084TIP3    H233668   1.524   0.783  16.674 -2.0604  1.7358 -0.8972
 4085TIP3   OH233669   1.810   2.503   0.697 -0.2479  0.0433  0.0070
 4085TIP3    H133670   1.817   2.526   0.604 -2.5475 -1.4227 -0.6046
 4085TIP3    H233671   1.759   2.575   0.735 -0.8666 -0.2468 -0.2649
 4086TIP3   OH233672   0.542   4.928  15.600 -0.4121  0.3947 -0.4886
 4086TIP3    H133673   0.474   4.888  15.653  0.7873 -0.6592  0.2969
 4086TIP3    H233674   0.534   5.022  15.617 -0.7200  0.1561  0.7390
 4087TIP3   OH233675   2.440   3.230  16.071 -0.0210  0.4760 -0.1535
 4087TIP3    H133676   2.415   3.305  16.017  1.3193  0.7014 -0.5093
 4087TIP3    H233677   2.507   3.264  16.130 -0.0029 -0.2502  0.2564
 4088TIP3   OH233678   6.564   5.965  12.915  0.0832 -0.1241 -0.0101
 4088TIP3    H133679   6.569   5.982  12.821  2.0297  0.3999  0.1550
 4088TIP3    H233680   6.520   6.042  12.951 -1.2591 -0.6098 -0.5163
 4089TIP3   OH233681   0.960   2.923  11.628 -0.7559  0.1550 -0.2408
 4089TIP3    H133682   1.037   2.980  11.636 -0.0494 -0.6116 -1.3079
 4089TIP3    H233683   0.985   2.844  11.676 -2.0908  1.0331  2.0450
 4090TIP3   OH233684   2.284   1.948  11.664  0.3285  0.1417 -0.4034
 4090TIP3    H133685   2.247   1.909  11.743  0.0543  0.6199 -0.2959
 4090TIP3    H233686   2.232   2.027  11.648 -1.7450 -1.5441 -2.8803
 4091TIP3   OH233687   0.815   4.557  14.632  0.3320 -0.1911  0.2390
 4091TIP3    H133688   0.889   4.617  14.634  0.5588 -0.4864  0.8828
 4091TIP3    H233689   0.745   4.603  14.678  0.5153 -0.4225  0.7593
 4092TIP3   OH233690   4.555   4.526   1.023 -0.3363 -0.3555 -0.5100
 4092TIP3    H133691   4.583   4.602   0.971 -2.2931 -0.0117 -1.1245
 4092TIP3    H233692   4.463   4.514   1.001 -1.0273 -0.7489  2.2178
 4093TIP3   OH233693   4.030   6.106   0.181 -0.1625 -0.1454  0.0837
 4093TIP3    H133694   4.053   6.196   0.156  1.5098 -0.2388  1.1288
 4093TIP3    H233695   3.991   6.068   0.102  0.3856  1.0736 -0.8053
 4094TIP3   OH233696   2.096   0.038   5.593 -0.4474 -0.2663  0.2431
 4094TIP3    H133697   2.167   0.102   5.592 -1.7579  1.2559  0.2535
 4094TIP3    H233698   2.124  -0.028   5.656  1.1769  0.0026 -0.1523
 4095TIP3   OH233699   4.504   3.210  16.034 -0.0591 -0.4657  0.2968
 4095TIP3    H133700   4.566   3.156  15.985 -0.5091 -2.3388  1.6650
 4095TIP3    H233701   4.533   3.300  16.020  2.3564 -1.2198  0.1048
 4096TIP3   OH233702   4.006   4.353   5.092  0.4208  0.1883 -0.0029
 4096TIP3    H133703   4.077   4.290   5.109  0.1924 -0.7829 -2.2737
 4096TIP3    H233704   3.930   4.315   5.135  0.2926 -1.1612 -1.3123
 4097TIP3   OH233705   4.089   4.978  13.222  0.5200  0.0912  0.5512
 4097TIP3    H133706   4.139   4.935  13.153  2.1177  2.1507  0.3350
 4097TIP3    H233707   4.118   4.934  13.303  1.2778 -0.0009  0.2369
 4098TIP3   OH233708   6.097   4.717  10.724 -0.4161  0.1260  0.6063
 4098TIP3    H133709   6.054   4.644  10.768 -0.2525 -0.0223  0.5212
 4098TIP3    H233710   6.155   4.676  10.660 -1.9128  0.3405 -0.9818
 4099TIP3   OH233711   5.866   3.529   1.635  0.6547 -0.5874 -0.0418
 4099TIP3    H133712   5.897   3.438   1.629  0.5320 -0.7446  1.4699
 4099TIP3    H233713   5.933   3.575   1.684  0.8848  0.2527 -1.1008
 4100TIP3   OH233714   2.999   3.461  11.670  0.4411 -1.0472  0.3119
 4100TIP3    H133715   2.996   3.365  11.672  1.3162 -1.2932 -3.2785
 4100TIP3    H233716   2.910   3.488  11.692  0.0211 -2.7062  0.8009
 4101TIP3   OH233717   4.349   2.410  16.444 -0.0198 -0.2940 -0.7144
 4101TIP3    H133718   4.290   2.343  16.478 -0.1196  0.4739  0.7144
 4101TIP3    H233719   4.349   2.397  16.349 -1.6162 -1.0044 -0.6413
 4102TIP3   OH233720   5.378   6.038  12.917  0.7097 -0.1774  0.2216
 4102TIP3    H133721   5.398   6.126  12.887  3.6874 -1.4036 -1.8308
 4102TIP3    H233722   5.332   5.997  12.843  0.0901 -0.6391  0.8446
 4103TIP3   OH233723   0.379   6.250  16.962 -0.2386 -0.0022 -0.1801
 4103TIP3    H133724   0.307   6.267  16.901  0.5869  3.5255 -0.3629
 4103TIP3    H233725   0.455   6.236  16.906  0.0476  0.7356  0.0187
 4104TIP3   OH233726   5.917   5.597   2.850  0.3821  0.2963  0.3554
 4104TIP3    H133727   5.900   5.628   2.761  0.1943  0.3296  0.4040
 4104TIP3    H233728   6.004   5.557   2.844 -0.2148 -0.9696 -0.1621
 4105TIP3   OH233729   5.477   3.252   5.659 -0.0080 -0.3793 -0.5653
 4105TIP3    H133730   5.481   3.272   5.753  1.1169 -3.3399  0.1333
 4105TIP3    H233731   5.539   3.313   5.619 -0.4785  0.9063  0.5618
 4106TIP3   OH233732   2.329   2.331  15.788 -0.2929  0.6013  0.2100
 4106TIP3    H133733   2.291   2.418  15.779  0.8521  1.0546 -0.4530
 4106TIP3    H233734   2.416   2.339  15.749 -1.1704 -1.5368 -2.4980
 4107TIP3   OH233735   0.288   0.028   0.663  0.3017 -0.1051 -1.3690
 4107TIP3    H133736   0.348   0.064   0.728 -1.2975  0.3138 -0.0672
 4107TIP3    H233737   0.340   0.023   0.582  2.8620 -2.2061  0.2593
 4108TIP3   OH233738   3.916   3.646   6.079 -0.4957  0.3350 -0.0889
 4108TIP3    H133739   3.991   3.588   6.094 -0.8364 -0.0976 -0.0407
 4108TIP3    H233740   3.874   3.610   6.001  0.0868  1.3487 -0.8908
 4109TIP3   OH233741   5.574   0.734   6.063  0.4148  0.2436 -0.1701
 4109TIP3    H133742   5.568   0.740   6.158 -1.1078  2.1628 -0.3373
 4109TIP3    H233743   5.641   0.797   6.038  0.5272  0.0395 -0.3910
 4110TIP3   OH233744   2.464   0.579  12.412 -0.1796  0.1971 -0.1453
 4110TIP3    H133745   2.399   0.516  12.380  1.4252 -1.7701  0.2438
 4110TIP3    H233746   2.548   0.544  12.381  0.9468  1.1454  1.6773
 4111TIP3   OH233747   6.180   1.998  16.163  0.3329 -0.3731 -0.0838
 4111TIP3    H133748   6.087   2.009  16.146  0.3789  2.1914  0.8623
 4111TIP3    H233749   6.186   1.986  16.258  1.0667  2.2531  0.2722
 4112TIP3   OH233750   3.414   4.881  16.091  0.7016 -0.5834 -0.1119
 4112TIP3    H133751   3.377   4.846  16.010  1.8449 -1.1861 -0.3861
 4112TIP3    H233752   3.369   4.964  16.104 -1.0590 -1.4613 -0.2082
 4113TIP3   OH233753   5.284   3.097   2.696  0.7593 -0.0183 -0.4938
 4113TIP3    H133754   5.275   3.181   2.650 -1.2009  0.3468  0.4297
 4113TIP3    H233755   5.277   3.031   2.628  1.2551  0.5283 -1.1005
 4114TIP3   OH233756   1.079   5.778  16.979 -0.6597 -0.2793 -0.2113
 4114TIP3    H133757   1.129   5.793  17.059 -0.2197 -0.3107 -0.4764
 4114TIP3    H233758   1.084   5.684  16.965  1.3899 -0.0165 -1.6216
 4115TIP3   OH233759   3.158   1.147   0.415  0.0531 -0.8218 -0.7521
 4115TIP3    H133760   3.076   1.191   0.393  0.7717 -0.2891 -2.4723
 4115TIP3    H233761   3.131   1.070   0.466 -1.4497 -0.3216 -0.7611
 4116TIP3   OH233762   0.968   0.127   2.324 -0.4461 -0.3102  0.0547
 4116TIP3    H133763   0.946   0.104   2.414  0.8437 -1.6412  0.0857
 4116TIP3    H233764   0.885   0.122   2.276 -0.7997 -1.7602  0.7686
 4117TIP3   OH233765   2.673   2.930  17.322 -0.1793 -0.4272 -0.8527
 4117TIP3    H133766   2.648   2.849  17.279  0.2550 -1.5451  0.8907
 4117TIP3    H233767   2.644   2.919  17.413  1.0606  0.8111 -0.2643
 4118TIP3   OH233768   3.445   6.627   5.655  0.1084 -0.2691 -0.2245
 4118TIP3    H133769   3.357   6.662   5.658 -0.0900 -0.6971 -0.8163
 4118TIP3    H233770   3.477   6.632   5.745 -1.1057 -1.5772  0.3140
 4119TIP3   OH233771   0.840   1.299  15.702  0.0831 -0.2112  0.4447
 4119TIP3    H133772   0.807   1.376  15.748  0.3902 -0.6885  1.5014
 4119TIP3    H233773   0.797   1.302  15.617 -0.6226  0.6277  0.8088
 4120TIP3   OH233774   2.801   3.630   2.864  0.7148  0.5518  0.1148
 4120TIP3    H133775   2.774   3.548   2.905  0.8101 -0.4812 -1.7631
 4120TIP3    H233776   2.882   3.608   2.818 -0.4423  1.0378 -2.3026
 4121TIP3   OH233777   0.669   3.399   0.665  0.1820  0.2111  0.0124
 4121TIP3    H133778   0.735   3.355   0.611 -1.7615  0.1461 -2.4331
 4121TIP3    H233779   0.597   3.336   0.672 -1.7441  2.0859 -1.7163
 4122TIP3   OH233780   6.153   4.576  13.629  0.0939 -0.8258 -0.5278
 4122TIP3    H133781   6.100   4.641  13.676  0.3108 -0.7275 -0.4175
 4122TIP3    H233782   6.208   4.537  13.697  0.7055 -0.3940 -0.7696
 4123TIP3   OH233783   0.465   6.236  11.773 -0.2961 -0.1574  0.4408
 4123TIP3    H133784   0.471   6.145  11.801  0.7911  0.3563  1.9828
 4123TIP3    H233785   0.531   6.282  11.824  0.0447  1.3127 -1.2004
 4124TIP3   OH233786   6.644   0.579   2.855 -0.4616  0.0264  0.8665
 4124TIP3    H133787   6.734   0.605   2.834 -0.2162 -0.1149  1.7291
 4124TIP3    H233788   6.591   0.617   2.784  0.4103 -0.9662 -0.3713
 4125TIP3   OH233789   0.699   1.076   6.571  0.1284 -0.3855 -0.1692
 4125TIP3    H133790   0.699   1.160   6.616 -2.8161  0.5904 -1.7172
 4125TIP3    H233791   0.761   1.088   6.498  0.8404 -0.1281  0.4594
 4126TIP3   OH233792   1.569   5.458  15.523  0.3915 -0.3747 -0.2688
 4126TIP3    H133793   1.643   5.400  15.536  0.2707 -0.0671  2.3182
 4126TIP3    H233794   1.497   5.417  15.571 -0.5970  0.3002 -1.1146
 4127TIP3   OH233795   4.600   1.026  16.130  0.0167  0.1598 -0.0910
 4127TIP3    H133796   4.679   1.080  16.134  1.0510 -1.2469 -0.6702
 4127TIP3    H233797   4.633   0.936  16.130 -1.6176 -0.4634  0.0952
 4128TIP3   OH233798   2.551   0.970  17.050  0.0692  0.7686 -0.3366
 4128TIP3    H133799   2.570   0.885  17.009 -0.2683  0.1132  0.8175
 4128TIP3    H233800   2.530   1.028  16.977  1.7254  0.2497 -1.2650
 4129TIP3   OH233801   0.503   4.062   5.150  0.0197  0.5997 -0.1329
 4129TIP3    H133802   0.496   4.137   5.208 -1.3526  0.1549  0.3056
 4129TIP3    H233803   0.523   4.099   5.064  1.8202  1.2799  0.5236
 4130TIP3   OH233804   4.851   2.339   1.785  0.1713 -0.3369  0.3722
 4130TIP3    H133805   4.823   2.385   1.864 -1.4839  0.0323 -0.3805
 4130TIP3    H233806   4.834   2.246   1.803 -3.4578 -0.0210 -0.6706
 4131TIP3   OH233807   1.460   6.091  12.132 -0.1786  0.1809 -0.1048
 4131TIP3    H133808   1.400   6.025  12.097  0.5651 -0.7092  0.2506
 4131TIP3    H233809   1.526   6.102  12.064  0.3236 -0.2992  0.2872
 4132TIP3   OH233810   6.041   1.819  12.885 -0.9117 -0.4782  0.4128
 4132TIP3    H133811   6.023   1.747  12.946 -0.9208 -1.2009 -0.4103
 4132TIP3    H233812   5.981   1.804  12.812 -1.8899  1.1758  0.8266
 4133TIP3   OH233813   2.134   4.877   5.768 -0.6996  0.1132 -0.1970
 4133TIP3    H133814   2.201   4.819   5.731  0.3294  0.7857  0.5269
 4133TIP3    H233815   2.051   4.833   5.751  0.1374 -3.0122  2.6259
 4134TIP3   OH233816   6.601   6.712   1.101 -0.3060 -0.3458  0.4961
 4134TIP3    H133817   6.685   6.725   1.146  0.4479  1.8551 -1.3163
 4134TIP3    H233818   6.543   6.776   1.142 -1.4985 -2.5073  2.4038
 4135TIP3   OH233819   4.899   2.194   4.064 -0.1075  0.3154  0.7146
 4135TIP3    H133820   4.885   2.100   4.079 -2.1063  0.6406  1.2473
 4135TIP3    H233821   4.924   2.200   3.972 -0.8293 -0.6871  0.4290
 4136TIP3   OH233822   0.451   2.472  15.005 -0.0096  0.2631  1.2634
 4136TIP3    H133823   0.417   2.388  15.035  0.2385 -0.2789  0.0719
 4136TIP3    H233824   0.387   2.503  14.941  1.2778 -0.4246 -0.4591
 4137TIP3   OH233825   3.904   2.321   5.846  0.2791  0.5570 -0.0792
 4137TIP3    H133826   3.892   2.405   5.802 -1.5761 -0.0401 -0.8218
 4137TIP3    H233827   3.951   2.267   5.783  0.1982  0.6052 -0.1822
 4138TIP3   OH233828   5.789   2.684  12.251 -0.1281  0.3143  0.6369
 4138TIP3    H133829   5.790   2.590  12.237  1.8028  0.2799  0.8296
 4138TIP3    H233830   5.777   2.694  12.346  0.8327  0.2223  0.7752
 4139TIP3   OH233831   1.801   2.215  16.234  0.2093 -0.6875 -0.0936
 4139TIP3    H133832   1.755   2.153  16.178  0.4473 -0.8747 -0.0807
 4139TIP3    H233833   1.735   2.245  16.297 -0.6726  1.1407 -1.7720
 4140TIP3   OH233834   4.245   5.928   4.278  0.0006  0.0985 -0.0281
 4140TIP3    H133835   4.294   5.859   4.324 -0.0943 -1.1570 -1.7256
 4140TIP3    H233836   4.176   5.881   4.231 -0.8934  1.5178 -0.1941
 4141TIP3   OH233837   0.097   1.167   1.915  0.0781  0.1892 -0.0757
 4141TIP3    H133838   0.068   1.199   1.829  0.4908  1.5769  0.2683
 4141TIP3    H233839   0.105   1.246   1.969  1.0767 -0.5070  0.8656
 4142TIP3   OH233840   4.210   2.428  13.522 -0.3525  0.1400  0.4632
 4142TIP3    H133841   4.148   2.471  13.581 -2.2770 -0.7058 -0.8490
 4142TIP3    H233842   4.280   2.397  13.580 -0.5734  2.0296  1.8620
 4143TIP3   OH233843   3.102   0.754   4.399  0.2337  0.1269 -0.3900
 4143TIP3    H133844   3.117   0.683   4.462 -0.1614  0.7902  0.4676
 4143TIP3    H233845   3.007   0.755   4.386  0.0986  1.2011  0.4744
 4144TIP3   OH233846   3.920   5.478  12.390 -0.0271  0.0021  0.1384
 4144TIP3    H133847   3.952   5.565  12.366  1.0760  0.3141  2.4616
 4144TIP3    H233848   3.982   5.417  12.348 -0.5807  0.3010 -1.1723
 4145TIP3   OH233849   4.407   5.777  11.321 -0.1066 -0.1487  0.0771
 4145TIP3    H133850   4.347   5.703  11.321 -0.1319 -0.1300 -0.3825
 4145TIP3    H233851   4.357   5.848  11.280 -0.5994  0.5526  1.7827
 4146TIP3   OH233852   5.454   0.561  13.154 -0.5568 -0.1271 -0.6018
 4146TIP3    H133853   5.413   0.628  13.099 -0.3413  0.2783 -0.2664
 4146TIP3    H233854   5.514   0.609  13.210 -0.5136 -0.5859 -0.2528
 4147TIP3   OH233855   0.282   0.621   2.232 -0.3578  0.3921 -0.0672
 4147TIP3    H133856   0.347   0.614   2.301 -0.8020 -0.0333  0.3129
 4147TIP3    H233857   0.333   0.623   2.151  0.1251 -0.0278  0.2235
 4148TIP3   OH233858   1.007   2.536  16.259 -0.2075  0.0489 -0.1994
 4148TIP3    H133859   1.027   2.442  16.259 -1.7035 -0.2936 -0.4054
 4148TIP3    H233860   0.911   2.540  16.262 -0.1423  1.5874  0.4534
 4149TIP3   OH233861   0.083   4.456  16.757 -0.4815  0.2602  0.1891
 4149TIP3    H133862   0.041   4.403  16.689 -1.1069  1.0158 -0.0389
 4149TIP3    H233863   0.142   4.514  16.709  0.4513 -0.4507  0.4657
 4150TIP3   OH233864   2.526   6.160   5.999  0.2222 -0.4291  0.1944
 4150TIP3    H133865   2.438   6.144   6.034  0.6710  0.6076  1.8976
 4150TIP3    H233866   2.550   6.077   5.956 -1.7147 -0.5943 -0.6773
 4151TIP3   OH233867   6.269   3.734   3.338  0.0481 -0.2839 -0.1578
 4151TIP3    H133868   6.329   3.794   3.294 -0.7629  0.9929  0.4077
 4151TIP3    H233869   6.185   3.749   3.296 -0.9500  1.6034  2.2359
 4152TIP3   OH233870   2.249   4.076  15.050  0.3777  0.3759  0.5640
 4152TIP3    H133871   2.275   4.033  14.968 -1.2573  2.5761 -1.2268
 4152TIP3    H233872   2.166   4.034  15.073  0.2328  0.5748  0.4098
 4153TIP3   OH233873   5.177   0.549   3.748  0.5969 -0.2424  0.5670
 4153TIP3    H133874   5.272   0.548   3.745  0.6363  1.2442  0.7994
 4153TIP3    H233875   5.155   0.569   3.839  0.0858  0.5162  0.2866
 4154TIP3   OH233876   4.227   1.192  12.753 -0.1343 -0.2316 -0.1402
 4154TIP3    H133877   4.216   1.233  12.839 -0.9365 -1.2806  0.2738
 4154TIP3    H233878   4.139   1.168  12.726 -0.0541  1.1967 -1.8501
 4155TIP3   OH233879   3.579   5.701   4.480 -0.4253 -0.1320  0.2660
 4155TIP3    H133880   3.507   5.753   4.444  0.4393 -0.1486 -1.5763
 4155TIP3    H233881   3.606   5.644   4.408  0.8496 -0.7644  1.2088
 4156TIP3   OH233882   6.445   1.719  15.086 -0.2047  0.1082  0.0158
 4156TIP3    H133883   6.495   1.742  15.008 -0.8172  1.1691 -0.0896
 4156TIP3    H233884   6.456   1.793  15.145  1.2751 -1.2072  1.4991
 4157TIP3   OH233885   2.590   0.960   5.224 -0.3956 -0.7815  0.0502
 4157TIP3    H133886   2.518   0.980   5.284  0.0822  2.0183 -0.1625
 4157TIP3    H233887   2.609   0.867   5.239 -1.9814 -0.8147  2.3589
 4158TIP3   OH233888   6.400   2.867  13.959 -0.4865 -0.3400  0.0395
 4158TIP3    H133889   6.482   2.836  13.997 -0.1588  0.0775 -0.3105
 4158TIP3    H233890   6.345   2.788  13.952  0.0401 -0.6974 -0.1153
 4159TIP3   OH233891   3.886   0.030   2.677  0.2281  0.1343  0.4720
 4159TIP3    H133892   3.864  -0.051   2.631 -0.0828 -0.9187  2.3485
 4159TIP3    H233893   3.959   0.006   2.734 -0.8116  0.7506  2.1344
 4160TIP3   OH233894   3.757   1.625   5.710  0.1230  0.0361 -0.5553
 4160TIP3    H133895   3.757   1.703   5.765 -1.2037 -0.5674  0.3681
 4160TIP3    H233896   3.849   1.599   5.704  0.3804  0.6172  0.6760
 4161TIP3   OH233897   2.558   0.247  15.205 -0.2086 -0.6336  0.8493
 4161TIP3    H133898   2.510   0.230  15.124 -0.3379  2.7486  0.0667
 4161TIP3    H233899   2.648   0.263  15.176 -0.2967  0.7870  1.3114
 4162TIP3   OH233900   5.166   2.021   4.824  0.1698 -0.2840  0.1867
 4162TIP3    H133901   5.175   2.091   4.759  0.5784 -0.7946 -0.3181
 4162TIP3    H233902   5.246   2.027   4.876 -0.6711  0.8738  1.4204
 4163TIP3   OH233903   0.972   0.472   4.096  0.6517  0.3643  0.9324
 4163TIP3    H133904   0.911   0.526   4.146  1.5609  1.2279  1.1617
 4163TIP3    H233905   1.057   0.516   4.107  1.2248 -0.5205  0.2270
 4164TIP3   OH233906   1.286   0.416   2.611 -0.2100  0.1847 -1.2056
 4164TIP3    H133907   1.371   0.374   2.592  0.8778  2.6311 -2.1056
 4164TIP3    H233908   1.251   0.440   2.525 -0.6478  1.3410 -0.7227
 4165TIP3   OH233909   0.038   3.808  12.366 -0.0280  0.4520  1.2283
 4165TIP3    H133910  -0.046   3.778  12.400  0.3072  1.2966  2.9057
 4165TIP3    H233911   0.099   3.737  12.387  0.1736  0.9607  2.4539
 4166TIP3   OH233912   4.956   1.186  14.714 -0.0144 -0.4876 -0.5783
 4166TIP3    H133913   4.905   1.230  14.646  0.3560  0.9357  0.0204
 4166TIP3    H233914   5.042   1.172  14.673 -0.3964 -1.4488 -1.0595
 4167TIP3   OH233915   5.010   1.677  11.271  0.2762  0.8528  0.4232
 4167TIP3    H133916   4.918   1.702  11.283  0.4940  1.1713  1.6167
 4167TIP3    H233917   5.059   1.758  11.288  0.7758  0.7153 -0.3159
 4168TIP3   OH233918   1.680   0.297  16.119  0.1208 -0.4257  0.5186
 4168TIP3    H133919   1.771   0.307  16.146  0.8963  0.0262 -2.0015
 4168TIP3    H233920   1.646   0.386  16.117  0.9721 -0.0404 -2.5265
 4169TIP3   OH233921   4.122   5.627   3.588  0.2970 -0.3313 -0.2660
 4169TIP3    H133922   4.214   5.601   3.591  0.3119 -0.4939 -1.6429
 4169TIP3    H233923   4.119   5.701   3.527 -0.9569 -2.6370 -3.2750
 4170TIP3   OH233924   1.940   4.958   2.225 -0.0396  0.1498 -0.1358
 4170TIP3    H133925   1.991   4.924   2.150 -0.0751 -0.4122  0.0892
 4170TIP3    H233926   1.980   4.916   2.301 -2.2236 -2.0859 -0.1134
 4171TIP3   OH233927   2.687   0.147  11.163 -0.1907 -0.0506 -0.4418
 4171TIP3    H133928   2.687   0.242  11.177 -1.8178 -0.2316  1.2049
 4171TIP3    H233929   2.763   0.116  11.213  0.5084  0.3950 -1.2086
 4172TIP3   OH233930   3.968   0.118   1.472  0.4798  0.2257  0.1882
 4172TIP3    H133931   3.930   0.116   1.384  0.2404  0.0546  0.2939
 4172TIP3    H233932   3.896   0.093   1.530  0.4196  1.0827  0.5083
 4173TIP3   OH233933   3.512   5.934  16.232  0.1411  0.0937  0.4221
 4173TIP3    H133934   3.590   5.892  16.197 -0.6350 -0.9751 -0.0999
 4173TIP3    H233935   3.543   6.016  16.270  1.8226 -1.2494  2.1040
 4174TIP3   OH233936   5.197   4.316   3.722  0.3070 -0.0798  0.5770
 4174TIP3    H133937   5.148   4.396   3.705  0.8834  0.1420 -0.0551
 4174TIP3    H233938   5.250   4.336   3.800  3.1410  1.4277 -1.5709
 4175TIP3   OH233939   4.832   1.177   1.847  0.4092 -0.0074 -0.5011
 4175TIP3    H133940   4.851   1.144   1.934 -0.8794 -0.2856 -0.3009
 4175TIP3    H233941   4.835   1.100   1.791  2.6167  0.3711 -0.9835
 4176TIP3   OH233942   4.541   4.356   1.930 -1.1451 -0.3831  0.4006
 4176TIP3    H133943   4.578   4.314   1.852 -0.0384  1.5106 -0.1705
 4176TIP3    H233944   4.564   4.298   2.002  0.7037 -0.5676 -0.2804
 4177TIP3   OH233945   4.370   1.721   6.731  0.6390 -0.1013 -0.2316
 4177TIP3    H133946   4.412   1.643   6.766 -0.2078 -0.3876  0.1906
 4177TIP3    H233947   4.279   1.694   6.715  0.4023  0.7205 -0.3258
 4178TIP3   OH233948   2.796   0.591  16.149  0.0047  0.6007 -0.0484
 4178TIP3    H133949   2.721   0.649  16.163 -0.1587  0.0463  1.6428
 4178TIP3    H233950   2.770   0.508  16.188  0.8768 -0.1194 -0.9455
 4179TIP3   OH233951   6.222   5.879  13.363  0.3613 -0.1038  0.4155
 4179TIP3    H133952   6.195   5.788  13.352 -0.0952  0.1177 -0.4211
 4179TIP3    H233953   6.203   5.920  13.278  4.1383 -0.1048 -0.5830
 4180TIP3   OH233954   1.443   5.670   1.159 -0.4323  0.6417  0.1912
 4180TIP3    H133955   1.509   5.739   1.155  0.4558 -0.1800  0.2743
 4180TIP3    H233956   1.391   5.690   1.236  1.2642 -0.0272  1.5731
 4181TIP3   OH233957   4.795   0.740  14.205  0.0751 -0.2813 -0.1572
 4181TIP3    H133958   4.800   0.730  14.109  1.7390 -0.0311 -0.1303
 4181TIP3    H233959   4.778   0.833  14.218 -0.2729 -0.3370 -0.2107
 4182TIP3   OH233960   1.526   4.573   3.709  0.2151 -0.0099 -0.2631
 4182TIP3    H133961   1.433   4.588   3.719 -0.4226 -1.9778 -2.2370
 4182TIP3    H233962   1.545   4.501   3.769  0.9224  1.5148  1.4358
 4183TIP3   OH233963   1.368   5.963  11.631  0.5755 -0.5794  0.2881
 4183TIP3    H133964   1.448   5.911  11.622 -0.0941 -1.4279 -1.4758
 4183TIP3    H233965   1.371   6.024  11.557 -0.1638 -0.2989  0.4802
 4184TIP3   OH233966   4.886   2.474   5.631 -0.5602 -0.1263 -0.1144
 4184TIP3    H133967   4.824   2.418   5.678 -2.1369  1.6605  0.0294
 4184TIP3    H233968   4.861   2.563   5.653  0.3625  0.7235 -2.2020
 4185TIP3   OH233969   4.172   0.908  16.428  0.0586 -0.2834 -0.4633
 4185TIP3    H133970   4.205   0.941  16.344  2.0595 -0.6119  0.1477
 4185TIP3    H233971   4.168   0.984  16.485  4.0371 -0.7556  0.7437
 4186TIP3   OH233972   2.748   1.459  12.499  0.4405  0.5964 -0.4483
 4186TIP3    H133973   2.705   1.539  12.530 -0.6947  1.0349 -2.9347
 4186TIP3    H233974   2.841   1.473  12.520 -0.2377  0.2678  3.6945
 4187TIP3   OH233975   6.092   3.940   4.350 -0.1627 -0.3669 -0.7570
 4187TIP3    H133976   6.012   3.893   4.373  0.4076 -0.3848  1.3936
 4187TIP3    H233977   6.161   3.897   4.400  1.1338 -0.0240 -2.1697
 4188TIP3   OH233978   3.712   6.262  15.784  0.1055 -0.0499 -0.2418
 4188TIP3    H133979   3.771   6.313  15.728  1.5284  0.3462  1.5307
 4188TIP3    H233980   3.753   6.176  15.791 -1.1599 -0.7978 -1.4445
 4189TIP3   OH233981   4.685   5.142   5.547 -0.0435 -1.0418 -0.2065
 4189TIP3    H133982   4.637   5.064   5.519 -0.9475 -0.3520 -0.6292
 4189TIP3    H233983   4.658   5.157   5.637  0.1757 -1.2385 -0.1054
 4190TIP3   OH233984   0.442   6.307  16.255  0.4872 -0.3206 -0.0826
 4190TIP3    H133985   0.349   6.285  16.251 -0.0311  1.6369  0.1614
 4190TIP3    H233986   0.465   6.330  16.165  0.2752  0.8203  0.1389
 4191TIP3   OH233987   1.908   0.958   4.333 -0.3573 -0.0868 -0.5957
 4191TIP3    H133988   2.000   0.947   4.307  0.1462 -2.1692  1.7092
 4191TIP3    H233989   1.901   1.050   4.358  1.1985  0.0351 -0.5132
 4192TIP3   OH233990   1.782   1.675   3.939  0.5833 -0.4595 -0.3915
 4192TIP3    H133991   1.865   1.718   3.920  0.5783 -0.6231 -0.7847
 4192TIP3    H233992   1.726   1.695   3.864  0.1820 -0.1363 -0.0155
 4193TIP3   OH233993   3.689   5.400  14.753  0.4490  0.0010  0.3623
 4193TIP3    H133994   3.640   5.366  14.827 -1.5540  2.5485  0.3254
 4193TIP3    H233995   3.720   5.486  14.781  3.8252 -0.9073 -0.1350
 4194TIP3   OH233996   0.300   6.386  15.512 -0.3480  0.1916  0.1375
 4194TIP3    H133997   0.363   6.441  15.466 -0.0915  0.8604  1.2568
 4194TIP3    H233998   0.223   6.442  15.524 -0.9341 -0.4130 -0.6438
 4195TIP3   OH233999   3.459   0.194   2.737  0.2448  0.4158  0.1058
 4195TIP3    H134000   3.512   0.235   2.805 -0.6596 -0.9308  1.7211
 4195TIP3    H234001   3.476   0.246   2.658  0.5461  2.6729  1.5688
 4196TIP3   OH234002   2.217   6.714  16.343 -0.5108  0.2342  0.0418
 4196TIP3    H134003   2.197   6.621  16.349  1.4253 -0.3163 -1.1215
 4196TIP3    H234004   2.307   6.717  16.309 -1.3290  2.5165 -2.2655
 4197TIP3   OH234005   2.476   4.121   6.398  0.0294 -0.0884 -0.0845
 4197TIP3    H134006   2.536   4.047   6.384  0.9653  0.7479 -0.6612
 4197TIP3    H234007   2.495   4.149   6.487 -0.1848 -0.4097  0.0657
 4198TIP3   OH234008   3.793   0.605   6.751  0.4107 -0.5409  0.4175
 4198TIP3    H134009   3.717   0.548   6.739  0.5036 -0.8193  1.1171
 4198TIP3    H234010   3.758   0.694   6.747  0.3588 -0.6098 -1.3666
 4199TIP3   OH234011   5.305   3.938   4.631  0.7488 -0.1511  0.5647
 4199TIP3    H134012   5.336   3.870   4.690  1.7330  0.1258  0.3783
 4199TIP3    H234013   5.288   4.013   4.688 -1.3761 -0.8400  0.9313
 4200TIP3   OH234014   2.958   4.805   1.930  0.5317  0.3723 -0.4488
 4200TIP3    H134015   2.953   4.712   1.906 -0.8411  0.5940 -1.1389
 4200TIP3    H234016   3.017   4.844   1.865  0.4965  0.1087 -0.6413
 4201TIP3   OH234017   3.004   1.745   5.270 -0.5178  0.1256  0.1303
 4201TIP3    H134018   2.995   1.761   5.364 -1.2497 -2.3211  0.5195
 4201TIP3    H234019   3.097   1.759   5.253 -0.5803  1.7765  0.9423
 4202TIP3   OH234020   1.133   3.912  14.688  0.0144  0.0129 -0.1760
 4202TIP3    H134021   1.215   3.863  14.695 -0.0556 -0.0124  0.5849
 4202TIP3    H234022   1.160   4.003  14.680  0.1262  0.1675  1.5115
 4203TIP3   OH234023   2.567   4.154  13.003 -0.1356  0.4660  0.0741
 4203TIP3    H134024   2.593   4.166  13.094 -0.9099  0.1648  0.3455
 4203TIP3    H234025   2.514   4.074  13.004 -2.2105  1.7540 -0.1885
 4204TIP3   OH234026   5.446   0.641   4.866 -0.4404 -0.2699 -0.0009
 4204TIP3    H134027   5.532   0.670   4.836 -0.9947 -0.4115 -1.8320
 4204TIP3    H234028   5.443   0.666   4.958  1.0642  0.8612 -0.2258
 4205TIP3   OH234029   0.478   4.868  15.118 -0.2136  0.3810 -0.2454
 4205TIP3    H134030   0.397   4.910  15.144 -0.0726  0.3820  0.2141
 4205TIP3    H234031   0.496   4.806  15.189  0.4368  0.7271 -0.1008
 4206TIP3   OH234032   5.034   5.867  15.960  0.1879  0.6211  0.3889
 4206TIP3    H134033   5.051   5.774  15.977  1.6898  1.1328  1.9725
 4206TIP3    H234034   4.948   5.882  15.998 -1.3432 -0.6517 -2.2667
 4207TIP3   OH234035   2.197   0.128   1.390  0.5072 -0.1928  0.6541
 4207TIP3    H134036   2.235   0.092   1.470  0.5388 -2.4578 -0.2835
 4207TIP3    H234037   2.105   0.103   1.394  0.0614  1.3710  0.8381
 4208TIP3   OH234038   2.549   4.850  15.883  0.0383  0.3151 -0.6829
 4208TIP3    H134039   2.542   4.931  15.935  1.8273  0.5917 -0.8130
 4208TIP3    H234040   2.546   4.780  15.947 -2.6264  0.3478 -0.6409
 4209TIP3   OH234041   2.851   4.433  15.891 -0.4635  0.5466  0.9503
 4209TIP3    H134042   2.808   4.517  15.874 -0.3880  0.4830  0.4364
 4209TIP3    H234043   2.783   4.367  15.875 -0.1885  0.4456  0.1509
 4210TIP3   OH234044   0.617   0.326   0.233 -0.1921  0.2985  0.1111
 4210TIP3    H134045   0.570   0.325   0.316 -0.8274 -2.1658 -0.1955
 4210TIP3    H234046   0.656   0.239   0.227 -0.0315  0.4700 -2.1153
 4211TIP3   OH234047   0.512   1.031  13.991 -0.8783  0.4076 -0.5245
 4211TIP3    H134048   0.462   0.950  13.978 -0.6597  0.3840 -1.3139
 4211TIP3    H234049   0.523   1.038  14.086  0.5173 -1.3774 -0.4819
 4212TIP3   OH234050   0.826   6.409   1.530  0.0817  0.2956 -0.3613
 4212TIP3    H134051   0.839   6.324   1.571  0.0022 -0.2126 -1.3593
 4212TIP3    H234052   0.909   6.455   1.543  0.4272 -0.2635 -0.5778
 4213TIP3   OH234053   3.819   2.543  11.563 -0.2821  0.1003  0.4358
 4213TIP3    H134054   3.834   2.449  11.556 -0.0137  0.1324  0.5916
 4213TIP3    H234055   3.819   2.573  11.472 -0.7927 -0.1138  0.3605
 4214TIP3   OH234056   4.946   2.054   2.874 -0.1251 -0.0846  0.0985
 4214TIP3    H134057   5.033   2.070   2.911  0.9197 -1.0762 -1.8063
 4214TIP3    H234058   4.894   2.024   2.949  1.7181 -1.3784  0.9602
 4215TIP3   OH234059   5.918   5.989  12.235 -0.3379  0.4684  0.0961
 4215TIP3    H134060   5.830   6.021  12.214 -1.2383 -1.7916  0.0883
 4215TIP3    H234061   5.973   6.067  12.236 -1.8823  1.6896 -2.2415
 4216TIP3   OH234062   4.080   4.197  15.748 -0.6169  0.3681  0.0445
 4216TIP3    H134063   4.076   4.111  15.704  0.8669  0.3053 -0.0094
 4216TIP3    H234064   4.172   4.223  15.741 -1.1139  2.1379 -0.2433
 4217TIP3   OH234065   5.612   6.331   1.821 -0.5234 -0.1644  0.1274
 4217TIP3    H134066   5.681   6.395   1.838 -0.2535 -0.6417  0.8780
 4217TIP3    H234067   5.552   6.375   1.761 -0.3977  0.8155  0.7115
 4218TIP3   OH234068   2.567   1.425   2.056  0.8957  0.3787 -0.1230
 4218TIP3    H134069   2.586   1.518   2.049  0.0065  0.5763  0.0192
 4218TIP3    H234070   2.518   1.404   1.977  0.8430  0.0957 -0.0170
 4219TIP3   OH234071   4.463   2.850  12.048  0.1476 -0.3710  0.1517
 4219TIP3    H134072   4.478   2.784  12.115 -0.5022  0.0300  0.6965
 4219TIP3    H234073   4.369   2.867  12.050  0.5040  1.8054  1.2112
 4220TIP3   OH234074   5.509   2.714  12.145 -0.1246  0.1605 -0.2798
 4220TIP3    H134075   5.521   2.655  12.070  0.6285 -2.9491  2.0640
 4220TIP3    H234076   5.597   2.740  12.169 -0.2005 -0.3032  0.5357
 4221TIP3   OH234077   4.370   6.459   4.186 -0.4975  0.0534 -0.3398
 4221TIP3    H134078   4.433   6.398   4.225 -0.7425 -0.0613 -0.1244
 4221TIP3    H234079   4.395   6.461   4.093  0.9872  1.4151  0.0430
 4222TIP3   OH234080   4.035   4.004   1.014  0.5271  0.6811 -0.1538
 4222TIP3    H134081   3.995   4.089   1.030  0.2990  0.7830 -1.1990
 4222TIP3    H234082   3.985   3.968   0.940  1.4992  0.2399 -0.6052
 4223TIP3   OH234083   1.982   4.080   4.770 -0.2420 -0.1126 -0.0641
 4223TIP3    H134084   1.973   4.160   4.717 -1.4403 -0.6683 -0.7336
 4223TIP3    H234085   2.065   4.042   4.741  1.7342  2.1687  2.1078
 4224TIP3   OH234086   1.535   5.057  11.029 -0.6570  0.1508  0.2817
 4224TIP3    H134087   1.547   4.962  11.026 -0.9561  0.0346  1.9615
 4224TIP3    H234088   1.445   5.070  10.998 -0.7576 -0.1451  0.4490
 4225TIP3   OH234089   6.323   4.812  10.934  0.1865 -0.6901 -0.5390
 4225TIP3    H134090   6.338   4.730  10.887  0.8713 -1.1702  0.4945
 4225TIP3    H234091   6.230   4.810  10.956 -0.3963 -0.0056 -2.6585
 4226TIP3   OH234092   2.965   2.108   5.513  0.2376  0.5918 -0.2897
 4226TIP3    H134093   3.059   2.119   5.496  0.1055  0.5792 -1.0537
 4226TIP3    H234094   2.923   2.159   5.444 -0.3258  0.0342 -0.3594
 4227TIP3   OH234095   4.720   1.032   6.623  0.4921 -0.3570 -0.4050
 4227TIP3    H134096   4.719   0.972   6.699 -0.1056  0.9173  0.6276
 4227TIP3    H234097   4.771   1.107   6.653 -1.0819  0.8749 -0.6752
 4228TIP3   OH234098   0.365   2.471  13.251 -0.1321  0.2103 -0.2806
 4228TIP3    H134099   0.447   2.444  13.293  0.3359  0.6832 -0.8532
 4228TIP3    H234100   0.379   2.564  13.232 -1.3234  0.6379  0.7986
 4229TIP3   OH234101   5.608   3.547   1.486 -0.1402  0.1744 -0.3852
 4229TIP3    H134102   5.550   3.519   1.557 -0.0910 -1.6148 -0.9804
 4229TIP3    H234103   5.688   3.574   1.530 -0.6341  0.5492  0.3133
 4230TIP3   OH234104   6.448   3.683   0.881  0.2643  0.9924 -0.5026
 4230TIP3    H134105   6.434   3.643   0.795  0.8645  0.1890 -0.2387
 4230TIP3    H234106   6.385   3.639   0.938  1.4178 -0.1155 -0.0583
 4231TIP3   OH234107   6.677   1.472   1.508  0.0647  0.3395 -0.4200
 4231TIP3    H134108   6.745   1.406   1.502  0.2481  0.5822 -1.1338
 4231TIP3    H234109   6.601   1.426   1.543  0.6053  0.0820  0.4528
 4232TIP3   OH234110   4.091   1.048  12.272  0.0057 -0.0416  0.2778
 4232TIP3    H134111   4.066   1.022  12.361 -0.2578 -0.0039  0.2162
 4232TIP3    H234112   4.032   0.998  12.216  0.3284 -0.2413  0.1155
 4233TIP3   OH234113   5.264   2.219  17.162 -0.4307  0.0938 -0.0518
 4233TIP3    H134114   5.273   2.264  17.246  2.1129 -0.7053  0.1903
 4233TIP3    H234115   5.341   2.163  17.156 -2.0834 -2.2229 -1.5567
 4234TIP3   OH234116   2.137   0.506   4.008  0.2459  0.7116  0.3453
 4234TIP3    H134117   2.097   0.592   4.020 -0.5594  0.4414 -0.3538
 4234TIP3    H234118   2.223   0.514   4.050  0.8700  2.3657 -1.1285
 4235TIP3   OH234119   0.385   5.292  15.720  0.5969 -0.7938  0.5832
 4235TIP3    H134120   0.374   5.249  15.805  0.1220 -2.6979 -0.3904
 4235TIP3    H234121   0.479   5.302  15.710  0.6292 -0.0455  1.5684
 4236TIP3   OH234122   5.060   3.743  13.331  0.3756  0.1246 -0.3398
 4236TIP3    H134123   5.099   3.744  13.243 -0.7125 -0.8777 -0.8740
 4236TIP3    H234124   5.097   3.666  13.373 -0.5972 -0.5462 -0.6694
 4237TIP3   OH234125   2.268   4.338  16.386  0.0822 -0.3187 -0.5126
 4237TIP3    H134126   2.199   4.405  16.385  0.6174  0.2495  0.2024
 4237TIP3    H234127   2.345   4.383  16.420  1.0368 -0.7521 -1.9882
 4238TIP3   OH234128   4.569   6.744   2.307  0.0225  0.2595  0.2096
 4238TIP3    H134129   4.502   6.812   2.315 -0.0638  0.0291  1.5649
 4238TIP3    H234130   4.529   6.666   2.346  1.3769  0.3559  1.9097
 4239TIP3   OH234131   5.350   2.136   4.979 -0.5551  0.4244 -0.2410
 4239TIP3    H134132   5.441   2.167   4.974 -1.5180  3.5330 -0.1636
 4239TIP3    H234133   5.352   2.068   5.047  1.5773  0.8375  0.1962
 4240TIP3   OH234134   4.668   0.025   2.827  0.0231 -0.2599 -0.2482
 4240TIP3    H134135   4.652   0.093   2.893 -3.3313 -2.3623  1.3837
 4240TIP3    H234136   4.591   0.029   2.769  0.6019 -1.5389 -1.1662
 4241TIP3   OH234137   4.451   4.835  11.927  0.6966  0.3001 -0.8732
 4241TIP3    H134138   4.367   4.861  11.965  0.8112  0.6363 -0.8471
 4241TIP3    H234139   4.468   4.900  11.859  0.0593 -0.8069 -2.1390
 4242TIP3   OH234140   0.293   4.824   2.647  0.0045 -0.4612 -0.0749
 4242TIP3    H134141   0.347   4.779   2.582 -0.0832  1.7816 -1.8002
 4242TIP3    H234142   0.283   4.913   2.614 -2.3514  0.0303  1.6457
 4243TIP3   OH234143   2.889   1.234  15.927  0.1975 -0.6386 -0.0811
 4243TIP3    H134144   2.821   1.283  15.881 -0.5465  0.6452  2.1973
 4243TIP3    H234145   2.866   1.142  15.912 -1.8647 -0.2457  0.2812
 4244TIP3   OH234146   0.669   5.601  12.837  0.3526 -0.2262 -0.4343
 4244TIP3    H134147   0.614   5.529  12.807 -1.9433  2.0383 -2.1777
 4244TIP3    H234148   0.660   5.600  12.932 -1.3621 -0.9938 -0.5661
 4245TIP3   OH234149   1.688   1.153   2.721  0.3966  0.0708  0.1996
 4245TIP3    H134150   1.653   1.239   2.697  0.4001  0.0925  0.2718
 4245TIP3    H234151   1.612   1.099   2.738  0.3695  0.8201  2.9017
 4246TIP3   OH234152   5.287   5.917  13.819 -0.4611 -0.5079  0.0144
 4246TIP3    H134153   5.238   5.898  13.739 -1.8699  0.0276  0.7108
 4246TIP3    H234154   5.298   5.832  13.862  1.9447 -1.0905 -1.5955
 4247TIP3   OH234155   6.169   5.651   3.261 -0.0830  0.1514  0.5761
 4247TIP3    H134156   6.173   5.628   3.168 -3.1802 -0.9905  0.6095
 4247TIP3    H234157   6.130   5.575   3.303 -0.5908  1.3950  2.4869
 4248TIP3   OH234158   2.824   5.620  12.025  0.7096  0.0796  0.2372
 4248TIP3    H134159   2.796   5.608  11.934 -2.2717  0.9224  0.9309
 4248TIP3    H234160   2.837   5.532  12.059  1.5133 -0.2499 -0.8635
 4249TIP3   OH234161   6.165   5.963   5.654 -0.0231  0.2862  0.0830
 4249TIP3    H134162   6.160   6.000   5.566  0.6899 -0.7788 -0.4192
 4249TIP3    H234163   6.105   5.888   5.651  0.2650  0.0414  0.3903
 4250TIP3   OH234164   4.394   3.338   4.811  0.1829 -0.2060  0.1207
 4250TIP3    H134165   4.448   3.394   4.755 -0.5992  0.6508  0.2214
 4250TIP3    H234166   4.449   3.322   4.889  0.6284 -0.0653 -0.1605
 4251TIP3   OH234167   0.692   2.312  16.165 -0.1160 -0.1924  0.5306
 4251TIP3    H134168   0.646   2.316  16.082 -0.9048 -0.1870  0.9559
 4251TIP3    H234169   0.655   2.236  16.210 -0.8114  0.6744  1.4941
 4252TIP3   OH234170   2.355   3.327  14.965  0.7634  0.3059  0.4912
 4252TIP3    H134171   2.361   3.252  14.906 -0.5923  0.6091 -0.0796
 4252TIP3    H234172   2.266   3.360  14.952  0.9865  1.3698  1.5161
 4253TIP3   OH234173   2.456   2.483  16.037  0.1509 -0.4831  0.2929
 4253TIP3    H134174   2.486   2.569  16.005  0.3293 -0.7690 -0.3331
 4253TIP3    H234175   2.369   2.500  16.073 -0.5472 -0.3434 -1.3798
 4254TIP3   OH234176   5.763   1.548   0.508  0.2855 -0.0506  0.2131
 4254TIP3    H134177   5.683   1.598   0.523  0.2067 -0.5027  1.3996
 4254TIP3    H234178   5.758   1.522   0.416 -1.7907 -1.5310  0.6680
 4255TIP3   OH234179   4.614   4.546   2.750 -0.4094 -0.5607 -0.5578
 4255TIP3    H134180   4.563   4.489   2.692 -0.1572 -0.7848 -0.5623
 4255TIP3    H234181   4.564   4.549   2.831 -2.9414  2.9808 -2.0015
 4256TIP3   OH234182   0.576   2.185  16.809  0.1892  0.2809  0.5027
 4256TIP3    H134183   0.558   2.113  16.869 -0.6672 -0.7597 -0.9527
 4256TIP3    H234184   0.577   2.145  16.722 -1.2590  2.1674 -0.4582
 4257TIP3   OH234185   0.814   3.327  15.237 -0.0324 -0.1607  0.0273
 4257TIP3    H134186   0.766   3.276  15.172 -1.9668  1.2888  0.2250
 4257TIP3    H234187   0.890   3.361  15.190 -0.7705 -0.0893 -1.1583
 4258TIP3   OH234188   1.966   3.360   1.048 -0.3506  0.6645  0.5956
 4258TIP3    H134189   1.937   3.311   0.971  0.3787  3.0654 -1.3325
 4258TIP3    H234190   1.962   3.297   1.119 -1.4055 -1.5855 -1.3212
 4259TIP3   OH234191   2.123   3.517  14.015 -0.0182  0.3576 -0.9610
 4259TIP3    H134192   2.186   3.459  13.973 -0.2401  0.0712 -0.9040
 4259TIP3    H234193   2.078   3.461  14.079  0.5591  0.8681 -0.0801
 4260TIP3   OH234194   5.584   1.245  14.575  0.1012 -0.3543  0.6396
 4260TIP3    H134195   5.657   1.303  14.552 -0.7185  0.2172 -0.6599
 4260TIP3    H234196   5.512   1.274  14.519 -0.5747 -2.1287  0.5303
 4261TIP3   OH234197   1.263   6.648   4.868  0.6660 -0.2330 -0.2754
 4261TIP3    H134198   1.249   6.678   4.778  0.3709 -0.8502 -0.4381
 4261TIP3    H234199   1.355   6.668   4.886  1.5031 -2.4975 -1.6381
 4262TIP3   OH234200   3.824   3.329  10.889 -0.5617 -0.2064  0.0990
 4262TIP3    H134201   3.733   3.303  10.874 -0.1769 -1.7788  0.2866
 4262TIP3    H234202   3.820   3.388  10.964 -1.4326 -0.2284  0.0814
 4263TIP3   OH234203   3.105   5.312   4.638 -0.5692  0.4994 -0.0689
 4263TIP3    H134204   3.119   5.374   4.709 -1.0804 -0.2271  0.6731
 4263TIP3    H234205   3.189   5.267   4.629 -0.8618 -0.2615  0.9090
 4264TIP3   OH234206   6.259   6.533  13.457  0.0722 -0.1768 -0.0090
 4264TIP3    H134207   6.318   6.458  13.466  1.3089  0.7148 -0.3322
 4264TIP3    H234208   6.196   6.523  13.528  0.0937 -1.5994 -0.1480
 4265TIP3   OH234209   5.052   3.364   4.590  0.9636 -0.5171  0.0953
 4265TIP3    H134210   4.964   3.333   4.612  0.8868  0.9386  2.0821
 4265TIP3    H234211   5.108   3.331   4.660  1.7157 -0.1503 -0.3214
 4266TIP3   OH234212   1.242   5.086   3.089 -0.5820  0.3618 -0.2610
 4266TIP3    H134213   1.272   5.026   3.021  2.1513  0.4487  0.7445
 4266TIP3    H234214   1.190   5.030   3.148  0.2103 -0.5894 -0.4316
 4267TIP3   OH234215   1.152   0.329  14.297 -0.0257  0.5613 -0.2874
 4267TIP3    H134216   1.115   0.386  14.365  0.4218  1.8064 -1.0622
 4267TIP3    H234217   1.196   0.259  14.346 -2.7447 -0.6094  0.6794
 4268TIP3   OH234218   5.354   4.515  15.280  0.1611 -0.0166 -0.8087
 4268TIP3    H134219   5.446   4.517  15.307 -0.4554  1.5032  1.4379
 4268TIP3    H234220   5.346   4.588  15.218  0.3572  0.2196 -0.5577
 4269TIP3   OH234221   4.060   0.057   4.196  0.1017  0.6175 -0.1306
 4269TIP3    H134222   4.097   0.004   4.125  1.7664  2.7657 -0.9947
 4269TIP3    H234223   4.105   0.028   4.274  0.4314  0.2418 -0.4568
 4270TIP3   OH234224   3.555   6.025  14.521  0.0110  0.2960 -0.7745
 4270TIP3    H134225   3.468   6.064  14.523 -0.8865 -1.3775 -2.6687
 4270TIP3    H234226   3.540   5.932  14.538  1.8669  0.3794  2.0191
 4271TIP3   OH234227   4.425   3.456  14.233  0.3305  0.2119  0.5867
 4271TIP3    H134228   4.476   3.407  14.297 -1.1285 -2.5067 -0.1973
 4271TIP3    H234229   4.447   3.415  14.149 -0.9884  0.8844 -0.1153
 4272TIP3   OH234230   2.095   5.536   3.669 -0.2906  0.1512 -0.4637
 4272TIP3    H134231   2.179   5.500   3.697  1.3137  2.1085 -2.4512
 4272TIP3    H234232   2.042   5.459   3.647  1.5962 -1.0919 -0.8563
 4273TIP3   OH234233   5.092   3.778   4.312  0.2193  0.3992 -0.5080
 4273TIP3    H134234   5.029   3.769   4.241  0.3539 -0.6303 -0.5187
 4273TIP3    H234235   5.126   3.689   4.325  0.7991  0.7237  0.2867
 4274TIP3   OH234236   5.650   5.117  16.577 -0.7050  0.2206  0.1152
 4274TIP3    H134237   5.714   5.188  16.585 -1.7888  1.2433  0.1762
 4274TIP3    H234238   5.610   5.112  16.663 -1.6374  0.5440 -0.2837
 4275TIP3   OH234239   0.746   2.351   0.455 -0.0342 -0.4033 -0.3134
 4275TIP3    H134240   0.779   2.357   0.544 -0.7788  1.8304 -0.1206
 4275TIP3    H234241   0.795   2.417   0.407 -1.7832  0.5892 -0.8086
 4276TIP3   OH234242   2.087   0.446   4.337 -0.0026 -0.0627 -0.4561
 4276TIP3    H134243   2.148   0.444   4.411 -0.2975 -1.8013 -0.2159
 4276TIP3    H234244   2.140   0.422   4.262  0.0252  0.4243 -0.5937
 4277TIP3   OH234245   5.384   5.241   0.071 -0.2973 -0.2978 -0.4224
 4277TIP3    H134246   5.440   5.177   0.027 -0.6086 -0.2983 -0.8350
 4277TIP3    H234247   5.295   5.216   0.045 -0.3861  0.7068 -1.1610
 4278TIP3   OH234248   0.206   3.762   4.931 -0.2960 -0.0756 -0.1958
 4278TIP3    H134249   0.245   3.783   4.846  1.1933 -1.8407 -0.0043
 4278TIP3    H234250   0.185   3.668   4.926 -1.0656 -0.0050  1.0677
 4279TIP3   OH234251   2.735   4.407  13.338  0.2250 -0.1310 -0.0501
 4279TIP3    H134252   2.810   4.347  13.336  0.0269 -0.4034  0.4016
 4279TIP3    H234253   2.759   4.478  13.279  0.7178 -0.3623 -0.1328
 4280TIP3   OH234254   6.235   4.528   3.080 -0.1429 -0.0461  0.7032
 4280TIP3    H134255   6.147   4.560   3.098  0.3048  1.8160 -0.2030
 4280TIP3    H234256   6.285   4.606   3.057  1.8200 -1.0125  1.4099
 4281TIP3   OH234257   0.679   4.955   2.288 -0.0890 -0.0120  0.1819
 4281TIP3    H134258   0.619   4.913   2.227 -0.8229  0.1777  0.7571
 4281TIP3    H234259   0.696   5.041   2.250 -2.5411  1.1386  1.4105
 4282TIP3   OH234260   3.700   3.702  15.289  0.6201  0.3874  0.1183
 4282TIP3    H134261   3.610   3.733  15.282  1.0251  1.5478 -0.2544
 4282TIP3    H234262   3.723   3.715  15.381  0.9375  1.6964 -0.1278
 4283TIP3   OH234263   3.146   5.505  11.543  0.4845  0.1801  0.6215
 4283TIP3    H134264   3.201   5.435  11.577 -0.2819 -1.0006 -0.4627
 4283TIP3    H234265   3.206   5.578  11.528  1.3260 -0.2909  1.6187
 4284TIP3   OH234266   3.179   2.914  12.551  0.4813  0.0811  0.3560
 4284TIP3    H134267   3.125   2.910  12.629  1.6177 -0.6673  1.1230
 4284TIP3    H234268   3.212   2.825  12.538  1.9060  0.5907  0.1992
 4285TIP3   OH234269   2.684   1.750  16.120  0.1604  0.1170 -0.3202
 4285TIP3    H134270   2.654   1.708  16.039 -1.2366 -1.1040  0.7736
 4285TIP3    H234271   2.665   1.843  16.107 -2.1354 -0.3253 -0.5860
 4286TIP3   OH234272   4.782   0.907   4.996 -0.5715 -0.3121 -0.6426
 4286TIP3    H134273   4.763   0.814   4.988 -1.1701 -0.5347  2.2901
 4286TIP3    H234274   4.841   0.925   4.923 -1.2870 -2.7172 -1.9301
 4287TIP3   OH234275   1.040   5.361   3.005  0.7870  0.0973  0.5265
 4287TIP3    H134276   0.953   5.350   3.043  1.2254  0.8893  1.8390
 4287TIP3    H234277   1.099   5.318   3.066  1.1823 -2.3652 -1.4283
 4288TIP3   OH234278   0.986   3.151  14.489 -0.7582  0.0481 -0.6903
 4288TIP3    H134279   0.891   3.163  14.477 -0.9785 -2.2410 -1.7711
 4288TIP3    H234280   0.994   3.064  14.529  0.8138  1.2727  1.9261
 4289TIP3   OH234281   6.512   1.243   5.604  0.3514 -0.5715  0.7067
 4289TIP3    H134282   6.509   1.160   5.651 -0.4495 -3.5056 -3.7857
 4289TIP3    H234283   6.425   1.251   5.565  0.3078  2.6391  1.2105
 4290TIP3   OH234284   1.647   5.838   5.080 -0.6331 -0.1564 -0.2458
 4290TIP3    H134285   1.651   5.916   5.025  2.6129  0.7564  1.0324
 4290TIP3    H234286   1.729   5.791   5.063 -0.4267 -0.8913  2.2289
 4291TIP3   OH234287   2.596   5.366   5.563  0.1052  0.1968  0.1639
 4291TIP3    H134288   2.555   5.452   5.554  0.1090  0.2687  0.8451
 4291TIP3    H234289   2.644   5.371   5.645  1.7746  0.2396 -0.7631
 4292TIP3   OH234290   2.018   2.732   2.184  0.0060 -0.1116 -0.7007
 4292TIP3    H134291   2.021   2.661   2.248  1.6517 -0.5886 -1.2594
 4292TIP3    H234292   1.925   2.749   2.172 -0.3899 -1.3789  0.3053
 4293TIP3   OH234293   3.758   4.302  16.776 -0.2635 -0.6101 -0.2612
 4293TIP3    H134294   3.718   4.371  16.830 -1.6722 -2.5040  1.2814
 4293TIP3    H234295   3.689   4.277  16.714 -0.1988 -1.4260 -0.0118
 4294TIP3   OH234296   1.922   4.699  16.105  0.3203 -0.3996  0.6094
 4294TIP3    H134297   1.968   4.770  16.060 -2.5291  0.8745 -0.5581
 4294TIP3    H234298   1.868   4.659  16.037 -0.6976 -1.4454  1.9858
 4295TIP3   OH234299   3.317   2.698  16.895  0.3669  0.0617  0.0242
 4295TIP3    H134300   3.248   2.684  16.829 -0.9921  1.0609  1.1593
 4295TIP3    H234301   3.332   2.792  16.893  1.4102 -0.0957  0.1132
 4296TIP3   OH234302   0.046   6.695  16.604 -0.3965  0.4672  0.0661
 4296TIP3    H134303   0.085   6.731  16.684  1.4776  1.4139 -1.2050
 4296TIP3    H234304   0.092   6.612  16.590 -1.7549 -0.4534  0.6843
 4297TIP3   OH234305   5.613   2.796  14.053  0.1675  0.2079  0.4803
 4297TIP3    H134306   5.701   2.787  14.090  0.2099  0.5529  0.4673
 4297TIP3    H234307   5.598   2.890  14.048  1.1234  0.2936 -2.6616
 4298TIP3   OH234308   4.912   1.504   5.785  0.0501 -0.2493 -0.4190
 4298TIP3    H134309   4.967   1.428   5.769  1.5994  0.4913  1.0081
 4298TIP3    H234310   4.939   1.535   5.872 -0.8578  1.6236 -0.7458
 4299TIP3   OH234311   2.949   3.527   0.870 -0.5659 -0.1193 -0.1343
 4299TIP3    H134312   2.902   3.445   0.887  0.8242 -0.5693  1.9278
 4299TIP3    H234313   2.963   3.565   0.957  0.7175  1.2076 -0.8707
 4300TIP3   OH234314   3.170   3.920   0.477  0.2761 -0.2360 -0.0881
 4300TIP3    H134315   3.085   3.916   0.521  0.1278  0.0203 -0.3491
 4300TIP3    H234316   3.203   3.830   0.479 -0.2595 -0.4426 -0.5068
 4301TIP3   OH234317   4.941   3.968  16.390 -0.0106 -0.0345  0.0329
 4301TIP3    H134318   4.996   4.045  16.370  1.2508 -0.6750  0.8947
 4301TIP3    H234319   4.970   3.902  16.327  0.2563 -0.3861  0.5154
 4302TIP3   OH234320   6.056   0.579   5.375  0.3084  0.5067  0.3963
 4302TIP3    H134321   5.997   0.536   5.313  2.0711  0.2588 -1.2084
 4302TIP3    H234322   6.001   0.598   5.451 -1.7221 -0.0469 -0.8454
 4303TIP3   OH234323   5.514   4.025   5.749  0.2474 -0.3553  0.6039
 4303TIP3    H134324   5.574   4.079   5.800  0.7804  0.0747 -0.4430
 4303TIP3    H234325   5.571   3.966   5.700  0.0201  1.4394 -2.0087
 4304TIP3   OH234326   0.145   4.209  11.877 -0.0903  0.2742 -0.1689
 4304TIP3    H134327   0.066   4.179  11.923  0.8061 -1.1045  0.5553
 4304TIP3    H234328   0.197   4.129  11.865  2.1454  1.4153  1.2617
 4305TIP3   OH234329   2.082   1.055  14.005  0.1066  0.1679  0.1018
 4305TIP3    H134330   2.078   0.961  14.024  1.0701 -0.2005 -1.3282
 4305TIP3    H234331   2.173   1.069  13.976  0.0186  1.5815  0.4733
 4306TIP3   OH234332   5.638   6.494  16.610  0.5694  0.3931  0.0700
 4306TIP3    H134333   5.725   6.460  16.590  0.8832  1.2355 -0.0661
 4306TIP3    H234334   5.633   6.577  16.562 -0.6194 -0.0180 -0.5816
 4307TIP3   OH234335   1.120   3.662   3.101  0.9564 -0.0166  0.0205
 4307TIP3    H134336   1.067   3.729   3.145  0.4612  2.2255 -3.5537
 4307TIP3    H234337   1.058   3.616   3.045  2.0876 -0.2880 -1.0362
 4308TIP3   OH234338   0.109   1.244   4.672 -0.2245  0.6101 -0.5002
 4308TIP3    H134339   0.083   1.241   4.580  1.0484 -1.4817 -0.8619
 4308TIP3    H234340   0.173   1.315   4.677 -0.1206  0.5757 -1.2810
 4309TIP3   OH234341   6.698   5.445  13.819  0.0786 -0.5602 -0.3715
 4309TIP3    H134342   6.618   5.446  13.871  1.0730  1.5868  1.2513
 4309TIP3    H234343   6.678   5.501  13.744  0.3945  0.9912  0.6643
 4310TIP3   OH234344   4.159   0.787   4.316  0.0229 -0.0935  0.0224
 4310TIP3    H134345   4.127   0.771   4.227  2.1463 -0.5773 -0.7147
 4310TIP3    H234346   4.170   0.882   4.320  0.1889 -0.0955 -0.3301
 4311TIP3   OH234347   2.437   5.837   2.855 -1.0670  0.1850  0.7582
 4311TIP3    H134348   2.381   5.799   2.923  0.5376  2.5747  3.6741
 4311TIP3    H234349   2.387   5.910   2.821 -0.7698  0.7638  1.5293
 4312TIP3   OH234350   2.000   1.633   4.287  0.7956 -0.0315  0.1137
 4312TIP3    H134351   2.048   1.597   4.362  0.5835  0.8013  0.6706
 4312TIP3    H234352   1.977   1.722   4.315 -0.7487 -0.2797 -0.2709
 4313TIP3   OH234353   2.747   5.167  11.804  0.2743 -0.4193 -0.2642
 4313TIP3    H134354   2.706   5.243  11.846 -0.1051 -0.0793 -1.2274
 4313TIP3    H234355   2.680   5.099  11.807  0.8113 -0.9109  1.1046
 4314TIP3   OH234356   1.112   0.190  11.344  0.2803  0.3437  0.3075
 4314TIP3    H134357   1.098   0.140  11.263 -2.0096 -0.1162  0.9221
 4314TIP3    H234358   1.199   0.163  11.374  0.6752 -0.3825 -1.3691
 4315TIP3   OH234359   0.297   6.217  11.148  0.3147 -0.9165 -0.3974
 4315TIP3    H134360   0.286   6.144  11.209 -1.0220 -0.4395 -0.0373
 4315TIP3    H234361   0.359   6.185  11.083 -0.5637 -2.5277 -0.4916
 4316TIP3   OH234362   1.576   1.759  16.174 -0.1096 -0.0086  0.0675
 4316TIP3    H134363   1.528   1.697  16.229 -3.0759  0.7766 -1.4395
 4316TIP3    H234364   1.591   1.711  16.092  0.4465  0.2514  0.0122
 4317TIP3   OH234365   0.810   2.760  16.145  0.3071  0.1578 -0.3377
 4317TIP3    H134366   0.749   2.758  16.072  0.1243  1.6475 -0.2589
 4317TIP3    H234367   0.776   2.694  16.206  0.2569 -0.8430 -1.3988
 4318TIP3   OH234368   3.853   1.356  12.854 -0.7072 -0.0865  0.2893
 4318TIP3    H134369   3.784   1.292  12.836  0.2170 -0.7218 -1.1597
 4318TIP3    H234370   3.924   1.305  12.892 -0.2633  0.2133 -0.1288
 4319TIP3   OH234371   6.251   0.614  12.369  0.3342  0.1657 -0.5597
 4319TIP3    H134372   6.162   0.580  12.382  0.0241  1.2025  0.1366
 4319TIP3    H234373   6.268   0.667  12.446  1.0977  0.9587 -1.2503
 4320TIP3   OH234374   3.945   2.597  13.833 -0.0047 -0.7248 -0.4348
 4320TIP3    H134375   3.877   2.656  13.866  0.2073 -0.4981 -0.3991
 4320TIP3    H234376   4.027   2.644  13.849  0.1277 -0.7855 -0.9211
 4321TIP3   OH234377   6.265   3.890   2.085  0.0768  0.5171  0.3128
 4321TIP3    H134378   6.281   3.826   2.155 -1.3254 -0.5067 -0.2645
 4321TIP3    H234379   6.289   3.974   2.124  0.9553 -0.2165  1.4405
 4322TIP3   OH234380   4.696   3.048   0.427  0.4717 -0.0446  0.2730
 4322TIP3    H134381   4.739   3.113   0.484  0.4581 -2.9625  4.0011
 4322TIP3    H234382   4.759   2.976   0.421 -0.2145 -0.5349 -2.2214
 4323TIP3   OH234383   3.480   5.134  11.311 -0.6034 -0.1621  0.0943
 4323TIP3    H134384   3.481   5.043  11.281  4.2106 -0.2892 -0.2706
 4323TIP3    H234385   3.437   5.132  11.396 -2.6815 -2.2602 -0.9053
 4324TIP3   OH234386   5.796   4.231   5.047  0.2843 -0.2227  0.4449
 4324TIP3    H134387   5.787   4.278   4.964  1.6048  0.0228  0.4217
 4324TIP3    H234388   5.713   4.185   5.057  0.3156 -0.7814 -1.3425
 4325TIP3   OH234389   6.162   1.758  16.892 -0.3127  0.0717 -0.2640
 4325TIP3    H134390   6.168   1.815  16.969  1.5167 -0.0294 -0.2800
 4325TIP3    H234391   6.204   1.809  16.823  0.4942 -0.9120 -0.5103
 4326TIP3   OH234392   4.199   5.367   1.702  0.4693 -0.1703 -0.6869
 4326TIP3    H134393   4.217   5.440   1.643 -1.1534  1.1433  0.3353
 4326TIP3    H234394   4.128   5.319   1.658  0.6182 -0.3579 -0.7239
 4327TIP3   OH234395   1.617   5.116  16.694 -0.3266  0.2730  0.3675
 4327TIP3    H134396   1.580   5.035  16.657  0.8004  0.1890 -0.6530
 4327TIP3    H234397   1.695   5.087  16.740  0.1018  0.7866 -0.0351
 4328TIP3   OH234398   6.305   5.627   4.119  0.3378  0.2742  0.3108
 4328TIP3    H134399   6.237   5.570   4.153  1.1701  0.0218  1.6273
 4328TIP3    H234400   6.293   5.710   4.166  0.1076  0.6916 -0.4546
 4329TIP3   OH234401   3.037   1.929  17.382  0.4001 -0.1832 -0.9167
 4329TIP3    H134402   3.049   2.013  17.339 -1.9539  0.9924  0.5321
 4329TIP3    H234403   3.094   1.933  17.459  0.9050 -0.2802 -1.2797
 4330TIP3   OH234404   1.155   3.153   3.567 -0.7133 -0.3247 -0.4726
 4330TIP3    H134405   1.156   3.202   3.650 -0.2490 -1.4562  0.2186
 4330TIP3    H234406   1.084   3.193   3.517 -0.7105  0.6858  0.2793
 4331TIP3   OH234407   2.088   6.127  16.719  0.0220  0.8931 -1.1724
 4331TIP3    H134408   2.130   6.117  16.633  2.0805  1.6362 -0.3108
 4331TIP3    H234409   2.110   6.046  16.765  1.4032  1.6788 -0.3873
 4332TIP3   OH234410   3.546   4.662  16.473  0.0581 -0.7934  0.6790
 4332TIP3    H134411   3.580   4.738  16.426 -0.8496 -0.6978  0.1410
 4332TIP3    H234412   3.496   4.700  16.546  0.1670 -0.8978  0.8080
 4333TIP3   OH234413   5.325   3.782   0.682  0.0872 -0.6187 -0.5607
 4333TIP3    H134414   5.279   3.839   0.745  1.8827  1.7807 -1.2781
 4333TIP3    H234415   5.306   3.821   0.597  0.9051 -1.4478 -1.1342
 4334TIP3   OH234416   3.303   4.877  11.746 -0.1929 -0.0644  0.0597
 4334TIP3    H134417   3.265   4.800  11.788  1.3463 -1.5124 -1.0672
 4334TIP3    H234418   3.286   4.865  11.652 -1.1917  1.7326 -0.0377
 4335TIP3   OH234419   3.797   3.778   1.183  0.6741  0.1521 -0.1226
 4335TIP3    H134420   3.704   3.754   1.188  0.6885 -0.2488 -1.3332
 4335TIP3    H234421   3.816   3.775   1.089  2.2527 -1.0893  0.2038
 4336TIP3   OH234422   2.183   5.096  11.516 -0.5240 -0.6204 -1.0104
 4336TIP3    H134423   2.260   5.045  11.491  0.5330 -0.4102  1.5580
 4336TIP3    H234424   2.215   5.186  11.522 -1.4128 -0.2516 -1.5731
 4337TIP3   OH234425   5.448   4.912  15.018 -0.0247  0.0119 -0.0314
 4337TIP3    H134426   5.401   4.972  14.960 -0.4596 -0.3557 -0.0681
 4337TIP3    H234427   5.485   4.969  15.086  1.0760  0.5243 -1.0359
 4338TIP3   OH234428   0.070   3.542   1.512 -0.0717  0.5338 -0.0129
 4338TIP3    H134429   0.110   3.594   1.442 -0.2944  2.5141  1.2595
 4338TIP3    H234430   0.144   3.509   1.563  0.2270 -2.6106 -2.1608
 4339TIP3   OH234431   4.009   0.097  13.546  0.1712 -0.2122  0.2661
 4339TIP3    H134432   3.934   0.038  13.541 -0.0969  0.1562 -0.1357
 4339TIP3    H234433   4.058   0.082  13.465  1.5209 -1.7260  1.2880
 4340TIP3   OH234434   2.956   2.562   0.889 -0.3416 -0.8105  0.0956
 4340TIP3    H134435   2.991   2.473   0.889 -0.8154 -1.0029  0.2803
 4340TIP3    H234436   2.861   2.550   0.891 -0.5131 -0.3141 -2.3788
 4341TIP3   OH234437   3.533   3.830  16.297 -0.2843 -0.0371 -0.3779
 4341TIP3    H134438   3.532   3.921  16.267  3.9666  1.2203  2.4405
 4341TIP3    H234439   3.590   3.785  16.236  0.0230 -0.0665 -0.0699
 4342TIP3   OH234440   1.936   1.035   5.272  0.3572  0.4269 -0.4771
 4342TIP3    H134441   1.968   0.971   5.209  0.6589  0.3445 -0.2386
 4342TIP3    H234442   1.963   1.120   5.236  1.1797  0.3377 -0.0889
 4343TIP3   OH234443   4.156   5.309  14.350  0.3849  0.8017  0.1088
 4343TIP3    H134444   4.231   5.280  14.299 -0.0090  1.0650 -0.6423
 4343TIP3    H234445   4.152   5.404  14.335 -0.4502  0.7000 -0.3506
 4344TIP3   OH234446   0.023   3.864  11.088 -0.8203  0.3043 -0.0309
 4344TIP3    H134447  -0.042   3.837  11.153 -0.6656 -0.1301 -0.0551
 4344TIP3    H234448   0.091   3.797  11.093  0.6679  1.7993  1.4527
 4345TIP3   OH234449   6.218   5.393   5.684 -0.1871  0.6929  0.0506
 4345TIP3    H134450   6.300   5.350   5.709 -0.6629  0.3295  1.0623
 4345TIP3    H234451   6.242   5.485   5.672  0.5106  0.4593 -0.4048
 4346TIP3   OH234452   0.693   3.462  13.135  0.2283  0.1576 -0.1649
 4346TIP3    H134453   0.705   3.405  13.211  0.0624  0.4231  0.0610
 4346TIP3    H234454   0.647   3.408  13.071 -1.1942  0.4480  0.5618
 4347TIP3   OH234455   3.350   3.938  12.344  0.4046 -0.1912  0.0194
 4347TIP3    H134456   3.255   3.943  12.335  0.3466  2.6261  1.1810
 4347TIP3    H234457   3.366   3.946  12.438  1.8033 -2.5416  0.0758
 4348TIP3   OH234458   4.821   0.172   4.965  0.6055  0.1753  0.1487
 4348TIP3    H134459   4.842   0.265   4.977  1.3908 -0.2359  2.4476
 4348TIP3    H234460   4.726   0.169   4.957  0.5774  1.1718  0.0323
 4349TIP3   OH234461   4.458   3.728  15.404 -0.0208  0.1752  0.5508
 4349TIP3    H134462   4.385   3.790  15.408  0.6843  1.1060 -0.5292
 4349TIP3    H234463   4.494   3.739  15.316  0.3184 -1.5665  0.4373
 4350TIP3   OH234464   4.760   5.636   3.375 -0.2749 -0.0121 -0.0343
 4350TIP3    H134465   4.672   5.634   3.339 -0.5093 -2.5303  0.5178
 4350TIP3    H234466   4.812   5.580   3.316  0.8128  0.8797  0.0329
 4351TIP3   OH234467   5.897   2.822  13.897 -0.4784  0.2895 -0.1463
 4351TIP3    H134468   5.899   2.811  13.992 -0.0118  1.7693  0.0393
 4351TIP3    H234469   5.857   2.908  13.884 -1.1319 -0.1626 -1.3316
 4352TIP3   OH234470   2.191   3.880  14.541  0.1688  0.2192 -0.0542
 4352TIP3    H134471   2.137   3.801  14.541  0.8984 -0.3053  1.2692
 4352TIP3    H234472   2.270   3.856  14.493 -0.1605  0.5678 -0.7933
 4353TIP3   OH234473   1.843   4.794   4.184  0.1480 -0.1549 -0.2367
 4353TIP3    H134474   1.769   4.847   4.215  0.4094  0.6483 -0.9584
 4353TIP3    H234475   1.802   4.722   4.136 -0.1632  0.9337 -1.6514
 4354TIP3   OH234476   1.518   1.509  11.995  0.5682  0.7134 -0.0905
 4354TIP3    H134477   1.582   1.548  11.936  0.7418  0.9490  0.2476
 4354TIP3    H234478   1.529   1.415  11.985  0.8641  0.7545 -0.1426
 4355TIP3   OH234479   2.663   5.533   1.031 -0.0365 -0.4982 -0.8684
 4355TIP3    H134480   2.683   5.491   1.115 -0.4511 -1.4555 -1.2309
 4355TIP3    H234481   2.641   5.623   1.053  0.9017 -0.4504 -0.0606
 4356TIP3   OH234482   3.947   1.917   4.372 -0.5999  0.0514  0.0094
 4356TIP3    H134483   4.040   1.925   4.392  0.4030 -1.4925 -3.3266
 4356TIP3    H234484   3.914   2.007   4.374  0.5848  0.5127  2.4452
 4357TIP3   OH234485   2.055   2.691   5.814 -0.1769 -0.0620 -0.0792
 4357TIP3    H134486   2.126   2.686   5.750  2.3627 -0.6493  2.6132
 4357TIP3    H234487   2.003   2.612   5.799 -0.6354  0.6046 -2.3884
 4358TIP3   OH234488   4.001   5.939  13.859  0.2557 -0.4498  0.2715
 4358TIP3    H134489   3.973   5.965  13.772  0.0646  3.8874  1.4227
 4358TIP3    H234490   4.096   5.941  13.856  0.2692  2.0044  0.6341
 4359TIP3   OH234491   5.471   6.099  14.416 -0.0559 -0.1523 -0.1626
 4359TIP3    H134492   5.422   6.179  14.436  0.4039  0.2181 -0.4927
 4359TIP3    H234493   5.457   6.084  14.323  0.7673  0.1772 -0.3472
 4360TIP3   OH234494   1.286   0.996  16.528 -0.0247 -0.0467  0.0419
 4360TIP3    H134495   1.207   0.968  16.482 -0.0099 -1.3756  0.7518
 4360TIP3    H234496   1.309   0.921  16.583  1.1278  0.7150  0.6461
 4361TIP3   OH234497   2.744   1.415   4.682  0.1362 -0.3079  0.1794
 4361TIP3    H134498   2.737   1.494   4.736 -0.5778  1.2762 -2.0973
 4361TIP3    H234499   2.828   1.425   4.636 -0.5709 -0.1695 -1.1204
 4362TIP3   OH234500   5.697   2.301   5.301 -0.4963  0.0764 -0.2248
 4362TIP3    H134501   5.775   2.252   5.326 -0.1135  0.5897 -0.3849
 4362TIP3    H234502   5.731   2.377   5.253 -1.1939 -0.5900 -1.8261
 4363TIP3   OH234503   5.208   4.599  16.897 -0.0701 -0.1919  0.4050
 4363TIP3    H134504   5.303   4.609  16.894 -0.2444  2.2373  0.4908
 4363TIP3    H234505   5.192   4.507  16.875  2.3134 -0.8470  1.1703
 4364TIP3   OH234506   3.009   0.236  15.950 -0.2533 -0.9274 -0.3879
 4364TIP3    H134507   3.067   0.163  15.970  0.6504  0.4017  2.2954
 4364TIP3    H234508   3.000   0.233  15.855  1.6373 -3.1001 -0.6028
 4365TIP3   OH234509   0.109   0.285   5.580  0.7092  0.1436 -0.1034
 4365TIP3    H134510   0.051   0.271   5.505 -0.5201  0.6128  0.7098
 4365TIP3    H234511   0.194   0.253   5.552  0.3561  0.6062 -1.8122
 4366TIP3   OH234512   1.528   3.017   5.318 -0.0995  0.0265 -0.2604
 4366TIP3    H134513   1.506   3.109   5.305 -1.1844 -0.0639  0.7125
 4366TIP3    H234514   1.579   2.993   5.241  1.5153  1.8293  0.1601
 4367TIP3   OH234515   0.611   0.992   3.388 -0.2915  0.3003  1.1789
 4367TIP3    H134516   0.561   0.910   3.390 -1.4689  0.9389 -0.3279
 4367TIP3    H234517   0.702   0.965   3.402 -0.4697 -1.4225 -0.5736
 4368TIP3   OH234518   5.199   0.816   4.835  0.5705  0.3750  0.1065
 4368TIP3    H134519   5.252   0.738   4.851  0.4409  0.2604 -0.0258
 4368TIP3    H234520   5.252   0.869   4.775  1.0934  0.8415  0.9576
 4369TIP3   OH234521   6.479   3.748   0.080  0.4917 -0.2014  0.7888
 4369TIP3    H134522   6.431   3.823   0.115  2.0601  0.8483  0.7636
 4369TIP3    H234523   6.419   3.674   0.091 -0.7812  0.9034  1.5396
 4370TIP3   OH234524   4.082   6.157   1.725 -0.0787  0.1235 -0.1817
 4370TIP3    H134525   4.060   6.159   1.632 -0.8663 -0.6138 -0.0250
 4370TIP3    H234526   4.100   6.249   1.747  0.4457  0.2647 -1.1241
 4371TIP3   OH234527   4.192   1.491  13.713 -0.1617  0.2317  0.0870
 4371TIP3    H134528   4.188   1.441  13.795 -0.7802  0.0945 -0.0222
 4371TIP3    H234529   4.101   1.505  13.689 -0.0080 -0.5462 -1.0705
 4372TIP3   OH234530   1.666   3.168  11.381  0.5677  0.0383  0.4046
 4372TIP3    H134531   1.581   3.187  11.421 -0.9625  1.0486 -3.0226
 4372TIP3    H234532   1.725   3.232  11.419 -0.5949  0.5023  1.5159
 4373TIP3   OH234533   2.636   3.926   1.286 -0.1268  0.0238  0.4141
 4373TIP3    H134534   2.574   3.856   1.270  0.2164 -0.1892  0.0061
 4373TIP3    H234535   2.694   3.892   1.355 -2.0543  1.2161  2.7896
 4374TIP3   OH234536   5.311   3.752   4.032  0.0487 -0.2823  0.3510
 4374TIP3    H134537   5.290   3.689   4.101  0.7154  0.1078  0.9337
 4374TIP3    H234538   5.230   3.761   3.982 -0.8003  0.2512  1.7526
 4375TIP3   OH234539   0.384   5.275  11.600  0.5614 -0.5658 -0.4735
 4375TIP3    H134540   0.347   5.255  11.514  0.2072  1.5454 -0.8706
 4375TIP3    H234541   0.397   5.370  11.598 -2.0670  0.0226  2.8132
 4376TIP3   OH234542   6.041   4.538  17.238 -0.2464  0.1359 -0.0472
 4376TIP3    H134543   5.959   4.574  17.272  0.6872 -0.3881  3.0264
 4376TIP3    H234544   6.048   4.451  17.278  1.8263  0.2005 -0.1588
 4377TIP3   OH234545   4.189   6.538  15.690 -0.4214 -0.3927 -0.4037
 4377TIP3    H134546   4.204   6.462  15.634 -1.2907 -0.4987 -0.5017
 4377TIP3    H234547   4.220   6.612  15.639 -0.1209 -0.6117 -0.5457
 4378TIP3   OH234548   2.781   1.595  12.258  0.1590 -0.0821  0.7041
 4378TIP3    H134549   2.715   1.548  12.309 -0.3779  0.5270  0.5929
 4378TIP3    H234550   2.864   1.571  12.298 -0.1211 -0.9192  0.8081
 4379TIP3   OH234551   6.533   1.644  15.899 -0.1092 -0.2500 -0.6511
 4379TIP3    H134552   6.585   1.660  15.977 -0.7822 -0.7298 -0.0816
 4379TIP3    H234553   6.579   1.574  15.853  0.7631  0.6324 -1.1576
 4380TIP3   OH234554   6.272   0.450   3.662 -0.2477  0.3552  0.1657
 4380TIP3    H134555   6.267   0.489   3.749  0.9895  1.4564 -0.2120
 4380TIP3    H234556   6.364   0.462   3.636  0.0929 -2.3976 -0.2030
 4381TIP3   OH234557   6.353   5.247   2.056 -0.0131  0.3923  0.1119
 4381TIP3    H134558   6.395   5.247   2.142  1.8977 -0.9272 -0.7495
 4381TIP3    H234559   6.279   5.187   2.066 -1.0132  1.7319  1.3000
 4382TIP3   OH234560   1.088   5.635   2.621  0.3486  0.2117  0.1915
 4382TIP3    H134561   1.113   5.546   2.597  0.1935 -0.0900  1.1182
 4382TIP3    H234562   1.136   5.653   2.702  0.4014  0.9807 -0.0039
 4383TIP3   OH234563   4.614   4.451  11.322  0.5589 -0.4431  0.1552
 4383TIP3    H134564   4.676   4.523  11.336 -0.5761  0.3714  1.1986
 4383TIP3    H234565   4.568   4.475  11.242  0.7349 -0.4200  0.0590
 4384TIP3   OH234566   2.011   2.480   1.841  0.6123  0.2859  0.1438
 4384TIP3    H134567   2.053   2.427   1.908 -0.6317  0.3865  1.0419
 4384TIP3    H234568   1.922   2.494   1.874  0.6244  2.1417 -0.4982
 4385TIP3   OH234569   3.299   3.464  15.794  0.2609 -0.1143 -0.3923
 4385TIP3    H134570   3.364   3.494  15.858 -1.8777  4.9814 -0.0811
 4385TIP3    H234571   3.231   3.422  15.846  0.3322  0.4513  0.1675
 4386TIP3   OH234572   0.658   5.117   3.799 -0.0646  0.3120  0.0917
 4386TIP3    H134573   0.687   5.175   3.870 -0.2809 -1.7208  1.9295
 4386TIP3    H234574   0.738   5.092   3.754  0.5803 -1.3357  2.0304
 4387TIP3   OH234575   0.447   0.416   0.007 -0.3956  0.5112 -0.2134
 4387TIP3    H134576   0.360   0.381   0.026  0.1950 -0.7326  0.2967
 4387TIP3    H234577   0.504   0.376   0.072  0.4364  1.9733  0.0052
 4388TIP3   OH234578   2.754   2.104  16.617  0.7115 -0.1910  0.5791
 4388TIP3    H134579   2.815   2.032  16.638  0.6895 -0.6894 -0.9804
 4388TIP3    H234580   2.743   2.099  16.522 -2.8920 -1.0437  0.9083
 4389TIP3   OH234581   0.426   0.785  16.980  0.3688  0.8106  0.3519
 4389TIP3    H134582   0.485   0.710  16.983  0.3530  0.8077  0.6587
 4389TIP3    H234583   0.438   0.829  17.064 -1.1565 -0.0457  1.0737
 4390TIP3   OH234584   6.395   2.560   2.320 -0.1989 -0.0110  0.3241
 4390TIP3    H134585   6.399   2.551   2.225 -1.1823 -2.0859  0.4347
 4390TIP3    H234586   6.345   2.641   2.334 -1.0350 -0.2760 -0.9338
 4391TIP3   OH234587   1.236   6.273  12.427 -0.5195 -0.2103 -0.5366
 4391TIP3    H134588   1.300   6.208  12.454 -0.9043 -0.2961  0.2253
 4391TIP3    H234589   1.165   6.264  12.491 -0.8000  0.6158 -0.7113
 4392TIP3   OH234590   4.599   4.153   4.375  0.1424  0.5268  0.2653
 4392TIP3    H134591   4.567   4.183   4.460 -1.7210 -2.2367  0.6604
 4392TIP3    H234592   4.531   4.094   4.343  1.7361 -0.1139 -2.2165
 4393TIP3   OH234593   1.411   4.595   4.806  0.1808 -0.6770 -0.5713
 4393TIP3    H134594   1.351   4.605   4.880  0.0846  0.3981 -0.7704
 4393TIP3    H234595   1.491   4.639   4.835  0.4437 -1.0189 -0.7773
 4394TIP3   OH234596   4.830   5.900   2.955 -0.1475 -0.0769 -0.2575
 4394TIP3    H134597   4.797   5.811   2.956  1.4438 -0.6903  0.3211
 4394TIP3    H234598   4.752   5.955   2.959 -1.0658 -1.4457  1.8205
 4395TIP3   OH234599   3.112   2.611  17.081 -0.0286 -0.1026 -0.5488
 4395TIP3    H134600   3.179   2.665  17.040  0.5238 -1.6343 -1.7709
 4395TIP3    H234601   3.031   2.631  17.033  0.3492 -0.9326 -1.5700
 4396TIP3   OH234602   4.223   0.844   0.123 -0.7092 -0.2315 -0.6120
 4396TIP3    H134603   4.293   0.866   0.184 -0.4178 -0.6389 -0.7917
 4396TIP3    H234604   4.176   0.773   0.166 -2.0172  1.1074  0.2413
 4397TIP3   OH234605   5.923   1.696   3.220 -0.0208  0.2622 -0.0612
 4397TIP3    H134606   5.836   1.655   3.216 -1.0018  2.1864  0.1157
 4397TIP3    H234607   5.926   1.753   3.143  1.2767 -0.0606 -0.2761
 4398TIP3   OH234608   6.087   3.756   2.945  0.0285 -0.3310 -0.4131
 4398TIP3    H134609   6.152   3.754   3.015  0.8071  0.6434 -1.0714
 4398TIP3    H234610   6.043   3.841   2.955 -0.0730 -0.3215 -0.9068
 4399TIP3   OH234611   5.261   6.281   2.946 -0.6933 -0.3089  0.0194
 4399TIP3    H134612   5.340   6.312   2.901 -0.5394  2.0069  1.7147
 4399TIP3    H234613   5.191   6.296   2.883  0.0186 -1.1605 -1.0165
 4400TIP3   OH234614   3.153   4.004   3.447  0.2964 -0.0999  0.2829
 4400TIP3    H134615   3.080   3.945   3.427  0.2138  0.1549 -0.1627
 4400TIP3    H234616   3.222   3.977   3.388  0.6739 -0.5406  0.9136
 4401TIP3   OH234617   2.774   2.886   1.103 -0.2429  0.6857  0.5701
 4401TIP3    H134618   2.771   2.798   1.141  0.3150  1.2121  1.8674
 4401TIP3    H234619   2.702   2.933   1.144 -1.7793  0.3179 -1.5575
 4402TIP3   OH234620   2.498   3.161  12.657  0.0983  0.0217 -0.5305
 4402TIP3    H134621   2.439   3.096  12.619  0.4316  0.2285 -1.4505
 4402TIP3    H234622   2.441   3.220  12.707 -0.2103 -0.9207  0.2483
 4403TIP3   OH234623   4.054   3.244   4.878 -0.7589  0.1354  0.1559
 4403TIP3    H134624   4.106   3.251   4.797  0.9165  1.5714  1.2607
 4403TIP3    H234625   3.982   3.306   4.866  1.3008  2.8844  0.9252
 4404TIP3   OH234626   2.015   0.032   0.960 -0.7320 -0.4545  0.0309
 4404TIP3    H134627   1.988   0.078   1.040 -1.0985  0.5595 -0.6537
 4404TIP3    H234628   2.055  -0.049   0.991  0.2687  0.4876  1.3063
 4405TIP3   OH234629   6.672   3.664  11.291 -0.0892  0.1361  0.0663
 4405TIP3    H134630   6.624   3.643  11.211  0.7544 -1.7261  0.0180
 4405TIP3    H234631   6.606   3.705  11.348 -0.7838  1.1381 -1.3971
 4406TIP3   OH234632   1.366   4.278   3.570 -0.1207  0.1995  0.1291
 4406TIP3    H134633   1.318   4.229   3.502  0.8300 -1.0459  0.3116
 4406TIP3    H234634   1.304   4.343   3.601 -0.6511  0.7127 -1.8270
 4407TIP3   OH234635   1.896   4.318   2.110 -0.2597 -0.6509 -0.1836
 4407TIP3    H134636   1.902   4.274   2.194  0.1236 -0.6723 -0.2220
 4407TIP3    H234637   1.877   4.409   2.133  0.5649 -0.5050 -0.0400
 4408TIP3   OH234638   4.264   4.858   3.483  0.2942 -0.2426  0.1844
 4408TIP3    H134639   4.260   4.953   3.490  3.2768  0.0795 -0.9726
 4408TIP3    H234640   4.181   4.827   3.520 -0.5265  2.7482  1.0841
 4409TIP3   OH234641   4.166   1.470  14.467  0.2054 -0.1369  0.2400
 4409TIP3    H134642   4.219   1.409  14.416  0.7465  1.3960 -1.1293
 4409TIP3    H234643   4.174   1.440  14.557 -0.9861 -3.1125 -0.5323
 4410TIP3   OH234644   2.133   5.284  16.636  0.2663  0.2274  0.0811
 4410TIP3    H134645   2.047   5.325  16.648  0.8569  2.0424 -1.3904
 4410TIP3    H234646   2.170   5.329  16.559  2.9360  0.2141  1.2607
 4411TIP3   OH234647   2.886   3.241   5.147 -0.2249  0.8107  0.0924
 4411TIP3    H134648   2.851   3.242   5.236 -0.8598  2.1684 -0.1439
 4411TIP3    H234649   2.810   3.253   5.091  0.3355  1.4296 -0.5565
 4412TIP3   OH234650   0.631   4.084   0.896 -0.0274  0.0455 -0.1253
 4412TIP3    H134651   0.657   4.121   0.980 -0.1819 -1.7712  0.7558
 4412TIP3    H234652   0.708   4.035   0.866 -0.9746 -1.9376  0.5264
 4413TIP3   OH234653   6.476   3.656  14.803 -0.2155  0.6217 -0.1235
 4413TIP3    H134654   6.520   3.578  14.837 -1.4640  0.9138  2.4027
 4413TIP3    H234655   6.538   3.693  14.741  2.6779  0.4245  2.4042
 4414TIP3   OH234656   5.095   1.118   1.284 -0.5055  0.3725  0.4615
 4414TIP3    H134657   5.046   1.182   1.336 -0.1086  0.8122  0.3007
 4414TIP3    H234658   5.148   1.171   1.225 -1.4180 -0.1229 -0.8471
 4415TIP3   OH234659   1.050   5.785   5.578 -0.0165  0.3161  0.3322
 4415TIP3    H134660   1.031   5.711   5.520  1.0569 -0.3564  0.8042
 4415TIP3    H234661   1.021   5.756   5.664  0.1503  0.5588  0.4695
 4416TIP3   OH234662   2.342   3.029   1.843  1.0052 -0.6366  0.3039
 4416TIP3    H134663   2.295   2.969   1.786  3.1488 -0.6316 -1.6140
 4416TIP3    H234664   2.333   3.115   1.801  1.7959 -0.4591  0.4738
 4417TIP3   OH234665   4.364   5.032  15.923  0.1762 -0.2351 -0.7422
 4417TIP3    H134666   4.301   5.103  15.914  0.7362  0.0337 -2.9003
 4417TIP3    H234667   4.431   5.067  15.982 -0.9671 -0.0625  0.5215
 4418TIP3   OH234668   3.461   1.296  10.527 -0.2726  0.0683  0.2129
 4418TIP3    H134669   3.449   1.215  10.576 -0.0786 -1.8257 -2.7134
 4418TIP3    H234670   3.373   1.321  10.499  0.0058 -1.0962 -1.8084
 4419TIP3   OH234671   6.724   5.869  12.069  0.1154  0.1385  0.1527
 4419TIP3    H134672   6.815   5.884  12.091  0.3555 -0.6847 -0.2284
 4419TIP3    H234673   6.693   5.951  12.031  1.3136 -0.2460 -1.7478
 4420TIP3   OH234674   5.943   0.487   4.536  0.0996  0.3258 -0.0598
 4420TIP3    H134675   5.939   0.437   4.455  1.6019  1.3677 -0.8098
 4420TIP3    H234676   5.854   0.483   4.571 -0.0780 -1.9566 -0.6219
 4421TIP3   OH234677   3.731   4.714   2.304 -0.2333  0.5591  0.1405
 4421TIP3    H134678   3.679   4.653   2.251 -1.1809 -0.6177  2.2874
 4421TIP3    H234679   3.820   4.680   2.300 -1.0305 -2.2598  2.8189
 4422TIP3   OH234680   0.473   3.288  17.204 -0.1564  0.4724 -0.0276
 4422TIP3    H134681   0.558   3.318  17.172 -0.4138  1.0701 -0.1544
 4422TIP3    H234682   0.493   3.245  17.287  0.3664 -0.0715 -0.4162
 4423TIP3   OH234683   5.263   4.594  13.945  0.5660 -0.0622  0.0925
 4423TIP3    H134684   5.252   4.500  13.963  2.7135 -0.6706 -1.2484
 4423TIP3    H234685   5.261   4.636  14.031 -0.6713 -1.2928  0.7041
 4424TIP3   OH234686   4.972   3.433   2.798  0.1390 -0.0313 -0.2683
 4424TIP3    H134687   4.945   3.484   2.874 -0.7709  0.3186 -0.8165
 4424TIP3    H234688   4.904   3.448   2.733 -0.9551 -3.0351  0.0124
 4425TIP3   OH234689   1.189   2.022  14.800 -0.0155  0.4802 -0.0684
 4425TIP3    H134690   1.195   2.066  14.885 -3.5559 -0.6616  0.9675
 4425TIP3    H234691   1.170   1.930  14.822 -2.1372  0.3619 -1.9796
 4426TIP3   OH234692   2.900   0.306   0.879 -0.2269 -0.3238  0.0672
 4426TIP3    H134693   2.952   0.237   0.921  0.0667 -0.0214  0.2029
 4426TIP3    H234694   2.918   0.295   0.786 -0.1517 -0.4088  0.0912
 4427TIP3   OH234695   0.106   4.786   4.477  0.3896  0.0361 -0.1194
 4427TIP3    H134696   0.156   4.768   4.557  1.5445  1.8620 -0.3835
 4427TIP3    H234697   0.087   4.880   4.482 -1.4426 -0.2533 -0.9481
 4428TIP3   OH234698   5.977   1.670   3.948 -0.0927 -0.5788  0.0532
 4428TIP3    H134699   6.040   1.598   3.940  0.5629 -0.0565  0.3669
 4428TIP3    H234700   5.894   1.634   3.916  0.0280 -1.7255  0.9984
 4429TIP3   OH234701   2.970   6.397  12.350 -0.2473 -0.8008  0.6214
 4429TIP3    H134702   2.875   6.400  12.335 -0.0027 -0.1670 -1.1266
 4429TIP3    H234703   2.989   6.477  12.399 -0.5448 -0.5623  0.3602
 4430TIP3   OH234704   1.286   6.498  12.030 -0.2479  0.6548  0.6053
 4430TIP3    H134705   1.266   6.564  12.096  0.5925  1.1546  0.3686
 4430TIP3    H234706   1.250   6.416  12.066 -0.8126  1.1352  1.1459
 4431TIP3   OH234707   3.049   0.550   3.240 -0.2726 -0.1787  0.0538
 4431TIP3    H134708   3.082   0.559   3.329  0.5869  1.0312 -0.3741
 4431TIP3    H234709   2.971   0.495   3.250  0.5335 -1.1551  1.3707
 4432TIP3   OH234710   3.030   5.758   4.344 -0.3418  0.1437 -0.6704
 4432TIP3    H134711   3.058   5.751   4.436  1.3085  0.5540 -1.1162
 4432TIP3    H234712   3.022   5.852   4.329 -1.3375  0.0565 -0.7568
 4433TIP3   OH234713   5.248   1.247   0.793  0.3574  0.2543  0.4774
 4433TIP3    H134714   5.303   1.306   0.740 -0.8350  0.4839 -0.5644
 4433TIP3    H234715   5.293   1.163   0.789  1.2890  0.7255  0.7026
 4434TIP3   OH234716   3.561   0.642   2.526  0.5139 -0.1617 -0.3887
 4434TIP3    H134717   3.474   0.646   2.487 -1.0864 -0.7985  2.7759
 4434TIP3    H234718   3.600   0.728   2.509 -2.1175  1.4051  0.9421
 4435TIP3   OH234719   3.606   1.612   3.636 -0.1796 -0.1641 -0.3590
 4435TIP3    H134720   3.527   1.658   3.608 -1.0958 -0.5518  1.4729
 4435TIP3    H234721   3.622   1.643   3.725  0.4224 -1.7623  0.1310
 4436TIP3   OH234722   0.628   0.724   4.030 -0.1464 -0.2143  0.2509
 4436TIP3    H134723   0.607   0.643   4.078  0.3319 -1.2897 -1.2803
 4436TIP3    H234724   0.722   0.718   4.014  0.3105  1.6737  1.8765
 4437TIP3   OH234725   5.812   1.781  15.007  0.2412 -0.3360  0.2780
 4437TIP3    H134726   5.904   1.787  14.980  0.0308  0.6415 -0.2786
 4437TIP3    H234727   5.815   1.746  15.095  1.1902  0.1925  0.4708
 4438TIP3   OH234728   5.567   3.214  16.803  0.2966  0.0578  0.5180
 4438TIP3    H134729   5.481   3.247  16.831  0.2768  0.9521 -0.5299
 4438TIP3    H234730   5.596   3.277  16.737  1.6984 -0.3162  0.7518
 4439TIP3   OH234731   5.987   1.971   1.822  0.2539  0.2971  0.3510
 4439TIP3    H134732   5.924   2.026   1.869  1.0868  0.1896  1.6642
 4439TIP3    H234733   6.037   1.928   1.891  1.5897  0.1788 -0.6448
 4440TIP3   OH234734   5.503   6.043   3.248  0.2116 -0.1296 -0.0957
 4440TIP3    H134735   5.589   6.082   3.237 -0.7778  2.3905  0.4413
 4440TIP3    H234736   5.501   6.016   3.340 -0.1097  1.3881  0.3777
 4441TIP3   OH234737   4.214   3.965   5.505 -0.3058 -0.0878  0.1882
 4441TIP3    H134738   4.261   3.911   5.442 -0.8343 -0.8627  0.4504
 4441TIP3    H234739   4.282   4.022   5.543  0.1012  0.0289 -0.6954
 4442TIP3   OH234740   1.780   5.673  12.409 -0.3683  0.2807 -0.3125
 4442TIP3    H134741   1.780   5.724  12.328 -1.7865  0.7496 -0.0590
 4442TIP3    H234742   1.692   5.635  12.412  0.5568 -2.0078 -0.3598
 4443TIP3   OH234743   1.588   0.410  14.119 -0.2487 -0.1501 -0.6209
 4443TIP3    H134744   1.600   0.483  14.059  0.7273 -0.4320 -0.7697
 4443TIP3    H234745   1.504   0.372  14.094 -1.1758  1.3969 -0.0239
 4444TIP3   OH234746   5.992   5.929   6.235  0.1472 -0.1810  0.1280
 4444TIP3    H134747   5.967   5.967   6.319 -1.0749 -3.4943  1.4744
 4444TIP3    H234748   6.047   5.854   6.259 -0.8957 -1.6892 -1.9047
 4445TIP3   OH234749   3.894   5.871  11.096  0.5442 -0.0218  0.1559
 4445TIP3    H134750   3.810   5.825  11.105  1.0335 -0.7209  1.5639
 4445TIP3    H234751   3.875   5.962  11.118  0.1032 -0.1361  0.2514
 4446TIP3   OH234752   2.330   4.268  11.361 -0.0561 -1.0099  0.0570
 4446TIP3    H134753   2.288   4.288  11.445  0.8689 -0.4151  0.3937
 4446TIP3    H234754   2.278   4.316  11.297  0.6014  0.4360  0.5710
 4447TIP3   OH234755   5.935   2.650  16.177 -0.0754  0.1491  0.3447
 4447TIP3    H134756   5.887   2.597  16.114 -0.6962 -0.8970  1.6378
 4447TIP3    H234757   6.024   2.614  16.176 -1.0376 -2.7813  2.9846
 4448TIP3   OH234758   1.764   1.265   0.690  0.0573  0.3574 -0.7133
 4448TIP3    H134759   1.823   1.340   0.682 -0.5689  1.1672  1.4362
 4448TIP3    H234760   1.786   1.226   0.775 -1.7046  0.0027 -0.3646
 4449TIP3   OH234761   1.244   3.629   1.018 -0.1743 -0.3099 -0.3098
 4449TIP3    H134762   1.293   3.574   0.958 -0.8821 -0.3725 -0.8424
 4449TIP3    H234763   1.166   3.578   1.040 -1.3454  0.8415 -1.5966
 4450TIP3   OH234764   6.279   3.305  16.221  0.4162  0.1459  0.1809
 4450TIP3    H134765   6.229   3.227  16.246  1.7853 -1.9253 -2.9249
 4450TIP3    H234766   6.217   3.377  16.227 -0.7409 -0.8926  3.9275
 4451TIP3   OH234767   0.593   5.487  14.553 -0.8409 -0.2285  0.2258
 4451TIP3    H134768   0.510   5.525  14.525 -0.2446 -0.0556 -1.3991
 4451TIP3    H234769   0.650   5.563  14.567 -0.7203 -0.3787  0.5708
 4452TIP3   OH234770   0.256   2.968  15.239 -0.1943 -0.3689 -0.7700
 4452TIP3    H134771   0.296   2.890  15.278 -2.3802 -0.6461  1.1378
 4452TIP3    H234772   0.197   2.935  15.172 -1.7375 -0.5184  0.5875
 4453TIP3   OH234773   1.709   5.165   4.486  0.1391 -0.6515 -0.0730
 4453TIP3    H134774   1.704   5.160   4.390  1.4061 -0.0127 -0.1972
 4453TIP3    H234775   1.795   5.129   4.507  1.7606  3.0439  0.4209
 4454TIP3   OH234776   1.556   1.967   0.989  0.2244 -0.0752 -0.7444
 4454TIP3    H134777   1.569   1.873   1.001 -1.4600 -0.5640 -2.3198
 4454TIP3    H234778   1.628   2.008   1.038 -0.1420 -2.0783  1.6888
 4455TIP3   OH234779   4.329   6.196  15.293 -0.2924  0.1425  0.1916
 4455TIP3    H134780   4.302   6.128  15.231  0.8815  1.5348 -1.9653
 4455TIP3    H234781   4.425   6.190  15.294 -0.2639  0.5690  1.4332
 4456TIP3   OH234782   0.323   2.032   2.069 -0.2257  0.4694  0.1309
 4456TIP3    H134783   0.317   2.124   2.043  1.7870  0.2264 -1.3833
 4456TIP3    H234784   0.263   1.987   2.009  2.4409  0.2502 -2.5545
 4457TIP3   OH234785   1.650   5.239  17.035  0.6577 -0.2981  0.1973
 4457TIP3    H134786   1.562   5.225  17.001 -0.0979 -0.9874  2.2718
 4457TIP3    H234787   1.707   5.189  16.976 -0.4661 -0.8195 -0.4823
 4458TIP3   OH234788   1.724   1.076  15.752 -0.3930  0.1192  0.0022
 4458TIP3    H134789   1.676   1.021  15.814  0.9884 -0.7930  0.3266
 4458TIP3    H234790   1.667   1.150  15.736 -0.8750  0.3206  2.2851
 4459TIP3   OH234791   4.856   0.053  14.277 -0.5358  0.5475 -0.6678
 4459TIP3    H134792   4.808   0.017  14.202 -0.0766  0.3014 -0.8520
 4459TIP3    H234793   4.829  -0.000  14.351  0.0909 -0.1527 -0.9265
 4460TIP3   OH234794   4.365   0.135  11.865  0.4854  0.4414 -0.4367
 4460TIP3    H134795   4.453   0.099  11.858  0.6833  1.1130 -1.6910
 4460TIP3    H234796   4.374   0.227  11.842 -0.4329  0.6851  0.1223
 4461TIP3   OH234797   1.738   2.814   1.610  0.4863 -0.2936  0.5125
 4461TIP3    H134798   1.655   2.857   1.629  1.0717  1.7143 -1.0051
 4461TIP3    H234799   1.719   2.721   1.614 -1.9760  0.1057 -0.3201
 4462TIP3   OH234800   4.872   6.737  11.454  0.8406  0.8456 -0.1988
 4462TIP3    H134801   4.907   6.818  11.491  0.9207 -0.1245  2.0385
 4462TIP3    H234802   4.944   6.700  11.404  1.5172  1.1348  0.5386
 4463TIP3   OH234803   1.590   0.224   4.525  0.1278 -0.2216 -0.8799
 4463TIP3    H134804   1.546   0.140   4.512 -0.3352 -0.0349 -0.5361
 4463TIP3    H234805   1.612   0.253   4.436  0.1179 -0.6102 -1.0128
 4464TIP3   OH234806   3.430   0.846   5.762 -0.4595 -0.1207 -0.1133
 4464TIP3    H134807   3.440   0.870   5.854  0.5782  0.2718 -0.3212
 4464TIP3    H234808   3.387   0.921   5.723  0.0596  0.1513 -0.1613
 4465TIP3   OH234809   5.763   3.342   4.131  0.5371 -0.1186 -0.3035
 4465TIP3    H134810   5.741   3.309   4.044 -2.1284  3.3919 -1.1920
 4465TIP3    H234811   5.855   3.367   4.125  1.1245 -2.2468 -1.1922
 4466TIP3   OH234812   1.435   1.618  14.770  0.3169  0.1928  0.3621
 4466TIP3    H134813   1.511   1.600  14.827  1.2264  1.2895 -0.4571
 4466TIP3    H234814   1.459   1.697  14.722 -1.1094  0.2107 -0.3781
 4467TIP3   OH234815   4.050   5.209   3.231  0.2301  0.4302 -0.2825
 4467TIP3    H134816   4.083   5.262   3.304 -0.7096 -0.0666  0.5237
 4467TIP3    H234817   4.124   5.153   3.208  0.7832  1.1171 -0.2167
 4468TIP3   OH234818   3.466   2.705  15.398 -0.5586  1.0004 -0.1926
 4468TIP3    H134819   3.508   2.688  15.313  1.0363  0.8347  0.5865
 4468TIP3    H234820   3.374   2.717  15.377 -0.4356 -0.3820 -1.8055
 4469TIP3   OH234821   3.810   0.999  14.871  0.5859 -0.0665  0.6222
 4469TIP3    H134822   3.812   0.910  14.837  0.3678 -0.2007  0.9514
 4469TIP3    H234823   3.860   0.994  14.953  1.7682  0.4143 -0.0437
 4470TIP3   OH234824   2.853   5.695   1.394 -0.0203  0.0529 -0.2275
 4470TIP3    H134825   2.787   5.715   1.459 -1.0388 -0.4897 -1.0698
 4470TIP3    H234826   2.809   5.639   1.330  1.4884 -1.1189 -0.3242
 4471TIP3   OH234827   3.788   1.845   5.897  0.1232  0.6046 -0.0462
 4471TIP3    H134828   3.737   1.851   5.978 -0.4310 -1.6332 -0.1871
 4471TIP3    H234829   3.770   1.928   5.852 -1.4626  0.8816  1.0189
 4472TIP3   OH234830   0.658   5.405   4.720 -0.3811  0.2873  0.2731
 4472TIP3    H134831   0.567   5.377   4.731 -0.4354 -0.4065 -1.6272
 4472TIP3    H234832   0.656   5.499   4.738 -2.0561  0.8596 -2.2689
 4473TIP3   OH234833   1.292   3.456   3.167 -0.2904 -0.4523 -0.2893
 4473TIP3    H134834   1.243   3.536   3.149  0.2417 -0.5171 -2.3011
 4473TIP3    H234835   1.258   3.392   3.104  0.8176 -1.1621 -0.1938
 4474TIP3   OH234836   6.726   5.477   5.616  0.3177  0.6401 -0.2190
 4474TIP3    H134837   6.634   5.476   5.591  0.1465  0.4673  0.3945
 4474TIP3    H234838   6.730   5.537   5.691  0.1583 -1.6056  1.7009
 4475TIP3   OH234839   5.511   2.051  14.947 -0.0711  0.4588 -0.2757
 4475TIP3    H134840   5.485   1.994  14.875 -0.9664 -0.0714  0.4488
 4475TIP3    H234841   5.440   2.115  14.954  0.4254  1.0402 -0.4055
 4476TIP3   OH234842   2.841   0.698   4.445  0.0107 -0.1600 -0.1983
 4476TIP3    H134843   2.891   0.663   4.519 -0.0225 -0.2888 -0.2368
 4476TIP3    H234844   2.813   0.784   4.474 -0.1446 -0.2784  0.0047
 4477TIP3   OH234845   1.766   1.530  11.574 -0.1840  0.1647 -0.5351
 4477TIP3    H134846   1.725   1.487  11.498  0.3986 -0.1497 -0.6791
 4477TIP3    H234847   1.848   1.564  11.540  0.4535 -0.6549  0.1256
 4478TIP3   OH234848   5.521   6.460  13.755 -0.0771  0.1123 -0.1789
 4478TIP3    H134849   5.583   6.430  13.821  0.0927 -2.1018 -1.2494
 4478TIP3    H234850   5.484   6.379  13.718 -0.2815  1.2509 -2.6626
 4479TIP3   OH234851   3.904   3.117  16.005  0.3290  0.6024 -0.0859
 4479TIP3    H134852   3.815   3.120  16.039  0.2289  3.8668 -0.3680
 4479TIP3    H234853   3.894   3.090  15.914 -0.2256 -0.0596  0.1579
 4480TIP3   OH234854   3.978   0.500  11.006  0.0177  0.1149  0.1936
 4480TIP3    H134855   3.900   0.446  10.992 -0.4870  1.0652 -0.8774
 4480TIP3    H234856   3.947   0.590  10.996  1.0443  0.5618  0.8654
 4481TIP3   OH234857   2.813   3.055   2.872  0.2011  0.5055 -0.4445
 4481TIP3    H134858   2.754   3.126   2.846 -1.3464 -0.6552 -0.2440
 4481TIP3    H234859   2.795   3.042   2.965 -1.3361 -1.7061 -0.9717
 4482TIP3   OH234860   1.192   4.147  15.823 -0.0079  0.1909  0.5539
 4482TIP3    H134861   1.101   4.119  15.830 -0.3860  1.1317 -0.3833
 4482TIP3    H234862   1.193   4.207  15.749  2.0243 -2.3377 -1.6374
 4483TIP3   OH234863   2.307   1.000   2.293  0.1458  0.5941 -0.0605
 4483TIP3    H134864   2.323   1.079   2.344  2.8330 -0.7276  1.3773
 4483TIP3    H234865   2.391   0.982   2.251 -0.4529 -1.3689 -0.4968
 4484TIP3   OH234866   1.072   0.060   2.808 -0.0623 -0.0563  0.4801
 4484TIP3    H134867   1.083   0.145   2.766  1.2854  0.2913  1.5070
 4484TIP3    H234868   0.979   0.057   2.832 -0.0447  1.2581  0.7485
 4485TIP3   OH234869   1.810   1.956  16.496 -0.5357 -0.5132  0.5359
 4485TIP3    H134870   1.781   1.890  16.559  3.6667 -0.5628  2.7758
 4485TIP3    H234871   1.841   1.905  16.421 -0.9116 -0.8035  0.5741
 4486TIP3   OH234872   4.035   1.766   4.817 -0.3578 -0.0309  0.4454
 4486TIP3    H134873   3.953   1.786   4.771 -0.6519 -1.5736  0.2333
 4486TIP3    H234874   4.007   1.714   4.893  0.4799 -1.3750 -0.1365
 4487TIP3   OH234875   1.301   2.135   5.841 -0.0443  0.3000  0.2933
 4487TIP3    H134876   1.312   2.191   5.918  0.8862  0.9479 -0.2934
 4487TIP3    H234877   1.257   2.057   5.875  1.8704 -0.1918  1.8444
 4488TIP3   OH234878   0.824   5.571   3.874  0.0470 -0.0184  0.4104
 4488TIP3    H134879   0.888   5.555   3.804 -2.0841 -0.9531 -1.4389
 4488TIP3    H234880   0.747   5.604   3.828 -0.8134  1.1473  2.5769
 4489TIP3   OH234881   0.494   0.906   0.883  0.3085  0.1097  0.4719
 4489TIP3    H134882   0.483   0.822   0.927 -0.0660 -0.8884 -1.4117
 4489TIP3    H234883   0.526   0.965   0.951  0.4960 -1.5212  1.8650
 4490TIP3   OH234884   5.212   6.370   1.732 -0.0406 -0.2090  0.7132
 4490TIP3    H134885   5.288   6.370   1.789  0.0008 -1.3234  0.6853
 4490TIP3    H234886   5.248   6.374   1.643 -0.0421 -0.0304  0.7207
 4491TIP3   OH234887   4.065   5.837  17.242 -0.9501  0.0679  0.3741
 4491TIP3    H134888   4.118   5.917  17.234 -0.6356 -0.1399  0.3730
 4491TIP3    H234889   4.127   5.770  17.269 -0.8573 -0.5753 -1.2875
 4492TIP3   OH234890   6.096   5.501   1.041 -0.3998 -0.3730  0.0148
 4492TIP3    H134891   6.184   5.486   1.007 -0.8824 -1.5397 -0.7584
 4492TIP3    H234892   6.051   5.549   0.972 -1.3290 -2.5981 -1.0313
 4493TIP3   OH234893   6.575   0.964   3.675  0.2322  0.0917 -0.1102
 4493TIP3    H134894   6.613   0.900   3.735  0.6778 -0.2010 -0.7016
 4493TIP3    H234895   6.551   0.913   3.597 -0.8106  0.3762  0.0024
 4494TIP3   OH234896   6.226   3.058   4.233  0.1460 -0.0017 -0.7723
 4494TIP3    H134897   6.306   3.024   4.273 -0.6955  0.0559  1.0855
 4494TIP3    H234898   6.155   3.016   4.282 -0.9813 -0.3342 -2.6185
 4495TIP3   OH234899   2.443   0.383   2.882 -0.0725  0.2326 -0.6997
 4495TIP3    H134900   2.418   0.471   2.910  0.7338  0.9292 -2.0677
 4495TIP3    H234901   2.401   0.325   2.945  0.0566  1.6217  0.7229
 4496TIP3   OH234902   6.526   3.459   6.323  0.4751  0.6989 -0.3993
 4496TIP3    H134903   6.598   3.499   6.371  0.4344 -1.0365  1.2188
 4496TIP3    H234904   6.481   3.404   6.388 -0.6498 -0.3746 -2.0079
 4497TIP3   OH234905   2.093   6.164   2.173  0.0339 -0.0886 -0.3837
 4497TIP3    H134906   2.032   6.208   2.113  1.3433  0.3983 -1.4007
 4497TIP3    H234907   2.169   6.143   2.119  1.0061 -0.1832  0.9699
 4498TIP3   OH234908   3.763   5.778   4.183  0.0844 -0.1024 -0.3842
 4498TIP3    H134909   3.728   5.833   4.113 -0.7099  0.4733  0.4404
 4498TIP3    H234910   3.710   5.698   4.179  0.7130 -0.4964 -1.0744
 4499TIP3   OH234911   5.753   4.122   1.863 -0.0286  0.1160  0.2946
 4499TIP3    H134912   5.671   4.153   1.824  0.5063 -0.7367 -1.5818
 4499TIP3    H234913   5.735   4.032   1.889  0.3162 -0.0739 -0.1246
 4500TIP3   OH234914   4.114   5.902  16.926  0.3107  0.1953 -0.0263
 4500TIP3    H134915   4.095   5.995  16.914 -0.4574 -0.1724 -2.2881
 4500TIP3    H234916   4.028   5.860  16.924  0.6242 -0.5653  1.2633
 4501TIP3   OH234917   1.572   4.000  14.048  0.1339  0.3359 -0.0391
 4501TIP3    H134918   1.579   3.906  14.032 -1.2944 -0.0788  1.5248
 4501TIP3    H234919   1.564   4.038  13.960  1.5729 -0.8823 -0.7521
 4502TIP3   OH234920   4.757   0.059   0.538 -0.3617 -0.2979 -0.1125
 4502TIP3    H134921   4.824   0.121   0.567 -1.6700  1.3954 -0.5543
 4502TIP3    H234922   4.784  -0.025   0.576  0.1466  1.0060  2.6311
 4503TIP3   OH234923   0.365   4.362  11.158 -0.0816 -0.0500 -0.2685
 4503TIP3    H134924   0.290   4.381  11.215  0.0950 -0.1420 -0.0028
 4503TIP3    H234925   0.378   4.443  11.108 -2.5404 -1.1033 -2.8864
 4504TIP3   OH234926   2.471   0.438  11.661 -0.5641 -0.2478 -0.1589
 4504TIP3    H134927   2.416   0.472  11.732 -0.8104 -1.8046  0.4309
 4504TIP3    H234928   2.417   0.374  11.617  0.5314 -1.3337  0.0185
 4505TIP3   OH234929   6.496   6.481   0.781 -0.2858  0.1145 -0.2463
 4505TIP3    H134930   6.570   6.506   0.725 -0.3920  0.7917 -0.0923
 4505TIP3    H234931   6.531   6.485   0.869 -0.7452  1.3950 -0.0921
 4506TIP3   OH234932   0.071   4.335  12.762 -0.0313  0.1459  0.3943
 4506TIP3    H134933   0.097   4.423  12.791 -2.7047  1.0856  0.1953
 4506TIP3    H234934   0.093   4.334  12.668 -0.9472  1.0499  0.1491
 4507TIP3   OH234935   0.858   4.254  16.555  0.4182  0.6144 -0.4385
 4507TIP3    H134936   0.942   4.208  16.546 -0.6839 -1.2347 -2.2674
 4507TIP3    H234937   0.844   4.295  16.469  0.3050  2.5549  0.4556
 4508TIP3   OH234938   1.253   4.482   6.194  0.2606  0.4561  0.0989
 4508TIP3    H134939   1.194   4.410   6.216  1.9091 -0.9508  0.1961
 4508TIP3    H234940   1.308   4.492   6.271  2.7519 -1.0562 -1.3353
 4509TIP3   OH234941   4.751   4.280  16.348  0.0747  0.8285 -0.3862
 4509TIP3    H134942   4.757   4.319  16.435 -3.4344 -1.2608  0.9993
 4509TIP3    H234943   4.679   4.326  16.305 -1.1893 -1.0812 -0.4071
 4510TIP3   OH234944   6.178   0.900  15.562  0.4555 -0.0553 -0.3237
 4510TIP3    H134945   6.255   0.845  15.575  0.5944  0.1628 -0.2195
 4510TIP3    H234946   6.174   0.955  15.640  0.0516 -0.2343 -0.2112
 4511TIP3   OH234947   4.460   1.202  12.251 -0.1892 -0.8162  0.6517
 4511TIP3    H134948   4.375   1.193  12.208  0.2725 -0.3089 -0.3768
 4511TIP3    H234949   4.489   1.112  12.267 -1.7273 -1.0286  2.6860
 4512TIP3   OH234950   1.350   3.698  12.599 -0.5924  0.0298  0.0035
 4512TIP3    H134951   1.381   3.667  12.514 -0.7826  0.2776 -0.1564
 4512TIP3    H234952   1.396   3.781  12.612 -0.4192 -0.0984  0.2301
 4513TIP3   OH234953   5.661   1.615  12.511 -0.2565  0.3794  0.1615
 4513TIP3    H134954   5.680   1.664  12.591  0.5076  0.9671 -0.3622
 4513TIP3    H234955   5.569   1.634  12.492 -1.1630 -1.6516  2.1641
 4514TIP3   OH234956   6.698   3.762   3.586  0.4012  0.5523  0.7168
 4514TIP3    H134957   6.624   3.703   3.599  1.2469 -0.2736  2.1233
 4514TIP3    H234958   6.665   3.830   3.529 -1.2935 -0.0660  0.9014
 4515TIP3   OH234959   4.666   4.614  16.282  0.3169 -0.6109 -0.3288
 4515TIP3    H134960   4.612   4.537  16.263  1.3358 -1.1505 -1.1521
 4515TIP3    H234961   4.604   4.679  16.314 -0.6395 -1.6176 -0.0547
 4516TIP3   OH234962   4.261   5.207  12.564 -0.1429 -0.3386  0.2881
 4516TIP3    H134963   4.270   5.146  12.637  0.0827 -0.4385  0.1771
 4516TIP3    H234964   4.341   5.195  12.512  0.1196  0.3835  0.5167
 4517TIP3   OH234965   4.560   3.508   2.779  0.0021 -0.0570 -0.2164
 4517TIP3    H134966   4.486   3.448   2.784  0.1204 -0.5437 -2.8385
 4517TIP3    H234967   4.615   3.485   2.854 -1.5562 -0.9620  0.6964
 4518TIP3   OH234968   3.370   5.393   2.334  0.2021 -0.1311 -0.2602
 4518TIP3    H134969   3.289   5.433   2.301  0.4465  0.8244  0.2484
 4518TIP3    H234970   3.433   5.407   2.263  0.4297  0.9147  0.1220
 4519TIP3   OH234971   2.821   6.091  13.770 -0.3801  0.1145  0.1389
 4519TIP3    H134972   2.791   6.043  13.693  0.3476 -0.0064 -0.0816
 4519TIP3    H234973   2.768   6.058  13.842 -2.2156  1.3844 -0.5601
 4520TIP3   OH234974   2.332   2.469  15.425 -0.8993  0.2407  0.2193
 4520TIP3    H134975   2.365   2.456  15.336 -1.3088  1.1862 -0.0823
 4520TIP3    H234976   2.395   2.424  15.481  0.2530  1.0048 -0.4268
 4521TIP3   OH234977   3.472   0.416  13.229 -0.0826  0.2458 -0.1958
 4521TIP3    H134978   3.547   0.361  13.205  0.2944  0.4998  0.3812
 4521TIP3    H234979   3.498   0.458  13.311 -0.4276  1.1706 -0.5468
 4522TIP3   OH234980   3.562   5.078  14.692  0.0331  0.0731 -0.4268
 4522TIP3    H134981   3.533   5.122  14.771 -1.6410 -0.6483 -0.5893
 4522TIP3    H234982   3.599   4.995  14.723  0.1689  0.1669 -0.3394
 4523TIP3   OH234983   2.924   2.919   0.721  0.6394  0.5470 -0.2305
 4523TIP3    H134984   2.911   2.992   0.661  1.3379  0.6550 -0.2571
 4523TIP3    H234985   2.841   2.911   0.768  0.7980  1.8347  0.3052
 4524TIP3   OH234986   2.402   4.583   2.138  0.1030  0.0774 -0.3680
 4524TIP3    H134987   2.393   4.567   2.232 -0.4813 -1.9787 -0.7245
 4524TIP3    H234988   2.313   4.594   2.107  0.1489 -1.0881 -0.9522
 4525TIP3   OH234989   1.662   5.506  14.942  0.2499 -0.4743 -0.3140
 4525TIP3    H134990   1.695   5.426  14.901  0.3749  0.3065 -1.7717
 4525TIP3    H234991   1.594   5.475  15.002  1.1755 -1.7804  0.1121
 4526TIP3   OH234992   3.681   1.193  16.523 -0.6967  0.0220 -0.3645
 4526TIP3    H134993   3.639   1.185  16.437  1.0691 -1.2611 -1.1732
 4526TIP3    H234994   3.737   1.115  16.529  0.7798  1.1367  1.0493
 4527TIP3   OH234995   3.686   3.631   4.872  0.4413  0.6338  0.2387
 4527TIP3    H134996   3.641   3.714   4.856 -1.1465 -0.0792  0.7776
 4527TIP3    H234997   3.778   3.655   4.886 -0.0788  2.3404  0.8698
 4528TIP3   OH234998   3.108   0.665  11.490 -0.3665 -0.7991 -0.0759
 4528TIP3    H134999   3.168   0.603  11.449  0.0094 -1.0730  0.8420
 4528TIP3    H235000   3.150   0.686  11.574 -0.5183  0.6541 -0.3496
 4529TIP3   OH235001   3.129   6.215   2.123 -0.0155 -0.5684 -0.3998
 4529TIP3    H135002   3.209   6.198   2.074  1.1336 -2.0192  1.8251
 4529TIP3    H235003   3.159   6.236   2.211 -2.0827 -1.5111  0.5873
 4530TIP3   OH235004   6.719   5.343  11.234  0.6626  0.4841  0.5219
 4530TIP3    H135005   6.648   5.407  11.245 -0.1347 -0.5262  1.5623
 4530TIP3    H235006   6.735   5.342  11.140 -2.2691 -0.8189 -0.0842
 4531TIP3   OH235007   1.382   5.051  15.426 -0.1189  1.0550 -0.1765
 4531TIP3    H135008   1.370   4.959  15.404 -0.0494  0.1062  3.1823
 4531TIP3    H235009   1.472   5.056  15.459 -0.2184  2.2401 -0.0510
 4532TIP3   OH235010   6.453   5.984  11.488 -0.0518  0.3922  0.2282
 4532TIP3    H135011   6.490   6.065  11.454 -1.6824  1.5475  1.0753
 4532TIP3    H235012   6.499   5.969  11.571 -0.6750  1.2459  0.7529
 4533TIP3   OH235013   5.349   6.065  16.385 -0.7480  0.1601  0.2771
 4533TIP3    H135014   5.435   6.098  16.359 -1.2637  0.1944 -1.5607
 4533TIP3    H235015   5.287   6.121  16.337 -1.7447 -0.7798  0.4414
 4534TIP3   OH235016   4.600   5.383   1.097  0.1781  0.5974 -0.1945
 4534TIP3    H135017   4.521   5.425   1.131 -0.2758  0.0402 -0.5343
 4534TIP3    H235018   4.588   5.290   1.116  1.4584  0.6587  1.1271
 4535TIP3   OH235019   3.549   6.347  13.802 -0.5043  0.6165 -0.2785
 4535TIP3    H135020   3.512   6.322  13.717  0.4301  0.7222 -0.7320
 4535TIP3    H235021   3.477   6.390  13.848 -1.1747  0.0863 -0.8021
 4536TIP3   OH235022   6.279   0.562   5.740 -0.0985  0.3609  0.3156
 4536TIP3    H135023   6.355   0.568   5.799  0.3032  0.0819 -0.1673
 4536TIP3    H235024   6.242   0.476   5.757  1.4863 -0.7755 -1.5727
 4537TIP3   OH235025   6.102   3.299   4.146  0.0833  0.5251 -0.4446
 4537TIP3    H135026   6.149   3.230   4.193 -0.5998 -1.4250 -2.4551
 4537TIP3    H235027   6.059   3.350   4.214  0.9055 -0.8260  1.1470
 4538TIP3   OH235028   0.845   4.921  11.605 -0.1018  0.4218 -0.0682
 4538TIP3    H135029   0.905   4.870  11.660  0.2663 -0.1245 -0.9416
 4538TIP3    H235030   0.763   4.923  11.653  0.7403  1.6168  1.4061
 4539TIP3   OH235031   2.260   0.249   0.477  0.1711 -0.1750  0.4161
 4539TIP3    H135032   2.214   0.202   0.408 -1.2828 -2.2042  2.5798
 4539TIP3    H235033   2.352   0.234   0.460 -0.1189 -0.0692 -1.3940
 4540TIP3   OH235034   2.816   0.779   2.716 -0.3471  0.2582  0.3210
 4540TIP3    H135035   2.880   0.849   2.728 -1.4215  1.3563 -0.1811
 4540TIP3    H235036   2.842   0.736   2.635 -0.9923  1.5647 -0.6092
 4541TIP3   OH235037   3.794   1.320   0.836  0.1927  0.2129  0.1471
 4541TIP3    H135038   3.848   1.317   0.914  0.3923  2.9129  0.2075
 4541TIP3    H235039   3.774   1.228   0.816  3.9560 -0.8654  0.6717
 4542TIP3   OH235040   4.570   1.930  12.892  0.2956 -0.2387 -0.4831
 4542TIP3    H135041   4.511   1.990  12.937  0.8713 -1.7974  2.5853
 4542TIP3    H235042   4.516   1.852  12.877  0.5416 -0.2808 -1.1650
 4543TIP3   OH235043   1.326   3.040   1.139  0.6552 -0.0856 -0.1481
 4543TIP3    H135044   1.278   2.960   1.120  0.8186 -0.3871  0.6741
 4543TIP3    H235045   1.333   3.085   1.055 -0.7213 -0.2217 -0.3540
 4544TIP3   OH235046   0.327   2.503   0.681 -0.2117  0.1241 -0.6358
 4544TIP3    H135047   0.239   2.540   0.680 -0.8678 -1.2672  0.6091
 4544TIP3    H235048   0.382   2.571   0.720 -0.7003  1.0364 -1.5009
 4545TIP3   OH235049   2.939   5.431  17.318 -0.4595  0.1444  0.0413
 4545TIP3    H135050   2.971   5.350  17.278 -0.8854 -0.0361  0.0600
 4545TIP3    H235051   2.930   5.493  17.245 -0.1137  0.1803  0.0302
 4546TIP3   OH235052   5.770   6.412  11.266 -0.8364  0.6820 -0.4361
 4546TIP3    H135053   5.794   6.320  11.269  0.3104  0.8291 -2.4340
 4546TIP3    H235054   5.675   6.413  11.264 -0.8780 -0.4020  0.4994
 4547TIP3   OH235055   3.087   0.058  14.090 -0.5097  0.4624 -0.5701
 4547TIP3    H135056   3.059  -0.027  14.124  0.2528  0.3202 -0.2782
 4547TIP3    H235057   3.026   0.077  14.019 -0.5345 -0.4487 -0.8019
 4548TIP3   OH235058   6.196   6.357   1.430  0.2059 -0.2197  0.2946
 4548TIP3    H135059   6.120   6.340   1.374  1.2883 -0.8587 -1.0295
 4548TIP3    H235060   6.244   6.274   1.431  0.8556  0.1508  1.1797
 4549TIP3   OH235061   6.312   2.229  15.794 -1.1703 -1.1132  1.2828
 4549TIP3    H135062   6.252   2.291  15.834  0.9640  0.9718  1.5145
 4549TIP3    H235063   6.388   2.228  15.853  0.7934 -0.3002 -1.0871
 4550TIP3   OH235064   3.994   3.009   4.584  0.1109 -0.2860 -0.3924
 4550TIP3    H135065   3.902   3.009   4.556  0.8827 -0.0085 -3.2891
 4550TIP3    H235066   4.017   3.102   4.588  0.1309 -0.3356  0.9457
 4551TIP3   OH235067   4.725   3.234   3.024  0.2574  0.4933 -0.2623
 4551TIP3    H135068   4.803   3.202   3.069  0.9789  1.5339 -0.7404
 4551TIP3    H235069   4.685   3.156   2.986 -0.4902 -0.4908  2.2809
 4552TIP3   OH235070   1.991   3.562   3.249 -0.2056 -0.4234  0.4930
 4552TIP3    H135071   1.920   3.599   3.301 -0.1856 -0.5355  0.5995
 4552TIP3    H235072   1.992   3.469   3.272 -1.5785 -0.9229 -1.2540
 4553TIP3   OH235073   6.734   4.154   5.989  0.7569  0.1724  0.0901
 4553TIP3    H135074   6.666   4.189   6.047 -0.5227 -1.2053 -0.5048
 4553TIP3    H235075   6.815   4.164   6.039 -0.1043  0.3326  1.5321
 4554TIP3   OH235076   4.479   5.408  11.679 -0.0943 -0.5158  0.1725
 4554TIP3    H135077   4.498   5.472  11.747  0.7079 -2.3127  1.7403
 4554TIP3    H235078   4.400   5.441  11.636  0.2086  1.4113  0.9941
 4555TIP3   OH235079   1.176   1.452   1.939  0.4588 -0.3408 -0.8122
 4555TIP3    H135080   1.202   1.517   2.005  0.9987 -0.1533 -1.2043
 4555TIP3    H235081   1.191   1.367   1.982  0.3252 -0.2145 -0.5149
 4556TIP3   OH235082   4.783   2.992  15.545  0.6742  0.2293  0.2072
 4556TIP3    H135083   4.720   2.972  15.614  1.3691  1.4005  1.2276
 4556TIP3    H235084   4.859   2.938  15.566  0.7779  0.3710  0.1977
 4557TIP3   OH235085   5.835   1.390   0.245 -0.3295  0.0212 -0.3907
 4557TIP3    H135086   5.863   1.321   0.305 -0.6563  1.3147  1.3371
 4557TIP3    H235087   5.915   1.434   0.219 -0.3205  0.8306  0.8999
 4558TIP3   OH235088   0.304   0.550  15.175 -0.0965 -0.3031  0.7683
 4558TIP3    H135089   0.352   0.476  15.211 -1.1808 -0.1159  2.7082
 4558TIP3    H235090   0.354   0.575  15.097  2.9695 -0.1242  2.6250
 4559TIP3   OH235091   1.016   2.419  15.444 -0.6871 -0.0752  0.0710
 4559TIP3    H135092   0.931   2.403  15.485 -0.5177  0.7384  0.7653
 4559TIP3    H235093   1.054   2.490  15.495  0.3264 -0.2908 -0.3606
 4560TIP3   OH235094   5.247   4.926   1.528 -0.1414 -0.0436 -0.3124
 4560TIP3    H135095   5.221   5.003   1.579  1.1071  0.4908 -0.4333
 4560TIP3    H235096   5.295   4.963   1.453 -0.3532 -0.9024 -0.8815
 4561TIP3   OH235097   3.671   5.229  12.076 -0.5363  0.3155  0.1150
 4561TIP3    H135098   3.692   5.136  12.089  0.6374  0.7680  1.7757
 4561TIP3    H235099   3.743   5.262  12.022 -0.6235  0.3997  0.0514
 4562TIP3   OH235100   5.081   5.559  11.409  0.4576 -0.6416  0.3612
 4562TIP3    H135101   5.149   5.495  11.431  0.1102 -1.2266 -0.2291
 4562TIP3    H235102   5.044   5.583  11.494  0.9895 -0.7752  0.6399
 4563TIP3   OH235103   2.472   5.537   1.447  0.2498 -0.4564 -0.2491
 4563TIP3    H135104   2.381   5.565   1.441  0.5632  0.9674  0.9452
 4563TIP3    H235105   2.468   5.441   1.447 -1.1182 -0.4249 -1.4986
 4564TIP3   OH235106   1.087   2.351  15.801 -0.3251  0.0641 -0.0984
 4564TIP3    H135107   1.005   2.318  15.764 -0.9465  0.0117  1.2656
 4564TIP3    H235108   1.065   2.437  15.836  0.7661  1.0393 -1.6703
 4565TIP3   OH235109   6.065   6.443  15.800 -0.0930 -0.2622  0.1452
 4565TIP3    H135110   6.024   6.485  15.725  1.0568  2.1984  0.7853
 4565TIP3    H235111   5.993   6.430  15.862 -0.7005 -0.4191 -0.5780
 4566TIP3   OH235112   0.688   2.155  12.523  0.5156  0.0116 -0.7342
 4566TIP3    H135113   0.752   2.098  12.567 -1.6003 -0.8282  1.4792
 4566TIP3    H235114   0.631   2.094  12.475  0.8066  0.6702 -1.9474
 4567TIP3   OH235115   4.147   4.044   3.690  0.1541 -0.7410 -0.3017
 4567TIP3    H135116   4.081   4.039   3.759  0.9206 -1.0639  0.4257
 4567TIP3    H235117   4.097   4.065   3.611 -0.5868  1.1576  0.6010
 4568TIP3   OH235118   6.519   4.348   0.221  0.1737  0.3875  0.6852
 4568TIP3    H135119   6.470   4.302   0.289  0.0147  0.4636  0.6237
 4568TIP3    H235120   6.576   4.282   0.183 -0.0090  0.2556  0.6379
 4569TIP3   OH235121   1.150   1.959   3.345  0.1412  0.1511 -0.1805
 4569TIP3    H135122   1.096   1.954   3.424  0.2393  1.3934 -0.0293
 4569TIP3    H235123   1.091   1.994   3.278 -0.0975 -1.3888 -0.8275
 4570TIP3   OH235124   1.059   0.435  11.465  0.1103  0.3117  0.2756
 4570TIP3    H135125   1.039   0.389  11.547  0.8204 -1.2457 -0.3829
 4570TIP3    H235126   1.066   0.365  11.400 -0.1264  1.4958 -1.0588
 4571TIP3   OH235127   3.338   0.586   2.369 -0.5274 -0.0131  0.4696
 4571TIP3    H135128   3.248   0.592   2.401 -0.6564  2.1516 -0.1254
 4571TIP3    H235129   3.329   0.568   2.275 -0.2834 -0.9159  0.6067
 4572TIP3   OH235130   3.000   4.732  11.321 -0.2137 -0.2879 -0.7632
 4572TIP3    H135131   2.991   4.646  11.361  1.4961  0.0914  0.5568
 4572TIP3    H235132   3.041   4.715  11.236  0.6146 -0.7596 -0.2817
 4573TIP3   OH235133   5.947   1.591   1.230 -0.3136  0.4702  0.0851
 4573TIP3    H135134   5.969   1.652   1.160 -1.5621 -1.3657 -2.0177
 4573TIP3    H235135   6.030   1.548   1.252 -0.1971 -0.1812 -1.5416
 4574TIP3   OH235136   1.527   4.600  15.376 -0.3990  0.9740  0.6502
 4574TIP3    H135137   1.528   4.691  15.346 -0.8298  0.5518 -0.7308
 4574TIP3    H235138   1.579   4.553  15.311 -0.9130  0.0990  0.8543
 4575TIP3   OH235139   2.372   4.748   3.075  0.2706  0.0837  0.8180
 4575TIP3    H135140   2.346   4.690   3.146 -0.0885 -0.0267  0.5965
 4575TIP3    H235141   2.425   4.816   3.118  2.3832 -1.4579  0.8085
 4576TIP3   OH235142   4.146   3.000  16.087  0.7473  0.5121 -0.0662
 4576TIP3    H135143   4.080   3.044  16.034  0.1712  0.4582  0.6088
 4576TIP3    H235144   4.097   2.948  16.150  1.4154 -0.9458 -0.7092
 4577TIP3   OH235145   2.406   0.628   0.248 -0.5348  0.3123 -0.6287
 4577TIP3    H135146   2.324   0.584   0.270  0.0448  0.3030  1.7445
 4577TIP3    H235147   2.434   0.586   0.167 -0.7970 -2.6629  0.6908
 4578TIP3   OH235148   4.663   2.772   7.069 -0.7268 -0.1070 -0.0752
 4578TIP3    H135149   4.730   2.718   7.112  0.5910  1.9777  0.6256
 4578TIP3    H235150   4.687   2.771   6.976 -0.1540  0.0314  0.0697
 4579TIP3   OH235151   0.947   0.703   1.637 -0.3522  0.0067  0.3493
 4579TIP3    H135152   1.006   0.719   1.711  1.0934 -0.6272 -0.6147
 4579TIP3    H235153   0.984   0.755   1.565 -2.2974  1.4192  0.2817
 4580TIP3   OH235154   1.821   1.808   5.393  0.1219  0.2999 -0.2764
 4580TIP3    H135155   1.851   1.721   5.367  0.5314  0.3583 -0.0039
 4580TIP3    H235156   1.730   1.811   5.363  0.4386  0.1968 -1.2801
 4581TIP3   OH235157   6.076   3.765   2.344 -0.0027 -0.0481 -0.3732
 4581TIP3    H135158   6.095   3.742   2.435  0.3485  0.4959 -0.3003
 4581TIP3    H235159   5.995   3.817   2.349 -0.0817 -0.1705 -0.3901
 4582TIP3   OH235160   1.170   1.030   1.116  0.2323 -0.3578 -0.3856
 4582TIP3    H135161   1.187   0.980   1.036 -0.0050 -2.1858  0.6477
 4582TIP3    H235162   1.080   1.007   1.140  0.0360  0.7544  0.0289
 4583TIP3   OH235163   2.494   3.486  11.774  0.4479  0.1988 -0.1947
 4583TIP3    H135164   2.484   3.527  11.860  0.8494  0.3489 -0.2185
 4583TIP3    H235165   2.501   3.393  11.792  0.2617  0.2051 -0.0850
 4584TIP3   OH235166   5.781   4.496  12.517 -0.3667  0.2589 -0.8430
 4584TIP3    H135167   5.862   4.482  12.564 -0.3912 -0.8841 -1.1094
 4584TIP3    H235168   5.723   4.425  12.546 -1.4805  1.3748 -0.2271
 4585TIP3   OH235169   4.107   6.020   5.852  0.2287  0.1830 -0.2533
 4585TIP3    H135170   4.098   6.101   5.902 -2.1582 -0.9477  1.3888
 4585TIP3    H235171   4.026   6.015   5.801 -0.1431 -1.5854  0.4344
 4586TIP3   OH235172   0.205   5.938  16.920 -0.3509 -0.2960  0.3151
 4586TIP3    H135173   0.224   5.844  16.916  2.9787  0.2363  0.3982
 4586TIP3    H235174   0.245   5.966  17.002 -0.4288  1.3489 -0.1794
 4587TIP3   OH235175   3.563   4.272   4.541 -1.0983 -0.5704  0.1788
 4587TIP3    H135176   3.599   4.219   4.612  0.5964 -0.6418 -0.6974
 4587TIP3    H235177   3.513   4.211   4.488 -1.8519 -0.6377  0.9498
 4588TIP3   OH235178   3.781   3.982  14.405 -0.3376  0.6731 -0.2010
 4588TIP3    H135179   3.796   3.900  14.452 -0.8840  0.9253  0.4345
 4588TIP3    H235180   3.734   4.037  14.467  1.6071  2.1631  0.0566
 4589TIP3   OH235181   5.658   4.455  11.102 -0.2252  0.5432  0.6478
 4589TIP3    H135182   5.742   4.502  11.104  0.7207 -0.9535 -1.1944
 4589TIP3    H235183   5.604   4.506  11.042  0.4654 -0.1258 -0.5821
 4590TIP3   OH235184   4.391   6.199   5.893 -0.1967  0.3383 -0.3675
 4590TIP3    H135185   4.355   6.285   5.914 -1.0074 -0.4766  1.8176
 4590TIP3    H235186   4.319   6.153   5.850 -0.0842  0.4115 -0.6361
 4591TIP3   OH235187   1.338   2.331   5.398 -0.2169 -0.7400 -0.0631
 4591TIP3    H135188   1.275   2.291   5.458 -0.5264  0.1995  0.2576
 4591TIP3    H235189   1.405   2.370   5.455  0.5903 -1.6048 -0.3988
 4592TIP3   OH235190   3.228   2.956   3.084 -0.7369 -0.2803  0.2500
 4592TIP3    H135191   3.168   3.008   3.031  0.8250 -2.2663 -3.8687
 4592TIP3    H235192   3.309   3.007   3.085 -0.1737 -1.1162 -1.0442
 4593TIP3   OH235193   2.662   0.582   0.404  0.4687 -0.4876 -0.0353
 4593TIP3    H135194   2.648   0.507   0.347  0.3398 -0.1388 -0.4723
 4593TIP3    H235195   2.575   0.606   0.435  0.5255 -0.6030  0.2135
 4594TIP3   OH235196   1.372   4.204   5.238 -0.1567 -0.2923 -0.2325
 4594TIP3    H135197   1.404   4.234   5.323 -0.4906 -0.7002  0.0449
 4594TIP3    H235198   1.360   4.283   5.187 -0.7976  0.0328  0.4017
 4595TIP3   OH235199   0.410   6.121  16.690 -0.0742 -0.3613  0.2039
 4595TIP3    H135200   0.496   6.136  16.729 -0.1930  0.2318  0.2459
 4595TIP3    H235201   0.429   6.098  16.599  0.1743 -1.2369  0.4690
 4596TIP3   OH235202   3.942   0.683   2.508  0.1270  0.4312  0.2589
 4596TIP3    H135203   3.905   0.647   2.588  0.7865 -0.6419  0.0956
 4596TIP3    H235204   3.898   0.635   2.438  0.9101  0.0286  0.0333
 4597TIP3   OH235205   0.398   3.928  12.241 -0.1606  0.0463  0.2828
 4597TIP3    H135206   0.462   3.998  12.225 -0.9337  0.6355 -0.2694
 4597TIP3    H235207   0.428   3.887  12.323  2.7739 -1.7740 -1.5060
 4598TIP3   OH235208   2.681   2.116  17.094  0.5650 -0.3234  0.4547
 4598TIP3    H135209   2.715   2.035  17.131  0.8405  0.1695  1.2820
 4598TIP3    H235210   2.757   2.161  17.058  0.6586  0.3026  1.4045
 4599TIP3   OH235211   5.139   1.612   5.904  0.1546  0.4458 -0.2901
 4599TIP3    H135212   5.222   1.641   5.941  0.3043 -0.6038  0.2695
 4599TIP3    H235213   5.163   1.558   5.829 -0.0192  0.2731 -0.2244
 4600TIP3   OH235214   2.471   3.219   3.316  0.2152  0.7520 -0.2202
 4600TIP3    H135215   2.390   3.173   3.335  0.1558  0.1649 -1.7536
 4600TIP3    H235216   2.540   3.155   3.335  0.2489  0.7912 -0.2100
 4601TIP3   OH235217   6.094   3.872  13.116 -0.1454 -0.0365  0.3136
 4601TIP3    H135218   6.095   3.808  13.045  2.0011 -0.9874  1.0966
 4601TIP3    H235219   6.038   3.832  13.183  2.2184 -1.8725  1.3451
 4602TIP3   OH235220   4.357   5.571   1.551 -0.9798  0.2572  0.1563
 4602TIP3    H135221   4.294   5.622   1.501  0.0204  1.6238  0.2471
 4602TIP3    H235222   4.422   5.541   1.487 -0.3184  1.0503  0.4377
 4603TIP3   OH235223   1.684   2.708   5.158  0.1783 -0.5751  0.4052
 4603TIP3    H135224   1.728   2.677   5.079 -1.4635  1.9806 -1.7115
 4603TIP3    H235225   1.728   2.790   5.179  0.2797 -0.9938  1.8980
 4604TIP3   OH235226   6.274   2.577   4.846  0.8653 -0.3324  0.0757
 4604TIP3    H135227   6.364   2.572   4.815  0.2555 -1.7056 -1.5623
 4604TIP3    H235228   6.244   2.486   4.851 -0.6081  0.1159  0.0596
 4605TIP3   OH235229   0.482   3.838   3.847 -0.0619  0.0687 -0.0336
 4605TIP3    H135230   0.499   3.834   3.942  0.4340 -1.1479 -0.1604
 4605TIP3    H235231   0.560   3.801   3.807 -0.6284 -0.2227 -0.8917
 4606TIP3   OH235232   5.891   6.365   5.035  0.0062  0.1505 -0.6691
 4606TIP3    H135233   5.835   6.398   4.965 -1.9060  1.6010  1.3675
 4606TIP3    H235234   5.969   6.420   5.032 -1.0041  1.6586 -0.3969
 4607TIP3   OH235235   6.721   4.609  11.078  0.0225  0.0307 -0.2688
 4607TIP3    H135236   6.661   4.535  11.063  0.4850 -0.3740 -0.1485
 4607TIP3    H235237   6.688   4.678  11.021  0.7668 -0.9391 -1.9452
 4608TIP3   OH235238   5.518   1.027   3.705 -0.2709 -0.2794 -0.9788
 4608TIP3    H135239   5.506   1.034   3.800  1.8007 -2.0396 -0.5242
 4608TIP3    H235240   5.488   1.112   3.671 -0.1749  0.7565  1.3329
 4609TIP3   OH235241   1.535   1.602  13.775  0.1551 -0.2189  0.1810
 4609TIP3    H135242   1.445   1.593  13.806  0.0445  1.8289  0.5544
 4609TIP3    H235243   1.562   1.689  13.803  1.5540  0.0195 -1.6784
 4610TIP3   OH235244   1.857   6.728  15.198  0.1120 -0.5546 -0.3782
 4610TIP3    H135245   1.851   6.751  15.291  0.2557  0.0432 -0.5066
 4610TIP3    H235246   1.780   6.675  15.181  1.6003 -3.3492  0.8049
 4611TIP3   OH235247   0.358   0.201   5.491  0.2375 -0.1914 -0.4179
 4611TIP3    H135248   0.391   0.158   5.570  2.8834  2.4536  0.0816
 4611TIP3    H235249   0.428   0.189   5.426 -0.5739  0.2470 -1.3984
 4612TIP3   OH235250   5.315   5.176  14.943 -0.0322 -0.4117  0.1371
 4612TIP3    H135251   5.222   5.167  14.924 -0.0512 -1.0277  0.4741
 4612TIP3    H235252   5.320   5.238  15.015 -0.2645 -1.1024  0.7619
 4613TIP3   OH235253   3.999   2.924   5.124 -0.2014 -0.2837 -0.1179
 4613TIP3    H135254   3.966   3.006   5.161 -2.1794 -1.2141  0.2851
 4613TIP3    H235255   4.007   2.941   5.030 -0.8817  0.2883 -0.0787
 4614TIP3   OH235256   0.485   3.679  15.428 -0.4473  0.3440 -0.6529
 4614TIP3    H135257   0.470   3.631  15.346 -0.1734  0.7533 -0.9424
 4614TIP3    H235258   0.577   3.706  15.424  0.5129 -2.2446  1.1497
 4615TIP3   OH235259   2.991   5.542  12.447  0.2412  0.1800 -0.1361
 4615TIP3    H135260   3.042   5.538  12.528 -1.9673  2.1345  1.4795
 4615TIP3    H235261   3.037   5.605  12.392 -0.7632  2.6609  1.6877
 4616TIP3   OH235262   3.360   1.738   4.951  0.4181 -0.0360  0.3309
 4616TIP3    H135263   3.290   1.675   4.968 -1.5495  1.7008 -0.8074
 4616TIP3    H235264   3.402   1.707   4.870  0.9852 -1.0709  1.0035
 4617TIP3   OH235265   5.361   6.471   6.035 -0.1868  0.1633  0.2580
 4617TIP3    H135266   5.440   6.509   5.997  0.3092 -0.4464  0.6650
 4617TIP3    H235267   5.377   6.377   6.035 -0.6604  0.0749  0.8910
 4618TIP3   OH235268   5.079   3.154   4.780  0.3414 -0.2079 -0.5397
 4618TIP3    H135269   5.089   3.063   4.752 -0.0694 -1.1785  2.1325
 4618TIP3    H235270   5.015   3.150   4.851  0.9538  2.0274  0.2259
 4619TIP3   OH235271   2.495   6.015  14.898 -0.3893 -0.6025  0.2879
 4619TIP3    H135272   2.433   6.006  14.825  0.4158  0.0997 -0.5141
 4619TIP3    H235273   2.449   5.979  14.974 -1.0023 -2.0025 -0.6946
 4620TIP3   OH235274   3.469   2.903   3.273 -0.0134 -0.5915 -0.4231
 4620TIP3    H135275   3.417   2.965   3.325 -0.7382 -0.3503 -1.4028
 4620TIP3    H235276   3.439   2.817   3.302  1.0452 -0.5161  0.9896
 4621TIP3   OH235277   6.701   2.754  16.944 -0.1905  0.5888  0.2765
 4621TIP3    H135278   6.796   2.760  16.944 -0.1618  0.3395 -0.6388
 4621TIP3    H235279   6.682   2.662  16.962 -0.1621  0.0792 -1.9547
 4622TIP3   OH235280   1.356   2.091   1.132  0.3164 -0.0008  0.1152
 4622TIP3    H135281   1.372   2.019   1.072 -0.0094  0.6224 -0.7435
 4622TIP3    H235282   1.440   2.138   1.136  0.4722 -0.3016  0.5244
 4623TIP3   OH235283   1.913   6.267  13.112 -0.0237  0.2080 -0.1810
 4623TIP3    H135284   1.858   6.199  13.072  2.3675 -0.8393 -1.9189
 4623TIP3    H235285   1.979   6.218  13.162  0.3148  1.3633  0.5303
 4624TIP3   OH235286   5.162   5.134  12.993  0.5251 -0.7565 -0.2221
 4624TIP3    H135287   5.197   5.120  12.905  0.7533  2.1329 -0.6946
 4624TIP3    H235288   5.070   5.157  12.978  0.5288 -0.3945  0.2762
 4625TIP3   OH235289   1.839   0.034  11.860  0.7376 -0.3396 -0.1457
 4625TIP3    H135290   1.818   0.033  11.954  0.8395  3.0663  0.0480
 4625TIP3    H235291   1.877   0.121  11.845  1.4075 -1.0495 -3.2363
 4626TIP3   OH235292   0.905   3.377  16.194 -0.0488  0.3690  0.5437
 4626TIP3    H135293   0.917   3.458  16.145  0.9585  1.1867  2.0654
 4626TIP3    H235294   0.861   3.404  16.275  1.9878 -0.2633  1.9283
 4627TIP3   OH235295   3.912   3.885  11.861  0.1996 -0.1371  0.6510
 4627TIP3    H135296   3.834   3.885  11.918 -0.0442  0.7751  0.3248
 4627TIP3    H235297   3.976   3.938  11.908 -0.4105  1.6550 -0.4390
 4628TIP3   OH235298   1.380   5.411   4.291  0.5728 -0.3173  0.5347
 4628TIP3    H135299   1.323   5.419   4.215  0.9553 -1.8376  0.0719
 4628TIP3    H235300   1.320   5.411   4.366  0.2227  1.5772  0.3057
 4629TIP3   OH235301   3.645   5.797  13.807  0.0525 -0.0523  0.1470
 4629TIP3    H135302   3.601   5.767  13.887 -0.0976  0.3314  0.2076
 4629TIP3    H235303   3.588   5.865  13.772  0.9840  1.0210  0.6506
 4630TIP3   OH235304   3.809   6.124  11.154  0.0418  0.1753  0.0731
 4630TIP3    H135305   3.736   6.166  11.110  1.3571  1.2246 -1.1794
 4630TIP3    H235306   3.798   6.147  11.247 -0.5830  1.2636 -0.2615
 4631TIP3   OH235307   1.613   6.437   1.983  0.5210  0.6606  0.0383
 4631TIP3    H135308   1.628   6.396   1.898  2.0812  0.1995  0.5071
 4631TIP3    H235309   1.600   6.363   2.043  0.4472  0.9515  0.3854
 4632TIP3   OH235310   3.139   6.123  16.885 -0.0510 -0.2480  0.2136
 4632TIP3    H135311   3.054   6.164  16.866  0.6632  0.8012 -0.8436
 4632TIP3    H235312   3.164   6.158  16.971 -0.3657  0.0005  0.2052
 4633TIP3   OH235313   3.350   1.468  13.709  0.8964 -0.2063 -0.7150
 4633TIP3    H135314   3.261   1.455  13.677  0.6060 -0.9504  0.3384
 4633TIP3    H235315   3.389   1.380  13.711  0.5307 -0.4099  1.8993
 4634TIP3   OH235316   4.637   0.364  14.947 -0.1714  0.1419 -0.2756
 4634TIP3    H135317   4.588   0.444  14.926 -0.5807 -0.5630 -2.3113
 4634TIP3    H235318   4.656   0.325  14.861 -0.7921 -2.4174  0.6640
 4635TIP3   OH235319   2.936   5.228   1.816  0.0982 -0.4224 -0.0668
 4635TIP3    H135320   3.004   5.295   1.809 -1.4858  1.3067  0.4845
 4635TIP3    H235321   2.961   5.176   1.892  1.7509 -0.9677 -0.9423
 4636TIP3   OH235322   3.749   1.217   5.980 -0.6670 -0.3518 -0.7289
 4636TIP3    H135323   3.662   1.257   5.978 -0.7505 -0.5068 -0.2681
 4636TIP3    H235324   3.742   1.147   6.045  0.5371  1.3487  1.3645
 4637TIP3   OH235325   0.366   4.234  11.538 -0.5081 -0.0656  0.2337
 4637TIP3    H135326   0.335   4.295  11.605 -1.6437  0.5940 -0.8373
 4637TIP3    H235327   0.325   4.265  11.457  1.6707 -0.1637 -0.9859
 4638TIP3   OH235328   2.394   0.336  16.465  0.6159  0.3771 -0.8155
 4638TIP3    H135329   2.326   0.292  16.516  1.6546 -0.3261  0.0165
 4638TIP3    H235330   2.442   0.264  16.422  1.0425  0.8292 -1.1073
 4639TIP3   OH235331   0.600   3.873  11.869  0.1038 -0.1026 -0.1125
 4639TIP3    H135332   0.664   3.871  11.940  1.5856  0.5541 -1.3672
 4639TIP3    H235333   0.631   3.807  11.807  0.4736  1.2452 -1.4372
 4640TIP3   OH235334   0.253   3.929   2.336  0.2642  0.0063  0.4640
 4640TIP3    H135335   0.222   3.978   2.261  1.3904 -0.3787 -0.2794
 4640TIP3    H235336   0.304   3.992   2.387  0.5556 -0.0372  0.2313
 4641TIP3   OH235337   5.524   4.632  16.105 -0.1028 -0.1975 -0.1584
 4641TIP3    H135338   5.504   4.594  16.191 -0.7206  0.3522 -0.0534
 4641TIP3    H235339   5.439   4.647  16.065  0.0425  2.0637  0.2326
 4642TIP3   OH235340   3.288   3.883   5.844 -0.0955 -0.4854 -0.2012
 4642TIP3    H135341   3.317   3.966   5.879 -0.3684 -1.1928  1.8384
 4642TIP3    H235342   3.366   3.843   5.806 -0.0029  0.7360 -1.3451
 4643TIP3   OH235343   4.530   6.325   0.702  0.0416  0.1426 -0.1143
 4643TIP3    H135344   4.525   6.414   0.669 -1.0157  0.2340  0.2515
 4643TIP3    H235345   4.586   6.279   0.639 -0.7302  0.6744 -1.2160
 4644TIP3   OH235346   4.426   6.638   1.646  0.0127  0.5381  0.1683
 4644TIP3    H135347   4.480   6.716   1.661 -1.1888  0.9558  2.8798
 4644TIP3    H235348   4.341   6.673   1.619  0.0223  0.0627 -0.4979
 4645TIP3   OH235349   0.758   3.735  15.371 -0.4123  0.6942  0.0261
 4645TIP3    H135350   0.831   3.729  15.309 -0.4264 -1.5311  0.1302
 4645TIP3    H235351   0.791   3.791  15.442 -0.0160  2.3920 -1.4280
 4646TIP3   OH235352   4.907   1.176  16.680 -0.0735  0.2714 -0.0368
 4646TIP3    H135353   4.932   1.084  16.679 -1.6927 -0.1951 -1.2985
 4646TIP3    H235354   4.986   1.222  16.709  0.8863 -1.4549  0.2211
 4647TIP3   OH235355   1.983   2.000   1.118 -0.6848  0.1430  0.1077
 4647TIP3    H135356   1.918   2.015   1.050 -0.9412  0.6752  0.4668
 4647TIP3    H235357   1.999   2.087   1.156 -1.3291 -0.2872  1.4318
 4648TIP3   OH235358   5.055   6.017   2.691  0.1459  0.1675  0.4528
 4648TIP3    H135359   4.986   6.064   2.644  0.2764 -1.0882 -1.0898
 4648TIP3    H235360   5.059   6.059   2.777 -1.3941  1.3386 -0.0067
 4649TIP3   OH235361   3.711   3.572  12.114 -0.1014  0.2449  0.2690
 4649TIP3    H135362   3.777   3.557  12.182 -0.4285 -1.5677  0.2250
 4649TIP3    H235363   3.627   3.571  12.161 -0.1821  2.2455  0.2783
 4650TIP3   OH235364   2.433   6.083   5.387 -0.4625 -0.1097 -0.3197
 4650TIP3    H135365   2.351   6.035   5.394 -0.6511 -0.0311 -1.6535
 4650TIP3    H235366   2.432   6.119   5.298  2.0030 -1.9664 -1.2179
 4651TIP3   OH235367   2.025   1.200  17.212  0.2828 -0.1172 -0.1164
 4651TIP3    H135368   2.093   1.138  17.235  0.0013 -0.2162  0.4787
 4651TIP3    H235369   1.958   1.148  17.169  0.0279 -0.2432  0.4191
 4652TIP3   OH235370   0.898   0.079  13.525 -0.2822  0.6086 -0.0287
 4652TIP3    H135371   0.857  -0.007  13.526 -0.8091  0.8611  0.7986
 4652TIP3    H235372   0.930   0.092  13.614  1.4340  0.5135 -0.5942
 4653TIP3   OH235373   0.349   6.178   4.448 -0.1894  0.0470  0.3729
 4653TIP3    H135374   0.315   6.091   4.428 -1.4591  0.7871 -0.8415
 4653TIP3    H235375   0.424   6.189   4.390 -0.7487  0.2141 -0.3221
 4654TIP3   OH235376   3.490   1.198  12.432  0.0468  0.6897  0.1006
 4654TIP3    H135377   3.449   1.113  12.447  1.2299  0.2527  1.0604
 4654TIP3    H235378   3.569   1.179  12.382  0.4318  1.1768  0.4999
 4655TIP3   OH235379   1.160   1.266   5.484 -0.1779  0.4712  0.6269
 4655TIP3    H135380   1.126   1.177   5.487  0.8123  0.0686  4.0736
 4655TIP3    H235381   1.235   1.261   5.424  0.8169 -1.4444  1.9511
 4656TIP3   OH235382   0.264   3.968   6.537 -0.4790  0.4004 -0.4051
 4656TIP3    H135383   0.333   4.025   6.569 -0.8331  0.3791  0.4426
 4656TIP3    H235384   0.211   4.023   6.479 -0.1798  0.6165 -0.4721
 4657TIP3   OH235385   0.061   6.185  12.700 -0.1952 -0.1493 -0.1166
 4657TIP3    H135386   0.036   6.262  12.750  0.9431 -0.0362  0.3108
 4657TIP3    H235387   0.150   6.166  12.729 -0.2057 -1.2020 -0.7394
 4658TIP3   OH235388   1.381   3.317   4.109  0.3659  0.2141 -0.5078
 4658TIP3    H135389   1.388   3.310   4.014  1.4704 -0.1345 -0.4199
 4658TIP3    H235390   1.377   3.411   4.126  1.8084  0.3597 -0.8262
 4659TIP3   OH235391   6.387   5.673  14.199 -0.0004 -0.0644  0.0926
 4659TIP3    H135392   6.388   5.638  14.288  1.3442 -0.8876 -0.2113
 4659TIP3    H235393   6.478   5.700  14.183  0.0315 -0.9558 -1.4075
 4660TIP3   OH235394   2.503   1.941  13.279  0.5996 -0.5112 -0.1197
 4660TIP3    H135395   2.544   1.876  13.337  0.5556 -1.6940 -1.3799
 4660TIP3    H235396   2.553   2.021  13.294  0.7984 -0.8762  1.3015
 4661TIP3   OH235397   3.760   6.663  16.787  0.2551  0.0243 -0.0056
 4661TIP3    H135398   3.706   6.588  16.810  0.0334 -0.0980 -0.9076
 4661TIP3    H235399   3.699   6.737  16.786  0.3560  0.1134  0.2631
 4662TIP3   OH235400   4.806   1.115  11.463  0.1483  0.2574  0.2910
 4662TIP3    H135401   4.861   1.161  11.400 -0.2020 -0.8658 -0.8958
 4662TIP3    H235402   4.813   1.165  11.544  1.6893  0.9759 -0.2665
 4663TIP3   OH235403   6.078   5.214   0.996  0.4768 -0.3467 -0.5477
 4663TIP3    H135404   5.983   5.226   0.994  0.7589  2.5222  0.0804
 4663TIP3    H235405   6.114   5.302   0.985  3.0811 -1.2889 -0.1958
 4664TIP3   OH235406   5.639   2.277   6.175 -0.6872 -0.3782 -0.3864
 4664TIP3    H135407   5.637   2.187   6.207 -0.9417  0.1454  1.1532
 4664TIP3    H235408   5.566   2.320   6.220  1.6781  1.5249  1.9988
 4665TIP3   OH235409   5.088   3.102  11.774 -0.2004  0.2070 -0.0504
 4665TIP3    H135410   5.113   3.075  11.863 -0.4637 -1.9005 -0.5631
 4665TIP3    H235411   4.996   3.075  11.766  0.0331 -0.2975 -1.1953
 4666TIP3   OH235412   2.080   0.384   5.587  0.4690  0.2749 -0.3942
 4666TIP3    H135413   2.046   0.369   5.676  0.8337 -0.2252 -0.3385
 4666TIP3    H235414   2.153   0.324   5.579 -1.6288 -2.2322 -2.2522
 4667TIP3   OH235415   1.899   4.746   4.618 -0.3090  0.3923 -0.3624
 4667TIP3    H135416   1.973   4.708   4.665 -0.6496 -0.2982 -0.3708
 4667TIP3    H235417   1.896   4.698   4.535 -0.4718  0.7482 -0.5681
 4668TIP3   OH235418   3.559   1.045  12.976  0.3141 -0.5464 -0.3490
 4668TIP3    H135419   3.577   0.951  12.969 -0.4525 -0.8672  1.5953
 4668TIP3    H235420   3.634   1.079  13.025 -0.5298 -0.5820  1.0190
 4669TIP3   OH235421   1.301   5.617  13.453 -0.3635  0.6685 -0.8371
 4669TIP3    H135422   1.249   5.690  13.488 -1.8357  0.0237 -1.6076
 4669TIP3    H235423   1.359   5.658  13.389 -1.0401  1.2095 -1.1205
 4670TIP3   OH235424   3.856   2.474  16.322  0.2808 -0.5353  0.5944
 4670TIP3    H135425   3.893   2.420  16.252  0.7482 -0.0118  0.4269
 4670TIP3    H235426   3.911   2.553  16.323  0.2121 -0.4869  1.4797
 4671TIP3   OH235427   5.294   4.792   4.222  0.0503  0.3042 -0.8222
 4671TIP3    H135428   5.352   4.743   4.163 -0.2815  0.7936 -1.5644
 4671TIP3    H235429   5.229   4.832   4.165 -0.6614  0.2735 -0.0552
 4672TIP3   OH235430   6.545   1.237  13.911  0.6351 -0.2449 -0.4708
 4672TIP3    H135431   6.532   1.292  13.834  0.6091 -2.3651 -2.0455
 4672TIP3    H235432   6.600   1.290  13.969  1.0310  1.2274 -2.1201
 4673TIP3   OH235433   6.394   0.698   1.337 -0.1478 -0.2491  0.3137
 4673TIP3    H135434   6.428   0.718   1.424 -0.3305 -1.9872  0.8203
 4673TIP3    H235435   6.329   0.630   1.352 -1.2721  0.4905 -1.0365
 4674TIP3   OH235436   0.339   4.650  14.690 -0.7932  0.4349 -0.2588
 4674TIP3    H135437   0.349   4.658  14.785 -0.9269 -2.6000  0.1246
 4674TIP3    H235438   0.251   4.683  14.672 -0.3623  2.0728  0.4548
 4675TIP3   OH235439   6.072   0.849   0.398 -0.4113 -0.6022 -0.2982
 4675TIP3    H135440   6.024   0.780   0.444 -0.2977  1.1091  2.6474
 4675TIP3    H235441   6.018   0.927   0.409  1.8814  0.9085  1.2253
 4676TIP3   OH235442   0.085   2.275   6.237 -0.2160 -0.4681 -0.1383
 4676TIP3    H135443   0.026   2.281   6.162  0.9402 -1.0359 -1.1362
 4676TIP3    H235444   0.072   2.186   6.270 -1.3190  0.0402  0.8856
 4677TIP3   OH235445   2.903   3.607   6.134 -0.3186 -0.2651 -0.1561
 4677TIP3    H135446   2.932   3.532   6.187 -1.4106 -1.2788 -0.9526
 4677TIP3    H235447   2.826   3.641   6.180 -0.8875 -0.7518 -0.7354
 4678TIP3   OH235448   4.330   4.496   2.008  0.6314  0.3295  0.5440
 4678TIP3    H135449   4.295   4.418   2.051  1.3275  0.8843  2.2167
 4678TIP3    H235450   4.414   4.468   1.972 -0.2521 -0.3108 -1.1184
 4679TIP3   OH235451   0.228   1.746   2.194  0.2299  0.7816 -0.2259
 4679TIP3    H135452   0.262   1.746   2.104  0.6568 -0.1925 -0.0736
 4679TIP3    H235453   0.147   1.695   2.189  0.3073  0.6397 -0.0383
 4680TIP3   OH235454   5.683   5.401   1.718  0.0998  0.6991  0.1679
 4680TIP3    H135455   5.741   5.400   1.642  1.2783 -1.3059  1.0232
 4680TIP3    H235456   5.638   5.317   1.716 -0.2826  0.8437  1.3766
 4681TIP3   OH235457   1.770   4.009  16.920  0.4112  0.0203 -0.0744
 4681TIP3    H135458   1.861   3.977  16.922  0.3949  0.0042  1.2691
 4681TIP3    H235459   1.772   4.091  16.969 -0.0894  0.6614 -1.0900
 4682TIP3   OH235460   4.258   3.319   3.130 -0.6410 -0.0095 -0.1988
 4682TIP3    H135461   4.171   3.290   3.158 -0.7531  1.0934  0.6506
 4682TIP3    H235462   4.308   3.238   3.120 -1.5884 -0.6224 -0.1181
 4683TIP3   OH235463   2.689   2.813  15.670  0.2983 -0.1561  0.2712
 4683TIP3    H135464   2.763   2.778  15.719  0.7693  1.2096  0.5862
 4683TIP3    H235465   2.725   2.889  15.624 -0.9062  0.5298  0.4278
 4684TIP3   OH235466   0.733   3.399  12.360 -0.2343 -0.2837  0.2607
 4684TIP3    H135467   0.736   3.454  12.282 -0.0785 -0.3101  0.2486
 4684TIP3    H235468   0.642   3.368  12.364 -0.0513 -0.9236 -0.3589
 4685TIP3   OH235469   1.076   3.965   4.469  0.5652  0.4160 -0.7299
 4685TIP3    H135470   1.112   3.991   4.553 -0.4451  0.8897 -0.4271
 4685TIP3    H235471   1.001   3.909   4.491 -1.2906  2.5922 -1.2111
 4686TIP3   OH235472   1.848   1.822   1.966  0.1373  0.1256 -0.6665
 4686TIP3    H135473   1.911   1.870   1.911  0.7142 -0.6511 -0.6898
 4686TIP3    H235474   1.811   1.889   2.023  2.7162  0.2513  1.0254
 4687TIP3   OH235475   4.502   6.359  16.864  0.0320 -0.1957  0.0183
 4687TIP3    H135476   4.594   6.388  16.865 -0.0812  0.2195 -1.0558
 4687TIP3    H235477   4.454   6.433  16.826 -0.7410 -0.4628  0.4589
 4688TIP3   OH235478   4.472   5.231  13.693 -0.2261  0.7111 -0.1373
 4688TIP3    H135479   4.519   5.292  13.636  0.8925  1.4055  1.4820
 4688TIP3    H235480   4.420   5.287  13.751  0.2397  0.1056  0.8877
 4689TIP3   OH235481   4.488   0.786   4.429  0.2478  0.2020 -0.3917
 4689TIP3    H135482   4.560   0.778   4.367 -1.6039 -1.6895 -2.4616
 4689TIP3    H235483   4.439   0.863   4.400  0.5623  0.5804  0.0689
 4690TIP3   OH235484   3.502   5.556   3.845 -0.0165  0.0759 -0.2942
 4690TIP3    H135485   3.579   5.511   3.811  0.3499  0.0093  0.5951
 4690TIP3    H235486   3.430   5.494   3.833  0.0614  0.1340 -1.1154
 4691TIP3   OH235487   5.178   1.330   2.378  0.4068 -0.4223 -0.2140
 4691TIP3    H135488   5.199   1.403   2.436 -0.7207  0.0775 -0.4132
 4691TIP3    H235489   5.220   1.254   2.419  1.2243  0.2582  0.2241
 4692TIP3   OH235490   3.898   6.331   5.542 -0.2905 -0.2640 -0.8748
 4692TIP3    H135491   3.897   6.239   5.516  2.0770 -0.8050  0.5532
 4692TIP3    H235492   3.990   6.357   5.533 -1.0852  2.3942 -2.4768
 4693TIP3   OH235493   1.133   0.036  14.019  0.0157 -0.0612 -0.1463
 4693TIP3    H135494   1.155   0.055  13.928 -0.2225  1.0902  0.0251
 4693TIP3    H235495   1.167  -0.052  14.034 -1.9650 -1.2378 -2.0288
 4694TIP3   OH235496   5.889   3.322  14.899  0.5388 -0.2992 -0.2081
 4694TIP3    H135497   5.885   3.411  14.863  0.1893 -0.2731 -0.1081
 4694TIP3    H235498   5.937   3.272  14.833  1.7338  0.2089  0.2497
 4695TIP3   OH235499   0.322   5.021  10.902 -0.2495 -0.1902  0.2163
 4695TIP3    H135500   0.409   5.049  10.930  0.2954 -0.5054 -1.1245
 4695TIP3    H235501   0.333   4.929  10.878 -0.1689  0.5529 -2.9847
 4696TIP3   OH235502   2.056   4.306  15.310  0.1571  0.3459 -0.0086
 4696TIP3    H135503   2.032   4.248  15.382 -1.8828 -0.1852 -1.0280
 4696TIP3    H235504   2.035   4.394  15.342 -0.1552  0.1717  0.2724
 4697TIP3   OH235505   0.720   2.846   6.817 -0.0451  0.4843 -0.6798
 4697TIP3    H135506   0.785   2.858   6.748 -0.1065  1.1103 -0.6352
 4697TIP3    H235507   0.656   2.915   6.802 -0.5253  0.0772 -0.5218
 4698TIP3   OH235508   5.076   1.219  16.383  0.2520  0.3217 -0.2086
 4698TIP3    H135509   5.142   1.286  16.398 -0.9633  1.5506 -0.1771
 4698TIP3    H235510   5.083   1.161  16.459  2.8672 -0.9972 -1.3360
 4699TIP3   OH235511   4.397   3.462  12.166  0.3821 -0.4712  0.4398
 4699TIP3    H135512   4.389   3.433  12.258  0.2473  1.6094  1.1209
 4699TIP3    H235513   4.312   3.441  12.127  0.5221 -1.5982  0.6960
 4700TIP3   OH235514   5.018   5.627   2.150 -0.5993 -0.2872  0.4391
 4700TIP3    H135515   5.087   5.690   2.127  0.2684 -1.1290  0.6427
 4700TIP3    H235516   5.025   5.617   2.245  0.1434 -1.6084  0.2829
 4701TIP3   OH235517   6.703   5.630  11.456  0.4758 -0.6607 -0.2057
 4701TIP3    H135518   6.622   5.581  11.438  0.2723 -1.1324  1.8036
 4701TIP3    H235519   6.686   5.718  11.420 -0.7956 -0.8490 -0.1121
 4702TIP3   OH235520   5.490   2.625  16.791  0.3068 -0.7399 -0.8424
 4702TIP3    H135521   5.446   2.543  16.768  0.0593 -0.2108 -2.3762
 4702TIP3    H235522   5.534   2.606  16.874 -0.4467 -2.1555 -0.7333
 4703TIP3   OH235523   4.360   5.556   5.728  0.3025 -0.1981  0.4688
 4703TIP3    H135524   4.345   5.646   5.755 -0.4135 -0.5952  1.4702
 4703TIP3    H235525   4.272   5.517   5.727  0.5348 -0.7236 -0.5566
 4704TIP3   OH235526   4.202   5.532  12.725  0.4099  0.2645 -0.4497
 4704TIP3    H135527   4.174   5.485  12.804  2.7711 -0.1343  0.2325
 4704TIP3    H235528   4.208   5.465  12.657 -0.5376  0.4040 -0.6756
 4705TIP3   OH235529   1.154   0.336   0.792  0.4922 -0.2805  0.0219
 4705TIP3    H135530   1.182   0.299   0.708  2.4210  1.7104 -0.3055
 4705TIP3    H235531   1.104   0.414   0.769  0.0588 -0.3352  0.7319
 4706TIP3   OH235532   1.541   0.331  14.422  0.2720 -0.1805 -0.0772
 4706TIP3    H135533   1.533   0.251  14.473  0.4301 -0.8944 -1.1174
 4706TIP3    H235534   1.566   0.300  14.334 -2.0640  0.8255 -1.1702
 4707TIP3   OH235535   3.072   3.733  13.315 -0.2267 -0.0408 -0.0884
 4707TIP3    H135536   3.018   3.731  13.394  0.8971 -1.1676  0.6962
 4707TIP3    H235537   3.160   3.712  13.346  0.1529 -1.0505 -1.7205
 4708TIP3   OH235538   1.316   6.383  14.575 -0.7702  0.0995 -0.2236
 4708TIP3    H135539   1.364   6.381  14.658  0.2384 -1.1172 -0.8122
 4708TIP3    H235540   1.251   6.452  14.588 -0.5028  0.0931  1.4986
 4709TIP3   OH235541   6.543   1.126   5.285  0.0952  0.2827 -0.3209
 4709TIP3    H135542   6.543   1.037   5.250  1.3423  0.6616 -1.3697
 4709TIP3    H235543   6.606   1.124   5.357 -0.0986  0.2594 -0.1496
 4710TIP3   OH235544   2.268   2.185  11.986  0.2632 -0.8301 -0.0830
 4710TIP3    H135545   2.216   2.228  12.053 -2.6465 -0.8627 -2.1024
 4710TIP3    H235546   2.246   2.092  11.994 -1.5200 -0.6593 -2.0300
 4711TIP3   OH235547   2.783   6.710  14.915  0.3690 -0.1436 -0.1688
 4711TIP3    H135548   2.747   6.626  14.943 -0.6344  0.0815 -0.7246
 4711TIP3    H235549   2.807   6.696  14.823 -0.6067  0.4009 -0.5252
 4712TIP3   OH235550   1.485   3.704  13.746 -0.2033  0.1329 -0.0527
 4712TIP3    H135551   1.453   3.789  13.776  0.6493  0.8224 -1.0279
 4712TIP3    H235552   1.573   3.698  13.781  0.1523  0.1650 -0.9223
 4713TIP3   OH235553   3.274   6.465   5.328 -0.0917 -0.2247  0.1922
 4713TIP3    H135554   3.236   6.547   5.359  0.2582  0.2429 -0.6006
 4713TIP3    H235555   3.270   6.471   5.233  0.4898 -0.8741  0.1200
 4714TIP3   OH235556   5.706   1.079  16.538  0.4817 -0.3059  0.3664
 4714TIP3    H135557   5.752   1.006  16.497  0.6277  0.0959 -0.1966
 4714TIP3    H235558   5.747   1.088  16.624  0.8744 -0.5006  0.2007
 4715TIP3   OH235559   6.403   2.040   4.693 -0.1713  0.0244 -0.0015
 4715TIP3    H135560   6.315   2.052   4.658 -0.4037 -3.0519 -0.8010
 4715TIP3    H235561   6.455   2.013   4.617  1.1441  0.5730  0.6896
 4716TIP3   OH235562   2.497   5.542   1.732 -0.3274  0.1631 -0.0195
 4716TIP3    H135563   2.561   5.502   1.673 -0.1155  2.1587 -1.2296
 4716TIP3    H235564   2.433   5.473   1.748  0.9219 -1.1811 -0.5929
 4717TIP3   OH235565   5.723   2.862   3.888 -0.7916  0.5535 -0.4236
 4717TIP3    H135566   5.776   2.826   3.817 -2.3459 -0.3251 -1.1953
 4717TIP3    H235567   5.634   2.830   3.871 -1.4903  1.5165  1.1164
 4718TIP3   OH235568   0.923   4.803   3.426 -0.3881  0.0076 -0.3069
 4718TIP3    H135569   0.934   4.858   3.348  1.4659 -0.7761 -0.6444
 4718TIP3    H235570   0.991   4.833   3.486  2.1060 -3.1638 -1.2936
 4719TIP3   OH235571   5.553   4.029   2.509 -0.3953  0.7339  0.2890
 4719TIP3    H135572   5.504   4.067   2.582  0.6043 -0.5859  1.6960
 4719TIP3    H235573   5.644   4.027   2.539  0.1369  0.6683 -1.2259
 4720TIP3   OH235574   2.263   3.415   5.684 -0.1210 -0.2829  0.3540
 4720TIP3    H135575   2.338   3.393   5.628 -0.5591 -0.2660 -0.2561
 4720TIP3    H235576   2.223   3.331   5.705  0.4695 -0.3465  1.2646
 4721TIP3   OH235577   1.078   3.005   1.380 -0.6629  0.2248  0.3254
 4721TIP3    H135578   1.021   3.073   1.417 -2.3891 -1.6630  1.3473
 4721TIP3    H235579   1.115   3.045   1.301 -4.6289  1.1156 -1.3234
 4722TIP3   OH235580   1.371   3.252  11.089  0.3223 -0.9878 -0.1765
 4722TIP3    H135581   1.362   3.227  11.181  2.5213 -1.5060 -0.0309
 4722TIP3    H235582   1.374   3.168  11.043 -2.3708 -0.7252 -0.9861
 4723TIP3   OH235583   2.926   1.134   3.422 -0.8187  0.0908  0.1432
 4723TIP3    H135584   2.970   1.050   3.413 -1.8394 -0.3297 -1.1537
 4723TIP3    H235585   2.973   1.178   3.494 -0.6457 -1.8012  1.2440
 4724TIP3   OH235586   5.417   4.740   6.356  0.3204  0.4072  0.2063
 4724TIP3    H135587   5.509   4.717   6.341  0.3979  1.2406 -0.7151
 4724TIP3    H235588   5.371   4.704   6.280 -0.4309 -1.5844  1.5086
 4725TIP3   OH235589   3.331   5.643  11.357  0.3555  0.2827  0.1388
 4725TIP3    H135590   3.359   5.558  11.322  1.2332  0.8823 -0.6824
 4725TIP3    H235591   3.251   5.664  11.308  0.8363  0.4976 -0.5688
 4726TIP3   OH235592   3.155   5.343  16.648  0.1173  0.1100  0.1427
 4726TIP3    H135593   3.161   5.264  16.702  0.5461  0.1534  0.1601
 4726TIP3    H235594   3.244   5.356  16.615 -0.1023  0.1899 -0.4244
 4727TIP3   OH235595   1.623   2.777  17.093 -0.0939 -0.2068  0.7407
 4727TIP3    H135596   1.558   2.829  17.046 -1.1516 -1.0225  1.2851
 4727TIP3    H235597   1.587   2.689  17.095  0.5204 -0.4484  1.9960
 4728TIP3   OH235598   5.303   3.219  16.541 -0.3174  0.4106 -0.0354
 4728TIP3    H135599   5.259   3.138  16.518  0.8279  0.1484 -1.4171
 4728TIP3    H235600   5.382   3.192  16.588 -0.1027  0.7303 -0.2015
 4729TIP3   OH235601   0.354   5.546   3.029  0.2888 -0.0982 -0.2910
 4729TIP3    H135602   0.308   5.554   2.945 -0.7259 -0.3963  0.2358
 4729TIP3    H235603   0.384   5.635   3.048  1.1199 -0.1429 -1.2942
 4730TIP3   OH235604   4.894   0.134   0.213 -0.0125  0.3069 -0.0962
 4730TIP3    H135605   4.986   0.134   0.238  0.0591 -2.7174 -0.0150
 4730TIP3    H235606   4.894   0.098   0.124 -1.1855 -1.0884  0.4386
 4731TIP3   OH235607   1.125   2.285  16.082 -0.1705  0.0909  0.2359
 4731TIP3    H135608   1.059   2.216  16.081 -0.9630  0.7979  1.2940
 4731TIP3    H235609   1.124   2.320  15.993  1.2541 -2.1370 -0.7341
 4732TIP3   OH235610   5.021   2.088   5.986  0.0266 -0.3796 -0.6334
 4732TIP3    H135611   5.000   2.002   5.949  0.2194 -0.2162 -1.1309
 4732TIP3    H235612   5.028   2.146   5.910  2.3423 -0.4414 -0.5360
 4733TIP3   OH235613   3.400   4.683  15.521 -0.2201 -0.4271  0.2558
 4733TIP3    H135614   3.310   4.690  15.550 -0.5573 -0.1932 -0.7840
 4733TIP3    H235615   3.440   4.619  15.580 -1.2215 -0.9724  0.3668
 4734TIP3   OH235616   5.006   6.033  12.697  0.2717 -0.2833 -0.4683
 4734TIP3    H135617   5.040   6.021  12.786 -1.4978  1.9340  0.6000
 4734TIP3    H235618   4.919   6.071  12.709  0.6861  1.8309 -3.1509
 4735TIP3   OH235619   2.257   2.772   2.043  0.4873 -0.1606  0.0742
 4735TIP3    H135620   2.289   2.855   2.080 -0.7128  0.5228 -0.3541
 4735TIP3    H235621   2.162   2.777   2.052 -0.0564  0.5764 -4.0466
 4736TIP3   OH235622   3.481   1.343   2.840 -0.4254 -0.4147 -0.3830
 4736TIP3    H135623   3.448   1.262   2.880 -2.5482 -0.4486 -2.0144
 4736TIP3    H235624   3.406   1.402   2.839  1.2555  1.9480  1.4415
 4737TIP3   OH235625   3.127   0.229   3.936  0.1053  0.2096  0.2281
 4737TIP3    H135626   3.196   0.170   3.906  0.1835 -0.3274  1.4263
 4737TIP3    H235627   3.125   0.218   4.031 -2.7506 -1.0350  0.1324
 4738TIP3   OH235628   1.611   0.001  12.780 -0.0399  0.4301  0.0535
 4738TIP3    H135629   1.568   0.061  12.841 -0.5922 -0.0682  0.1563
 4738TIP3    H235630   1.694  -0.021  12.823 -1.6753 -2.3002  2.1184
 4739TIP3   OH235631   0.060   1.358  12.096 -0.0623  0.3153 -0.6141
 4739TIP3    H135632   0.067   1.302  12.173 -1.9314 -0.2954 -0.8369
 4739TIP3    H235633   0.102   1.308  12.025  3.2186  1.5858  0.2371
 4740TIP3   OH235634   6.682   6.752  12.601  0.6079  0.5412  0.0027
 4740TIP3    H135635   6.694   6.824  12.663 -0.5272  2.4210 -1.8127
 4740TIP3    H235636   6.743   6.772  12.529  2.2124 -1.8163  0.5891
 4741TIP3   OH235637   4.052   2.496   2.978 -0.3511 -0.2614  0.5647
 4741TIP3    H135638   3.979   2.558   2.972  0.2457  0.4728  0.7592
 4741TIP3    H235639   4.019   2.426   3.034 -1.1053 -0.2344  0.1779
 4742TIP3   OH235640   1.986   4.258   3.069  0.5196 -0.1965  0.6243
 4742TIP3    H135641   1.896   4.241   3.097 -0.3696  0.5503 -1.4985
 4742TIP3    H235642   1.985   4.350   3.042  1.2569 -0.7483 -1.5245
 4743TIP3   OH235643   5.131   1.131  13.782 -0.2654  0.3195  0.2869
 4743TIP3    H135644   5.189   1.198  13.745 -0.7002  0.7453  0.3653
 4743TIP3    H235645   5.073   1.107  13.710 -0.2722  0.2115  0.3294
 4744TIP3   OH235646   5.927   2.852   0.466 -0.3222 -0.3246 -0.1940
 4744TIP3    H135647   5.899   2.915   0.532  0.6749 -0.2257  0.1541
 4744TIP3    H235648   5.934   2.902   0.385 -1.6550 -0.4680 -0.4341
 4745TIP3   OH235649   3.891   4.939   2.419 -0.0218 -0.2396 -0.4091
 4745TIP3    H135650   3.967   4.951   2.362 -0.9504  0.2109 -1.5886
 4745TIP3    H235651   3.918   4.872   2.481  0.7449 -1.3886 -1.9091
 4746TIP3   OH235652   4.534   2.487  15.305  0.6012 -0.4790  0.0757
 4746TIP3    H135653   4.440   2.470  15.300  0.8017 -1.8852  0.6606
 4746TIP3    H235654   4.557   2.465  15.395  1.5711 -0.5269 -0.1792
 4747TIP3   OH235655   1.521   2.125  15.332 -0.6460  0.2518  0.4409
 4747TIP3    H135656   1.501   2.156  15.420  1.0454 -0.3717  1.0804
 4747TIP3    H235657   1.515   2.030  15.338 -1.0803  0.2186 -0.2892
 4748TIP3   OH235658   2.736   5.574   0.046  0.4359 -0.5697  0.5176
 4748TIP3    H135659   2.793   5.606   0.116  0.8488 -1.1339  0.4445
 4748TIP3    H235660   2.794   5.525  -0.012  0.2602  0.6039 -0.6955
 4749TIP3   OH235661   5.518   6.650  16.066 -0.4669  0.1825  0.0676
 4749TIP3    H135662   5.439   6.690  16.030 -0.3704  1.8943  1.6080
 4749TIP3    H235663   5.580   6.722  16.073  0.8086 -0.8794  0.0972
 4750TIP3   OH235664   1.594   0.157   5.358 -0.6318 -0.1056  0.0053
 4750TIP3    H135665   1.573   0.249   5.345  1.9916  0.9781  2.4359
 4750TIP3    H235666   1.669   0.141   5.300 -1.0709 -0.7455 -0.4035
 4751TIP3   OH235667   4.953   2.322   2.844 -0.1568 -0.2941  0.2380
 4751TIP3    H135668   4.998   2.238   2.854  2.4401  0.5899 -2.6054
 4751TIP3    H235669   4.986   2.375   2.917 -0.5634 -1.2320  1.1182
 4752TIP3   OH235670   5.708   2.127  14.333 -0.1771  0.0696 -0.0301
 4752TIP3    H135671   5.789   2.175  14.354 -0.0322 -0.1047 -0.1925
 4752TIP3    H235672   5.711   2.115  14.238 -0.2265 -0.2376  0.0069
 4753TIP3   OH235673   1.210   0.019  14.965  0.1535 -0.3697 -0.6305
 4753TIP3    H135674   1.249   0.055  15.044  1.3356  0.3010 -1.4954
 4753TIP3    H235675   1.135  -0.032  14.996 -0.0358  0.7476  0.8296
 4754TIP3   OH235676   1.855   6.334  12.121 -0.3608  0.1965  0.3425
 4754TIP3    H135677   1.799   6.260  12.101 -0.5169  0.5017 -0.3566
 4754TIP3    H235678   1.821   6.406  12.069  0.3946  0.5085  0.2595
 4755TIP3   OH235679   0.055   1.411  15.941 -0.3044  0.3802 -0.0787
 4755TIP3    H135680   0.149   1.424  15.951  0.1733 -2.5136  0.1762
 4755TIP3    H235681   0.028   1.365  16.020 -1.0929 -2.2399 -1.7311
 4756TIP3   OH235682   3.827   3.997   4.134 -0.3436  0.6022  0.1553
 4756TIP3    H135683   3.780   4.004   4.216 -0.4307  1.5717  0.0332
 4756TIP3    H235684   3.758   3.993   4.067 -0.3068 -1.3731  0.1775
 4757TIP3   OH235685   5.475   0.116  17.406 -0.4481 -0.4662  0.4483
 4757TIP3    H135686   5.503   0.118  17.314 -2.1008 -3.8691 -0.3063
 4757TIP3    H235687   5.419   0.193  17.415 -0.2148 -0.0240 -1.3886
 4758TIP3   OH235688   5.752   5.004   2.382  0.4666  0.1546  0.0280
 4758TIP3    H135689   5.709   5.086   2.359 -1.0939 -0.3381  1.0420
 4758TIP3    H235690   5.772   4.963   2.299 -0.8850  0.4924 -0.4840
 4759TIP3   OH235691   0.918   6.736   4.158  0.2001  0.3823  0.0410
 4759TIP3    H135692   0.845   6.791   4.186  0.4233  0.1667  1.0734
 4759TIP3    H235693   0.952   6.780   4.079 -1.8939 -0.2682 -1.2935
 4760TIP3   OH235694   1.317   3.334   2.716 -0.2755  0.6697 -0.2300
 4760TIP3    H135695   1.406   3.347   2.684 -0.2401  0.8823 -0.0469
 4760TIP3    H235696   1.262   3.380   2.654 -0.3705 -0.5019 -1.0574
 4761TIP3   OH235697   0.844   5.046  11.912 -0.2370  0.2089 -0.0532
 4761TIP3    H135698   0.920   5.036  11.969 -0.0762 -0.6682 -0.4067
 4761TIP3    H235699   0.782   4.979  11.941 -0.6285  0.5262 -0.1507
 4762TIP3   OH235700   6.148   0.421  11.047  0.1058  0.0134 -0.3273
 4762TIP3    H135701   6.076   0.468  11.005  0.2600  1.1809  0.6627
 4762TIP3    H235702   6.215   0.416  10.979  0.0958  1.2833 -0.4671
 4763TIP3   OH235703   4.678   6.161   3.649  0.4702 -0.1660 -0.0954
 4763TIP3    H135704   4.738   6.106   3.700  0.4395 -0.5615 -0.4789
 4763TIP3    H235705   4.600   6.168   3.703  0.7020  0.0068  0.2239
 4764TIP3   OH235706   6.346   6.536  15.739 -0.2626  0.1974  0.3584
 4764TIP3    H135707   6.324   6.481  15.814 -0.3037 -0.0711  0.1524
 4764TIP3    H235708   6.272   6.525  15.678 -1.2839  2.0712  1.1652
 4765TIP3   OH235709   3.020   0.694  12.163 -0.0222  0.0261 -0.1967
 4765TIP3    H135710   2.980   0.690  12.250 -0.4443 -2.5633 -0.4106
 4765TIP3    H235711   2.964   0.638  12.109  0.9153  0.6117 -1.8423
 4766TIP3   OH235712   0.129   4.769   6.100 -0.2910 -0.3103  0.0515
 4766TIP3    H135713   0.050   4.770   6.154  0.1677  0.9885  0.7386
 4766TIP3    H235714   0.106   4.820   6.022  0.7961  3.1860  1.7757
 4767TIP3   OH235715   1.071   1.181   2.364 -0.9001 -0.5134  0.3374
 4767TIP3    H135716   1.143   1.130   2.401 -1.3196 -1.6937 -0.4037
 4767TIP3    H235717   1.113   1.250   2.313 -0.3158  0.6433  2.2870
 4768TIP3   OH235718   4.585   0.000  13.224  0.8879 -0.7881 -0.7471
 4768TIP3    H135719   4.672  -0.039  13.218  2.3795  2.3122 -1.7456
 4768TIP3    H235720   4.593   0.082  13.175 -1.9552  0.7143  1.0552
 4769TIP3   OH235721   2.707   0.508  16.874  0.5039  0.2948  0.0745
 4769TIP3    H135722   2.750   0.484  16.792 -0.3116 -2.5733  0.4031
 4769TIP3    H235723   2.647   0.436  16.892  0.2487  1.1046  2.9423
 4770TIP3   OH235724   0.368   2.600   1.664 -0.4818 -0.0634 -0.2110
 4770TIP3    H135725   0.449   2.584   1.616  2.3693 -0.1622  4.0669
 4770TIP3    H235726   0.338   2.512   1.690 -1.0273  0.0759 -0.3433
 4771TIP3   OH235727   5.224   1.510  15.320 -0.0784  0.0504  0.0319
 4771TIP3    H135728   5.270   1.574  15.373 -0.4102  0.7083 -0.4584
 4771TIP3    H235729   5.269   1.512  15.235 -1.7103  1.6114 -0.8819
 4772TIP3   OH235730   1.708   0.370   5.593 -0.0777 -0.4415  0.3696
 4772TIP3    H135731   1.755   0.291   5.569  1.5927  0.3933  0.7798
 4772TIP3    H235732   1.685   0.358   5.685  1.2509  0.0220  0.7867
 4773TIP3   OH235733   5.544   5.018   1.963  0.0588 -0.0178  0.1916
 4773TIP3    H135734   5.476   5.076   1.927  1.3958  2.2295  1.0677
 4773TIP3    H235735   5.545   4.943   1.904 -1.7274  0.8642 -1.0572
 4774TIP3   OH235736   1.097   2.171   1.962 -0.0275  0.7212 -0.3089
 4774TIP3    H135737   1.157   2.245   1.968  1.4302 -0.2724 -1.6021
 4774TIP3    H235738   1.132   2.118   1.889 -1.8067 -0.5181 -0.3254
 4775TIP3   OH235739   4.160   0.600   1.255 -0.1787  0.0794 -0.2213
 4775TIP3    H135740   4.109   0.678   1.233  0.5552  0.1997 -1.6365
 4775TIP3    H235741   4.244   0.634   1.286 -0.3957 -0.1403  0.6383
 4776TIP3   OH235742   4.873   3.524   0.225  0.4742 -0.1830  0.0744
 4776TIP3    H135743   4.873   3.611   0.264 -2.1651 -1.2710  2.9664
 4776TIP3    H235744   4.841   3.537   0.136  0.9171  1.8569  0.1734
 4777TIP3   OH235745   0.495   0.864   4.268  0.6079 -0.3993  0.0072
 4777TIP3    H135746   0.552   0.854   4.191  0.0312 -0.4125 -0.4305
 4777TIP3    H235747   0.492   0.777   4.306  1.2975 -0.2869  0.3475
 4778TIP3   OH235748   6.143   5.673   0.487 -0.5815 -1.1565 -0.2328
 4778TIP3    H135749   6.219   5.622   0.518 -0.0631 -0.0196  0.4239
 4778TIP3    H235750   6.073   5.649   0.548  0.1041  0.1191  1.1163
 4779TIP3   OH235751   2.355   6.338   5.508 -0.2586 -0.9979  0.1516
 4779TIP3    H135752   2.346   6.353   5.602  2.3086  0.1522  0.3102
 4779TIP3    H235753   2.400   6.253   5.503 -0.2726 -0.9938 -0.0208
 4780TIP3   OH235754   2.241   4.068   6.266  0.5093  0.2845 -0.4076
 4780TIP3    H135755   2.291   4.116   6.332  0.6544  0.2541 -0.4965
 4780TIP3    H235756   2.301   4.057   6.193 -0.5665  3.0318 -1.8410
 4781TIP3   OH235757   3.850   4.602   1.883  0.8205  0.0997 -0.5354
 4781TIP3    H135758   3.945   4.605   1.884  0.8706 -0.9534 -1.0533
 4781TIP3    H235759   3.829   4.525   1.831 -0.3231  0.6877 -0.9851
 4782TIP3   OH235760   2.375   4.870   2.144 -0.4612  0.2390 -0.9997
 4782TIP3    H135761   2.468   4.890   2.146 -0.3362 -0.2608  0.9473
 4782TIP3    H235762   2.366   4.804   2.075  1.0902 -1.5394  0.3795
 4783TIP3   OH235763   4.952   3.954   0.486 -0.0087  0.1677  0.0279
 4783TIP3    H135764   5.028   4.012   0.480  1.4767 -1.4104  2.0122
 4783TIP3    H235765   4.891   4.000   0.544  0.9131  0.0347  1.1336
 4784TIP3   OH235766   3.458   0.428   3.992 -0.5904  0.1270  0.0342
 4784TIP3    H135767   3.498   0.342   3.974 -0.2797  0.0760  0.9370
 4784TIP3    H235768   3.463   0.437   4.087  0.4195  1.6344 -0.1300
 4785TIP3   OH235769   4.466   3.228   2.610 -0.4175  0.3788 -0.1084
 4785TIP3    H135770   4.447   3.281   2.688 -2.5172  1.0813 -1.0429
 4785TIP3    H235771   4.476   3.139   2.643 -3.9274  0.1799  0.7676
 4786TIP3   OH235772   2.812   3.577   3.668  0.0247 -0.2182 -0.3063
 4786TIP3    H135773   2.889   3.575   3.725  0.0466  0.2731 -0.3153
 4786TIP3    H235774   2.844   3.616   3.587 -0.0996 -0.5597 -0.5217
 4787TIP3   OH235775   5.886   5.874  15.961 -0.1409  0.0061  0.0313
 4787TIP3    H135776   5.890   5.790  15.917 -0.8142  0.8438 -1.7165
 4787TIP3    H235777   5.804   5.913  15.932 -1.0154  0.3296  2.6323
 4788TIP3   OH235778   1.588   4.779  11.573  0.5316 -0.1641 -0.1988
 4788TIP3    H135779   1.674   4.757  11.608  0.0990 -0.6880  0.5673
 4788TIP3    H235780   1.604   4.797  11.480  1.9015  2.4519  0.4521
 4789TIP3   OH235781   4.301   1.436   0.053  0.0038 -0.2961 -0.3115
 4789TIP3    H135782   4.386   1.446   0.009 -0.1804  0.2087 -0.5578
 4789TIP3    H235783   4.295   1.513   0.110  0.2910 -0.9964  0.7002
 4790TIP3   OH235784   0.499   5.078  16.960  0.1668  0.1709 -0.0576
 4790TIP3    H135785   0.422   5.134  16.950  1.0620  1.6038  0.7048
 4790TIP3    H235786   0.463   4.990  16.975 -1.2933  0.6962 -0.3293
 4791TIP3   OH235787   5.167   6.750  12.248 -0.0037 -0.4000  0.2718
 4791TIP3    H135788   5.097   6.744  12.183 -0.6419  2.2072  0.6140
 4791TIP3    H235789   5.247   6.750  12.196 -0.3833 -0.6498 -0.3288
 4792TIP3   OH235790   3.122   0.482  17.190  0.1416 -0.0023  0.1519
 4792TIP3    H135791   3.189   0.418  17.166 -1.1453 -0.8847 -1.2967
 4792TIP3    H235792   3.076   0.500  17.108 -0.6057  1.5271  0.8665
 4793TIP3   OH235793   4.690   3.504   3.011  0.2190 -0.0410 -0.1610
 4793TIP3    H135794   4.720   3.413   3.008  0.1819 -0.1309  1.4341
 4793TIP3    H235795   4.768   3.554   3.034  0.2266  0.3408 -0.9769
 4794TIP3   OH235796   6.495   4.311  16.820  0.7590 -0.2336 -0.5749
 4794TIP3    H135797   6.453   4.317  16.734  0.4206 -1.4995 -0.5180
 4794TIP3    H235798   6.427   4.341  16.881  0.7672  0.0109 -0.6829
 4795TIP3   OH235799   5.239   2.931   1.926  0.6931 -0.4257 -0.0556
 4795TIP3    H135800   5.284   2.863   1.875  1.3710  0.4806 -0.7103
 4795TIP3    H235801   5.228   2.893   2.013  1.8265 -1.0661 -0.1688
 4796TIP3   OH235802   6.355   6.715   5.296 -0.0723  0.1722  0.1966
 4796TIP3    H135803   6.261   6.708   5.281  0.2785 -1.5149 -1.6342
 4796TIP3    H235804   6.376   6.645   5.357 -0.1044  1.1935  1.4308
 4797TIP3   OH235805   2.851   1.546  14.165  0.6711  0.0110  0.2670
 4797TIP3    H135806   2.851   1.544  14.261  1.2023  1.3639  0.3230
 4797TIP3    H235807   2.782   1.609  14.142 -0.3407 -1.2591 -0.3080
 4798TIP3   OH235808   3.420   6.577   4.780  0.0095 -0.1507  0.5497
 4798TIP3    H135809   3.502   6.543   4.745  0.4390  1.1675  0.1971
 4798TIP3    H235810   3.427   6.672   4.768 -0.8805  0.1251  1.9966
 4799TIP3   OH235811   5.805   3.155   2.178  0.6676 -0.4018 -0.3433
 4799TIP3    H135812   5.877   3.092   2.190 -0.0779 -1.1694  0.2131
 4799TIP3    H235813   5.841   3.220   2.118  1.1253 -1.9140 -1.7956
 4800TIP3   OH235814   0.499   0.466   2.563  1.0217  0.3503 -0.0249
 4800TIP3    H135815   0.407   0.482   2.582  1.5241  2.7834  0.7500
 4800TIP3    H235816   0.521   0.531   2.497  2.2441 -0.0570 -0.0445
 4801TIP3   OH235817   2.529   0.003  11.702  0.2978  0.5281  0.5578
 4801TIP3    H135818   2.494  -0.069  11.648  0.0242  0.6377  0.5890
 4801TIP3    H235819   2.624  -0.004  11.692  0.2686  0.2383  0.4594
 4802TIP3   OH235820   6.190   0.002   0.017 -0.0631 -0.1293 -0.4543
 4802TIP3    H135821   6.209   0.094   0.037  0.9403 -0.1664 -1.1362
 4802TIP3    H235822   6.268  -0.029  -0.030 -0.6694 -1.1370 -0.8401
 4803TIP3   OH235823   1.535   2.965   2.149  0.3072 -0.6239 -0.1058
 4803TIP3    H135824   1.492   3.012   2.078  0.3964 -0.6467 -0.1752
 4803TIP3    H235825   1.478   2.978   2.225  1.0857  0.8562  0.2537
 4804TIP3   OH235826   0.642   6.169   3.707 -0.0799  0.3616  0.1461
 4804TIP3    H135827   0.638   6.095   3.646 -0.7902  0.7521 -0.2934
 4804TIP3    H235828   0.567   6.156   3.765 -0.0319  0.5728  0.2571
 4805TIP3   OH235829   1.388   6.355   4.771 -0.4822  0.2205  0.2612
 4805TIP3    H135830   1.436   6.363   4.854  0.9662 -0.8443 -0.4410
 4805TIP3    H235831   1.300   6.387   4.792  0.6436  2.8299  1.4429
 4806TIP3   OH235832   1.019   6.181  16.528  0.4488 -0.6455  0.4515
 4806TIP3    H135833   1.105   6.216  16.508  0.5813 -0.7185  0.8757
 4806TIP3    H235834   1.029   6.086  16.521  0.0154 -0.6034 -0.9900
 4807TIP3   OH235835   0.812   6.387   3.607  0.0686 -0.5198 -0.1190
 4807TIP3    H135836   0.759   6.455   3.649  1.1961 -1.0298  2.3079
 4807TIP3    H235837   0.787   6.306   3.652  0.5679 -1.3056 -1.2145
 4808TIP3   OH235838   3.871   3.174  14.987  0.1364  1.0587 -0.1293
 4808TIP3    H135839   3.784   3.165  14.948 -0.4886  1.7053  1.0693
 4808TIP3    H235840   3.928   3.125  14.928 -1.3867 -1.4565  0.3282
 4809TIP3   OH235841   0.485   1.480   5.159  0.1292  0.4007  0.0888
 4809TIP3    H135842   0.533   1.397   5.159 -0.7939 -0.1521  0.3590
 4809TIP3    H235843   0.402   1.459   5.203 -1.4793  0.6591 -2.6073
 4810TIP3   OH235844   2.577   1.271   2.476 -0.1397  0.6311  0.3746
 4810TIP3    H135845   2.605   1.182   2.457  1.5342  1.2680 -0.3408
 4810TIP3    H235846   2.565   1.273   2.571 -1.4134 -0.6589  0.2646
 4811TIP3   OH235847   1.116   0.388   1.954  0.2815  0.0611  0.2846
 4811TIP3    H135848   1.210   0.378   1.941  0.3681  2.0016 -1.0309
 4811TIP3    H235849   1.107   0.469   2.003 -0.6539 -1.2399  2.3878
 4812TIP3   OH235850   3.730   3.739   5.551 -0.1075  0.3904 -0.4251
 4812TIP3    H135851   3.816   3.776   5.534  0.7325 -1.5864 -0.8425
 4812TIP3    H235852   3.675   3.771   5.480  1.2255 -1.1106 -2.2302
 4813TIP3   OH235853   1.677   4.431  15.991  0.8543 -0.1595  0.1399
 4813TIP3    H135854   1.628   4.414  15.910 -0.7830  2.1850  0.5171
 4813TIP3    H235855   1.734   4.505  15.969  1.3978 -0.3805  0.7687
 4814TIP3   OH235856   0.074   5.277   1.954  0.0998 -0.0869 -0.7815
 4814TIP3    H135857   0.111   5.192   1.931 -0.0366  0.0061 -1.3729
 4814TIP3    H235858  -0.009   5.256   1.997 -0.0083 -0.2502 -1.0673
 4815TIP3   OH235859   4.708   2.861   4.449 -0.0241 -0.8365  0.4039
 4815TIP3    H135860   4.660   2.805   4.388 -0.1223 -0.8245  0.4709
 4815TIP3    H235861   4.800   2.842   4.431  0.0152  0.4080 -0.9634
 4816TIP3   OH235862   4.195   1.810  13.590  0.0385  0.1845 -0.5984
 4816TIP3    H135863   4.169   1.718  13.597 -1.4991  0.6038 -0.3836
 4816TIP3    H235864   4.125   1.858  13.634  0.2792  1.5449 -1.6339
 4817TIP3   OH235865   4.744   2.065   6.357  0.5602 -0.4558 -0.4435
 4817TIP3    H135866   4.740   2.074   6.262  0.0855 -0.7039 -0.4474
 4817TIP3    H235867   4.692   2.139   6.390  0.1461 -0.7666 -0.3929
 4818TIP3   OH235868   2.821   3.740   2.472  0.3335 -0.0111  0.2577
 4818TIP3    H135869   2.736   3.695   2.467  0.2427  0.3088 -1.8537
 4818TIP3    H235870   2.813   3.797   2.548 -1.4564  0.2102 -0.0408
 4819TIP3   OH235871   5.579   5.650   2.868  0.4987  0.7059  0.2499
 4819TIP3    H135872   5.605   5.661   2.959  0.1072  0.3315  0.4118
 4819TIP3    H235873   5.578   5.556   2.854 -0.9309  0.6811  0.3173
 4820TIP3   OH235874   3.353   3.229  11.991  0.1001  0.4609 -0.2805
 4820TIP3    H135875   3.296   3.215  11.915  0.8281  0.6420 -0.8787
 4820TIP3    H235876   3.302   3.285  12.049 -1.1811 -1.1290  0.2066
 4821TIP3   OH235877   0.725   0.535   1.719  0.3077 -0.7053 -0.0450
 4821TIP3    H135878   0.755   0.479   1.791 -0.7565  0.3196  1.2360
 4821TIP3    H235879   0.805   0.580   1.690  0.5741 -0.2427  1.3065
 4822TIP3   OH235880   6.233   1.822  15.911  0.2255 -0.2259 -0.5404
 4822TIP3    H135881   6.251   1.739  15.953  0.7344  0.1873  0.0822
 4822TIP3    H235882   6.233   1.886  15.983 -0.0480  0.3202 -1.0181
 4823TIP3   OH235883   5.682   5.096  14.657 -0.0507  0.1739 -0.0920
 4823TIP3    H135884   5.647   5.022  14.607  0.2110  0.7047 -1.0810
 4823TIP3    H235885   5.661   5.173  14.604 -1.2954  0.9382  1.4415
 4824TIP3   OH235886   5.429   4.191  14.362  0.6004 -0.2029 -0.6414
 4824TIP3    H135887   5.400   4.110  14.319  0.8224 -0.7299  0.1615
 4824TIP3    H235888   5.522   4.175  14.381  0.2491 -0.4448  0.9950
 4825TIP3   OH235889   2.875   3.305  16.417 -0.4207  0.6611 -0.1724
 4825TIP3    H135890   2.900   3.320  16.326 -0.4052 -0.2074 -0.3206
 4825TIP3    H235891   2.805   3.367  16.434 -0.5685  0.6800 -0.8425
 4826TIP3   OH235892   3.726   4.666   2.769 -0.3205 -0.2494  0.2321
 4826TIP3    H135893   3.696   4.755   2.787 -0.5644 -0.0040 -1.2960
 4826TIP3    H235894   3.648   4.612   2.779  0.0701 -0.5034  2.3636
 4827TIP3   OH235895   3.540   0.907  16.339 -0.0315 -0.2387  0.6657
 4827TIP3    H135896   3.541   0.831  16.398  0.7351 -0.2302  0.6714
 4827TIP3    H235897   3.481   0.881  16.268 -1.1481 -0.1614  1.5340
 4828TIP3   OH235898   3.642   2.703   5.399  1.1874  0.0477 -0.4596
 4828TIP3    H135899   3.708   2.728   5.334  1.8941  1.2712  0.6748
 4828TIP3    H235900   3.662   2.757   5.476 -1.0587  0.3963 -0.0285
 4829TIP3   OH235901   4.674   4.588  13.718  0.1459  0.5368 -0.4227
 4829TIP3    H135902   4.753   4.635  13.745  1.1087  1.1948 -3.8426
 4829TIP3    H235903   4.692   4.560  13.628 -2.3292 -2.1558 -0.2418
 4830TIP3   OH235904   5.956   5.612  15.885  0.1549  0.0660  0.4746
 4830TIP3    H135905   5.933   5.559  15.809  1.1456 -1.1887  1.0045
 4830TIP3    H235906   6.051   5.603  15.892  0.1126  0.3965  1.6989
 4831TIP3   OH235907   0.401   3.799   0.412  0.1197 -0.4154  0.1934
 4831TIP3    H135908   0.312   3.815   0.381 -0.8214  0.3637  2.9572
 4831TIP3    H235909   0.436   3.887   0.429  0.6564 -0.7857  1.0471
 4832TIP3   OH235910   1.106   6.255  17.133  0.1181  0.2877 -0.4304
 4832TIP3    H135911   1.151   6.242  17.217 -0.7837  1.4828  0.2705
 4832TIP3    H235912   1.052   6.177  17.122 -0.6834  0.6545  0.7276
 4833TIP3   OH235913   4.666   2.066   2.541  0.6887  0.2183  0.1530
 4833TIP3    H135914   4.618   2.114   2.474  2.6680  1.5630 -0.3873
 4833TIP3    H235915   4.716   2.000   2.494 -0.0493 -0.7413  0.6499
 4834TIP3   OH235916   0.299   3.040   0.953 -0.1836 -0.4532 -0.4188
 4834TIP3    H135917   0.214   3.063   0.990 -0.3119 -1.5160 -0.0261
 4834TIP3    H235918   0.277   2.984   0.878  0.1592 -0.5873 -0.4192
 4835TIP3   OH235919   4.910   4.710   6.185 -0.0081  0.2401  0.2403
 4835TIP3    H135920   4.889   4.742   6.273  1.6581  1.7355  0.1393
 4835TIP3    H235921   4.955   4.627   6.200 -0.0488  0.3101  0.7653
 4836TIP3   OH235922   5.349   6.709   0.343 -0.1888 -0.4209 -0.0013
 4836TIP3    H135923   5.260   6.743   0.335 -0.5932 -1.6693 -1.1528
 4836TIP3    H235924   5.403   6.771   0.295 -0.2715  0.8174  1.4253
 4837TIP3   OH235925   4.512   3.642   4.070  0.7200  0.5313 -0.2685
 4837TIP3    H135926   4.442   3.617   4.130  2.4041 -1.4231  0.9967
 4837TIP3    H235927   4.482   3.612   3.984 -1.1790  2.2639 -0.2826
 4838TIP3   OH235928   5.007   3.682   5.557 -0.5503  0.1211 -0.3064
 4838TIP3    H135929   5.096   3.717   5.568 -1.5862  2.4108  1.4370
 4838TIP3    H235930   5.012   3.594   5.594  0.8632  0.4207  0.2764
 4839TIP3   OH235931   6.109   4.291   0.473 -0.2197 -1.2955 -0.0538
 4839TIP3    H135932   6.105   4.264   0.381  1.7194 -0.9974 -0.2585
 4839TIP3    H235933   6.198   4.270   0.500  1.0816  3.4800  0.1950
 4840TIP3   OH235934   6.335   1.947   3.606  0.0204 -0.2126  0.3538
 4840TIP3    H135935   6.327   2.001   3.684 -0.9358 -0.1249  0.2172
 4840TIP3    H235936   6.298   1.863   3.632  0.8601 -0.5831  0.3602
 4841TIP3   OH235937   6.358   4.182   4.585  0.2482 -0.1224  0.0117
 4841TIP3    H135938   6.373   4.276   4.576 -0.6885 -0.1373 -2.0912
 4841TIP3    H235939   6.279   4.164   4.535  1.2954 -2.2818 -1.0310
 4842TIP3   OH235940   2.273   4.301   0.260  0.6507  0.2099 -0.0128
 4842TIP3    H135941   2.251   4.267   0.173  2.2037 -0.9285  0.0002
 4842TIP3    H235942   2.238   4.236   0.320 -2.1119  1.9085  0.3971
 4843TIP3   OH235943   6.508   4.100  13.663 -0.1036  0.1119  0.6006
 4843TIP3    H135944   6.584   4.074  13.715 -1.7241  0.0194  3.1122
 4843TIP3    H235945   6.539   4.173  13.610  1.7276  0.0844  1.5543
 4844TIP3   OH235946   2.742   6.698   1.526  0.3594 -0.0772 -0.3438
 4844TIP3    H135947   2.690   6.653   1.459  0.8875  1.5115 -1.9059
 4844TIP3    H235948   2.766   6.629   1.588 -1.4699 -1.3243 -0.9227
 4845TIP3   OH235949   4.510   2.162  15.199  0.2155 -0.1093  0.1929
 4845TIP3    H135950   4.486   2.096  15.133 -0.9780  0.6790 -0.1888
 4845TIP3    H235951   4.451   2.145  15.272  1.0205 -0.4902  0.7642
 4846TIP3   OH235952   2.504   0.619  16.452 -0.4062  0.2387 -0.2447
 4846TIP3    H135953   2.464   0.532  16.457 -4.5110  1.7916 -1.9589
 4846TIP3    H235954   2.556   0.617  16.373  0.2213 -0.8730  0.1796
 4847TIP3   OH235955   5.761   1.134   1.921 -0.1679 -0.2174  0.3606
 4847TIP3    H135956   5.674   1.093   1.926 -0.0159 -0.6275 -0.1939
 4847TIP3    H235957   5.751   1.216   1.968 -1.2871  0.4649 -0.9699
 4848TIP3   OH235958   4.344   0.846   6.164  0.4150  0.0164  0.4581
 4848TIP3    H135959   4.272   0.867   6.224 -0.3460 -0.1956 -0.3684
 4848TIP3    H235960   4.420   0.836   6.221 -0.1080  0.7024  1.3048
 4849TIP3   OH235961   4.205   1.225  16.061  0.2831 -0.1098 -0.3404
 4849TIP3    H135962   4.296   1.236  16.034  0.6616 -1.1961  0.4219
 4849TIP3    H235963   4.163   1.309  16.040  1.8177  0.9811  0.7397
 4850TIP3   OH235964   3.241   5.404  14.110  0.1446 -0.1802 -0.0818
 4850TIP3    H135965   3.215   5.415  14.201  0.9815  1.2382  0.0154
 4850TIP3    H235966   3.201   5.478  14.064  1.5425  0.3866 -0.4382
 4851TIP3   OH235967   4.166   3.501   2.078  0.2925 -0.0219  0.6008
 4851TIP3    H135968   4.188   3.567   2.012 -0.0861  0.1219  0.6150
 4851TIP3    H235969   4.078   3.472   2.053  1.5163 -2.6399 -1.1593
 4852TIP3   OH235970   3.882   3.509  11.209 -0.0091  0.1814  0.2483
 4852TIP3    H135971   3.907   3.417  11.217 -0.2884  0.1656  1.0077
 4852TIP3    H235972   3.962   3.557  11.227 -0.0539  0.0960  0.6907
 4853TIP3   OH235973   2.974   4.612  14.755  0.0826  0.0433 -0.0081
 4853TIP3    H135974   2.895   4.659  14.728  0.3306 -0.1304 -1.0553
 4853TIP3    H235975   3.039   4.635  14.690  1.1275  0.7753  1.2582
 4854TIP3   OH235976   1.787   2.020   2.445  0.2551  0.2861  0.2150
 4854TIP3    H135977   1.864   2.020   2.501  1.7474  2.9812 -1.5969
 4854TIP3    H235978   1.731   2.089   2.482  0.0303  0.2655 -0.0834
 4855TIP3   OH235979   4.127   2.539  15.943  0.0772  0.0265 -0.1749
 4855TIP3    H135980   4.209   2.545  15.991  1.5249  1.2393 -2.5925
 4855TIP3    H235981   4.076   2.613  15.973  1.0814  0.9508 -0.6885
 4856TIP3   OH235982   0.901   6.180   1.678  0.2369  0.4819 -0.8809
 4856TIP3    H135983   0.989   6.142   1.671 -0.3690 -0.9139 -1.1857
 4856TIP3    H235984   0.847   6.109   1.713 -0.3118  2.0555  1.7568
 4857TIP3   OH235985   4.998   2.852   1.128 -0.0779 -0.2268 -0.1711
 4857TIP3    H135986   5.032   2.865   1.217  0.7556 -1.2537 -0.3219
 4857TIP3    H235987   5.063   2.895   1.072 -0.6912  0.5700 -0.2920
 4858TIP3   OH235988   3.681   1.269   3.264 -0.6605 -0.5019  0.1079
 4858TIP3    H135989   3.616   1.332   3.294 -0.9285 -0.1840 -1.0694
 4858TIP3    H235990   3.750   1.322   3.225  0.6557 -0.8015  1.9022
 4859TIP3   OH235991   2.947   5.793  17.357  0.0327 -0.3822 -0.2483
 4859TIP3    H135992   2.906   5.876  17.333 -0.7105 -0.7628 -0.3066
 4859TIP3    H235993   2.946   5.742  17.276  2.0176  0.1488 -0.6636
 4860TIP3   OH235994   6.500   6.191   5.638 -0.1591  0.3449  0.3325
 4860TIP3    H135995   6.468   6.276   5.606 -1.7225 -1.1878 -2.5721
 4860TIP3    H235996   6.579   6.175   5.587 -0.7267 -0.5842 -0.2878
 4861TIP3   OH235997   4.066   4.512  12.172 -0.5592 -0.3487  0.8258
 4861TIP3    H135998   4.040   4.431  12.216  1.5108 -1.0869  0.7927
 4861TIP3    H235999   4.135   4.485  12.111  0.0439  1.4075  0.6785
 4862TIP3   OH236000   3.909   3.031   2.554 -1.0248 -0.3749  0.0385
 4862TIP3    H136001   3.961   2.951   2.558 -0.4197  0.0289  0.4226
 4862TIP3    H236002   3.911   3.056   2.462 -0.3212 -0.2324  0.0822
 4863TIP3   OH236003   3.174   3.013  13.776  0.1394  0.0172 -0.2354
 4863TIP3    H136004   3.236   2.976  13.713 -0.0317  0.2802 -0.5592
 4863TIP3    H236005   3.106   3.053  13.723  0.3480  0.8510  0.1128
 4864TIP3   OH236006   4.900   2.173  13.061  0.1188 -0.1863 -0.8646
 4864TIP3    H136007   4.914   2.265  13.039 -0.5430  0.2413  0.3937
 4864TIP3    H236008   4.895   2.128  12.977  1.5440  0.7492 -1.4921
 4865TIP3   OH236009   3.432   5.897   6.370  0.1389 -0.1423 -0.7072
 4865TIP3    H136010   3.412   5.806   6.348  2.0139 -1.4137  2.1911
 4865TIP3    H236011   3.351   5.945   6.351 -1.7483 -2.8489 -0.1177
 4866TIP3   OH236012   6.597   4.760  15.517  0.1156  0.7843 -0.0742
 4866TIP3    H136013   6.530   4.730  15.455 -0.6424  1.4419  0.4063
 4866TIP3    H236014   6.666   4.694  15.512 -1.8925 -1.6709  1.6825
 4867TIP3   OH236015   0.183   3.501   5.888 -0.1780 -0.0790 -0.0724
 4867TIP3    H136016   0.221   3.551   5.960 -0.3314 -0.8073  0.5363
 4867TIP3    H236017   0.180   3.562   5.815 -2.0024  1.3474  1.1052
 4868TIP3   OH236018   2.794   6.686   4.320  0.3814  0.2626 -0.2929
 4868TIP3    H136019   2.704   6.671   4.291  0.5184 -0.7329 -0.2300
 4868TIP3    H236020   2.815   6.610   4.374  0.9509  0.9323  0.4585
 4869TIP3   OH236021   2.806   3.313   3.335 -0.0289 -0.3061 -0.4821
 4869TIP3    H136022   2.864   3.248   3.374  1.2369  1.6444  1.1139
 4869TIP3    H236023   2.718   3.286   3.360  0.4616 -1.4063  0.1063
 4870TIP3   OH236024   6.635   4.378  13.666 -0.6103  0.1552  0.3481
 4870TIP3    H136025   6.647   4.473  13.661  1.4547 -0.0768 -0.1459
 4870TIP3    H236026   6.690   4.352  13.740  0.1434 -0.8102 -0.5235
 4871TIP3   OH236027   6.733   1.472  11.291 -0.3606 -0.2132  0.2757
 4871TIP3    H136028   6.669   1.415  11.248 -0.1339 -0.6993  0.5668
 4871TIP3    H236029   6.696   1.560  11.284 -0.1891 -0.2367 -1.1652
 4872TIP3   OH236030   1.377   2.788  14.030  0.1259  0.4212 -0.7287
 4872TIP3    H136031   1.460   2.758  13.993 -0.5993 -2.4925 -0.2676
 4872TIP3    H236032   1.344   2.852  13.967  0.9533 -1.2038 -2.9454
 4873TIP3   OH236033   0.877   4.083  15.238  0.1034 -0.4527 -0.0719
 4873TIP3    H136034   0.848   4.004  15.192  0.0001  0.1639 -1.1008
 4873TIP3    H236035   0.797   4.131  15.257  0.3202  1.2574 -2.9285
 4874TIP3   OH236036   0.359   4.044   3.497  0.0871 -0.2322 -0.5823
 4874TIP3    H136037   0.353   4.012   3.407  0.1451  2.2862 -1.5494
 4874TIP3    H236038   0.334   4.136   3.492  0.1294 -0.0087  1.9934
 4875TIP3   OH236039   6.266   5.817  12.082 -0.0373 -0.6099  0.7365
 4875TIP3    H136040   6.295   5.892  12.134 -1.1692  0.3286  0.0737
 4875TIP3    H236041   6.283   5.843  11.991 -2.9153  0.0950  0.2740
 4876TIP3   OH236042   3.970   5.618   0.260  0.0147  0.2348  0.1954
 4876TIP3    H136043   3.961   5.672   0.181  0.2974  0.7499  0.5136
 4876TIP3    H236044   4.013   5.538   0.229 -2.4110 -0.8318 -0.7177
 4877TIP3   OH236045   3.509   4.422  16.888 -0.5573  0.1719 -0.5758
 4877TIP3    H136046   3.560   4.365  16.945  0.6854 -0.0796 -1.8730
 4877TIP3    H236047   3.419   4.391  16.899 -0.3406  0.0288  1.0790
 4878TIP3   OH236048   0.901   3.188  12.188  0.3503  0.2423 -0.0724
 4878TIP3    H136049   0.851   3.254  12.235  1.2498 -0.0066  1.2916
 4878TIP3    H236050   0.978   3.235  12.156 -0.4721  0.5165 -1.7517
 4879TIP3   OH236051   3.295   1.437   1.628  0.5735 -0.1815  0.1530
 4879TIP3    H136052   3.270   1.398   1.711  0.4534 -0.4321  0.0032
 4879TIP3    H236053   3.292   1.531   1.643  0.5372 -0.2256  0.4260
 4880TIP3   OH236054   3.772   1.801  12.008 -0.1894  0.7067 -0.0198
 4880TIP3    H136055   3.807   1.741  11.942 -0.0411  0.2399  0.4844
 4880TIP3    H236056   3.818   1.779  12.088  2.5895  3.8840 -0.5209
 4881TIP3   OH236057   2.837   4.236   2.389  0.6684  0.3491 -0.4783
 4881TIP3    H136058   2.745   4.209   2.396  0.7826  0.0695  0.0062
 4881TIP3    H236059   2.845   4.311   2.447  0.8038  0.2150 -0.3218
 4882TIP3   OH236060   3.426   4.991  16.745 -0.6916 -0.1725 -0.0242
 4882TIP3    H136061   3.484   5.046  16.798  0.2305 -0.4755 -0.6838
 4882TIP3    H236062   3.451   4.901  16.768  0.9990 -0.3587 -2.1916
 4883TIP3   OH236063   0.383   6.713   1.038  0.1015  0.5291 -0.0642
 4883TIP3    H136064   0.344   6.798   1.015 -1.2393 -0.2526 -0.7709
 4883TIP3    H236065   0.354   6.654   0.969 -0.6775 -0.9771  1.4909
 4884TIP3   OH236066   5.078   1.568  13.549  0.0594 -0.0689  0.2042
 4884TIP3    H136067   5.161   1.617  13.549 -0.7581  1.3838  1.3715
 4884TIP3    H236068   5.077   1.523  13.634 -0.5291  0.2844  0.3926
 4885TIP3   OH236069   4.689   1.783   1.484 -0.5019 -0.4251 -0.1271
 4885TIP3    H136070   4.651   1.783   1.396  1.4476  0.6447 -1.0566
 4885TIP3    H236071   4.716   1.692   1.499 -1.0292 -0.6548 -0.5551
 4886TIP3   OH236072   3.206   3.020  16.351  0.2340  0.8164  0.4804
 4886TIP3    H136073   3.187   2.989  16.439 -2.8804  2.6086  0.6130
 4886TIP3    H236074   3.126   3.002  16.302  2.1646 -0.9118 -2.3187
 4887TIP3   OH236075   0.422   3.649   4.244  0.3602 -0.5067  0.4064
 4887TIP3    H136076   0.381   3.567   4.272 -0.9383  0.2447  0.7699
 4887TIP3    H236077   0.448   3.691   4.326 -1.8219  0.8626  0.4724
 4888TIP3   OH236078   6.532   3.765  14.344  0.1810 -0.2110 -0.2111
 4888TIP3    H136079   6.566   3.814  14.269  1.9582  1.5289  1.6109
 4888TIP3    H236080   6.440   3.789  14.348 -0.0728 -0.7291 -2.0966
 4889TIP3   OH236081   6.011   5.312  12.553 -0.0578  0.7931  0.7446
 4889TIP3    H136082   5.989   5.253  12.625 -2.5884  0.3265 -0.3078
 4889TIP3    H236083   5.930   5.361  12.537  0.1356  0.2883 -2.3017
 4890TIP3   OH236084   3.803   2.983   5.549  0.3482 -0.0137 -0.0682
 4890TIP3    H136085   3.847   2.936   5.620 -0.3145  1.8638  1.6574
 4890TIP3    H236086   3.714   2.999   5.580 -0.1010  0.4869 -1.4965
 4891TIP3   OH236087   4.296   4.944   4.157  0.2605 -0.2663  0.3989
 4891TIP3    H136088   4.318   4.984   4.073  0.1472  1.0085  0.9534
 4891TIP3    H236089   4.220   4.888   4.138  0.6513 -0.5151 -0.4658
 4892TIP3   OH236090   6.437   6.337   4.474  0.3019 -0.2627  0.0931
 4892TIP3    H136091   6.501   6.363   4.407 -0.4912  0.4082 -0.4217
 4892TIP3    H236092   6.357   6.319   4.425 -0.4187  0.6757  0.8871
 4893TIP3   OH236093   5.351   3.245   6.149 -0.2391  0.3200 -0.2914
 4893TIP3    H136094   5.273   3.268   6.100 -0.8488 -0.8222  0.1097
 4893TIP3    H236095   5.319   3.198   6.226  0.8127  0.1696  0.0780
 4894TIP3   OH236096   6.236   3.875  12.778  0.8478  0.4657 -0.7829
 4894TIP3    H136097   6.254   3.969  12.773  0.1098  0.7874  1.3444
 4894TIP3    H236098   6.304   3.842  12.836  0.5227 -0.1193 -0.7320
 4895TIP3   OH236099   1.642   3.777   6.017 -0.6592 -0.3331  0.2243
 4895TIP3    H136100   1.657   3.740   6.104 -1.0186 -1.1311 -0.0412
 4895TIP3    H236101   1.682   3.714   5.957  2.6143  1.8146 -0.1026
 4896TIP3   OH236102   3.482   3.554   2.955 -0.4141 -0.3633  0.6212
 4896TIP3    H136103   3.434   3.508   2.885 -0.6655  0.6817  0.0879
 4896TIP3    H236104   3.530   3.623   2.909  0.9718 -0.8719  1.2581
 4897TIP3   OH236105   2.545   6.401  15.686  0.5558  0.7549  0.2466
 4897TIP3    H136106   2.495   6.364  15.613  2.8466 -0.3054 -0.8595
 4897TIP3    H236107   2.509   6.489  15.697 -1.6748  0.0025 -0.3175
 4898TIP3   OH236108   3.924   4.285  17.278 -0.4226 -0.3729 -0.1726
 4898TIP3    H136109   3.869   4.329  17.212  0.0688 -0.5460 -0.7018
 4898TIP3    H236110   4.003   4.260  17.230  0.1808 -0.0108  0.6160
 4899TIP3   OH236111   3.027   1.009   4.247 -0.2426 -0.1573 -0.2484
 4899TIP3    H136112   2.963   0.974   4.185 -1.1979  1.4044 -0.2036
 4899TIP3    H236113   2.983   1.008   4.331  0.9011 -1.8615  0.3735
 4900TIP3   OH236114   5.492   3.120  13.471 -0.1492  0.0581 -0.5601
 4900TIP3    H136115   5.459   3.039  13.511  1.3204 -1.1898 -1.7123
 4900TIP3    H236116   5.557   3.153  13.533 -0.9761  0.5523  0.0598
 4901TIP3   OH236117   0.733   1.807  12.443 -0.4662 -0.4574  0.3688
 4901TIP3    H136118   0.703   1.742  12.380 -0.1018 -0.3917  0.1243
 4901TIP3    H236119   0.828   1.806  12.436 -0.3680 -1.1153  1.6017
 4902TIP3   OH236120   5.839   0.312   0.123 -0.2521  0.5490  0.0740
 4902TIP3    H136121   5.859   0.296   0.031  1.4208  2.5730  0.0169
 4902TIP3    H236122   5.854   0.228   0.166 -0.6099 -0.3085 -1.3915
 4903TIP3   OH236123   0.271   3.032   5.492  0.4425  0.0096 -0.1417
 4903TIP3    H136124   0.304   2.949   5.458 -1.6822 -0.6500 -0.8034
 4903TIP3    H236125   0.309   3.039   5.579  3.7321  0.3027 -1.4834
 4904TIP3   OH236126   4.003   5.687  14.570 -0.9806  0.0376  0.2547
 4904TIP3    H136127   4.090   5.726  14.574 -1.4466  1.0116  2.1745
 4904TIP3    H236128   4.018   5.593  14.578 -0.1354  0.2599  1.5555
 4905TIP3   OH236129   1.161   5.757   4.777  0.1544  0.1819 -0.2030
 4905TIP3    H136130   1.248   5.726   4.802 -0.1227 -1.3356 -1.0477
 4905TIP3    H236131   1.130   5.693   4.714 -1.8031  0.4013  0.4884
 4906TIP3   OH236132   2.366   1.073  11.815  0.1126  0.3710 -0.6257
 4906TIP3    H136133   2.455   1.051  11.790  0.2750 -0.6050  0.6562
 4906TIP3    H236134   2.374   1.111  11.903 -0.7936 -0.9622  0.0962
 4907TIP3   OH236135   5.876   3.715  14.821  0.0102  0.1778 -0.3995
 4907TIP3    H136136   5.938   3.656  14.779  0.2031  1.0053 -1.3145
 4907TIP3    H236137   5.899   3.711  14.914 -1.4990 -2.9650 -0.0157
 4908TIP3   OH236138   0.811   6.406  14.597  0.6359  0.0213  0.5257
 4908TIP3    H136139   0.904   6.397  14.580  0.7621  0.4419  0.9819
 4908TIP3    H236140   0.768   6.366  14.521  1.1421  3.4440 -1.7735
 4909TIP3   OH236141   1.570   3.305   0.744  0.2737 -0.9770  0.2125
 4909TIP3    H136142   1.612   3.323   0.660 -1.8143  0.7893 -0.5501
 4909TIP3    H236143   1.598   3.377   0.801  0.3761 -1.2533  0.5150
 4910TIP3   OH236144   3.939   1.694   3.560 -0.5341 -0.0235 -0.1890
 4910TIP3    H136145   4.034   1.696   3.547 -0.3745  1.4782  0.9816
 4910TIP3    H236146   3.913   1.609   3.525  1.2652 -0.5587 -0.3727
 4911TIP3   OH236147   5.782   2.985   1.835  0.6491  0.2270 -0.0017
 4911TIP3    H136148   5.702   2.974   1.783  0.3696  0.3947  0.3946
 4911TIP3    H236149   5.834   2.907   1.813 -0.7486 -1.3038  1.7478
 4912TIP3   OH236150   0.937   4.782   2.999 -0.5167 -0.3328 -0.1783
 4912TIP3    H136151   0.912   4.841   3.071 -0.1843  0.4344 -0.6764
 4912TIP3    H236152   0.957   4.699   3.043 -0.9926 -0.0824  0.5418
 4913TIP3   OH236153   4.126   1.766  14.429  0.4884 -0.0065  0.3312
 4913TIP3    H136154   4.141   1.673  14.444  1.5060  0.3352  1.6712
 4913TIP3    H236155   4.133   1.778  14.335 -0.7102 -1.4410  0.0287
 4914TIP3   OH236156   2.964   5.671  14.825  0.0706  0.2415  0.3004
 4914TIP3    H136157   2.893   5.730  14.799 -0.7097  0.1616  2.1119
 4914TIP3    H236158   2.928   5.583  14.814  0.6069  0.1358 -0.6876
 4915TIP3   OH236159   6.267   2.849   0.904 -0.2570  0.2977 -0.0449
 4915TIP3    H136160   6.237   2.761   0.928 -2.3299  0.3738 -2.0986
 4915TIP3    H236161   6.189   2.903   0.906  0.9650  2.1312  1.0375
 4916TIP3   OH236162   3.914   4.851   2.067 -0.3752  0.0688 -0.1005
 4916TIP3    H136163   3.931   4.776   2.123  1.1157 -0.6429 -1.4095
 4916TIP3    H236164   3.925   4.817   1.978 -0.7173  1.5981 -0.7642
 4917TIP3   OH236165   4.278   2.429   4.542 -0.1098  0.0383 -0.3163
 4917TIP3    H136166   4.226   2.457   4.617  0.3678 -1.3503  0.5826
 4917TIP3    H236167   4.321   2.349   4.572  0.1481 -0.5129 -2.0597
 4918TIP3   OH236168   3.165   6.455   1.548 -0.1408 -0.6546 -0.3208
 4918TIP3    H136169   3.124   6.541   1.537 -0.0811 -0.0194  3.1710
 4918TIP3    H236170   3.112   6.395   1.496  0.1058  1.4766 -3.2589
 4919TIP3   OH236171   0.193   2.842  14.196 -0.0536 -0.0862  0.6378
 4919TIP3    H136172   0.173   2.855  14.103 -2.5832  0.0609  1.1326
 4919TIP3    H236173   0.258   2.909  14.216 -0.3151  0.6191 -0.7619
 4920TIP3   OH236174   3.743   2.465  12.125  0.5160  0.6159  0.5926
 4920TIP3    H136175   3.741   2.560  12.132 -0.0074  0.5333  1.8675
 4920TIP3    H236176   3.822   2.446  12.074  1.2835  1.6739  1.3508
 4921TIP3   OH236177   6.039   0.885  15.211  0.5635  0.3134  0.1105
 4921TIP3    H136178   6.009   0.825  15.143 -1.2066 -0.5712  1.5943
 4921TIP3    H236179   6.120   0.844  15.244 -0.3801 -1.0909  0.8035
 4922TIP3   OH236180   2.991   1.908  14.222 -0.7996 -0.5634  0.0973
 4922TIP3    H136181   2.996   1.975  14.153 -0.6720  0.5302  1.1233
 4922TIP3    H236182   3.058   1.934  14.285 -2.7094  0.0893  1.9769
 4923TIP3   OH236183   5.589   4.035  15.042 -0.0157 -0.1657 -0.1385
 4923TIP3    H136184   5.533   4.101  15.082  1.5751  1.4208 -0.4115
 4923TIP3    H236185   5.528   3.967  15.013 -1.6987  1.0484  0.3596
 4924TIP3   OH236186   6.213   0.092  11.683  0.1310  0.5064 -0.3378
 4924TIP3    H136187   6.283   0.033  11.656 -0.8455 -1.0024  0.2620
 4924TIP3    H236188   6.133   0.048  11.655 -0.7228  0.5976  1.7458
 4925TIP3   OH236189   0.670   4.031  14.643 -0.0012 -0.0065  0.8973
 4925TIP3    H136190   0.729   3.997  14.710  0.1333  0.1108  0.8384
 4925TIP3    H236191   0.710   4.113  14.614  0.8419 -0.8814 -0.5236
 4926TIP3   OH236192   4.445   5.678   6.134  0.2686  0.5850  0.4661
 4926TIP3    H136193   4.374   5.693   6.071  1.5730  1.9360 -0.7796
 4926TIP3    H236194   4.450   5.760   6.183  0.5149  0.2308  1.0423
 4927TIP3   OH236195   2.833   0.908  16.254  0.3952 -0.3059  0.4210
 4927TIP3    H136196   2.810   0.839  16.192 -1.3039  0.6403 -0.0566
 4927TIP3    H236197   2.788   0.986  16.221  1.6078  0.8551  1.3933
 4928TIP3   OH236198   2.639   5.693  15.474  0.0199  0.0149 -0.2488
 4928TIP3    H136199   2.728   5.693  15.508 -0.5504 -2.2362  1.5440
 4928TIP3    H236200   2.633   5.613  15.421 -1.5767 -1.3874  1.8688
 4929TIP3   OH236201   6.491   4.578  12.033 -0.3167 -0.1889 -0.0318
 4929TIP3    H136202   6.584   4.567  12.048  0.2748  1.4470 -1.9883
 4929TIP3    H236203   6.463   4.495  11.993  0.4835 -0.3947 -0.1747
 4930TIP3   OH236204   2.355   2.570  17.207 -0.6314 -0.2095 -0.4218
 4930TIP3    H136205   2.430   2.526  17.167 -0.9727 -0.0604 -1.2361
 4930TIP3    H236206   2.316   2.504  17.264 -1.0363 -0.9266 -1.4986
 4931TIP3   OH236207   3.418   4.093  14.380  0.3366  0.0857  0.0618
 4931TIP3    H136208   3.351   4.157  14.354  1.3382  0.9603 -0.4691
 4931TIP3    H236209   3.479   4.091  14.306  0.4295 -1.3673  0.1537
 4932TIP3   OH236210   2.242   3.239  11.071  0.7001 -0.0590 -0.4619
 4932TIP3    H136211   2.187   3.174  11.116  0.8874 -0.1352 -0.3450
 4932TIP3    H236212   2.294   3.278  11.141 -0.9146  1.7314 -0.1690
 4933TIP3   OH236213   1.221   6.134  13.329 -0.0888  0.2286 -0.1440
 4933TIP3    H136214   1.158   6.205  13.321  1.5781  1.6572 -1.3789
 4933TIP3    H236215   1.254   6.121  13.240  1.5945 -0.2056  0.5076
 4934TIP3   OH236216   4.469   3.100   0.618  0.2880 -0.2684 -0.4828
 4934TIP3    H136217   4.441   3.179   0.572 -2.0352 -0.3840  0.5836
 4934TIP3    H236218   4.526   3.132   0.687  0.3556  0.3455 -0.8085
 4935TIP3   OH236219   1.507   5.940   6.614  0.2199 -0.3732 -0.0489
 4935TIP3    H136220   1.463   5.993   6.680  1.9921  0.2422  0.6884
 4935TIP3    H236221   1.456   5.859   6.610 -0.1094 -0.3004  1.8599
 4936TIP3   OH236222   5.896   0.203  17.294  0.1293  0.1833 -0.0940
 4936TIP3    H136223   5.919   0.110  17.283 -0.0451  0.3389 -2.0334
 4936TIP3    H236224   5.816   0.214  17.243 -0.8262  1.0490  1.5231
 4937TIP3   OH236225   5.907   3.253   4.486  0.0070  0.0954  0.6948
 4937TIP3    H136226   5.823   3.227   4.447 -1.6709  2.8580  2.1796
 4937TIP3    H236227   5.941   3.320   4.426  1.5948 -1.4871 -0.2670
 4938TIP3   OH236228   3.276   5.036   2.943  0.6552  0.5809  0.4016
 4938TIP3    H136229   3.249   5.057   2.854  1.4716  0.4260  0.1071
 4938TIP3    H236230   3.271   4.940   2.948  0.9817  0.5629  0.3968
 4939TIP3   OH236231   5.361   2.813  13.922  0.0370 -0.7238  0.0667
 4939TIP3    H136232   5.434   2.818  13.984  2.2346 -0.6244 -2.3696
 4939TIP3    H236233   5.329   2.903  13.915  1.8786 -0.1362 -1.2520
 4940TIP3   OH236234   5.388   3.546   3.552 -0.9024 -0.5587 -0.1825
 4940TIP3    H136235   5.382   3.489   3.629 -3.1318 -0.9369 -0.5802
 4940TIP3    H236236   5.333   3.504   3.486  0.5507  0.0257 -1.8598
 4941TIP3   OH236237   1.025   2.758   1.317 -0.0516  0.3750 -0.6198
 4941TIP3    H136238   1.027   2.847   1.354 -1.6007  0.6736 -1.1582
 4941TIP3    H236239   1.072   2.766   1.234 -1.1140  0.9950 -1.1918
 4942TIP3   OH236240   3.982   1.237  14.878  0.4939 -0.5783 -0.3173
 4942TIP3    H136241   3.914   1.169  14.883  0.2381 -0.2158  1.8625
 4942TIP3    H236242   4.038   1.221  14.953  1.7185  0.3203 -1.0091
 4943TIP3   OH236243   2.802   6.398   3.733  0.1307  0.3772 -0.2734
 4943TIP3    H136244   2.867   6.396   3.663  1.9289 -0.1176  1.3328
 4943TIP3    H236245   2.747   6.320   3.717 -0.9285  1.4557 -2.3379
 4944TIP3   OH236246   2.081   3.474  12.349 -0.2896  0.0211  0.0159
 4944TIP3    H136247   2.026   3.496  12.424  0.1591 -1.1913  0.7323
 4944TIP3    H236248   2.110   3.384  12.366  0.7807  0.1401 -1.0260
 4945TIP3   OH236249   2.716   0.727   0.920 -0.4831 -0.5292  0.1551
 4945TIP3    H136250   2.688   0.696   1.006 -0.8114 -0.5409  0.0453
 4945TIP3    H236251   2.648   0.697   0.860 -0.2888 -0.4652 -0.1006
 4946TIP3   OH236252   4.632   1.654   1.951  0.3624 -0.2832 -0.2803
 4946TIP3    H136253   4.598   1.567   1.933 -0.3134 -0.1108  0.1360
 4946TIP3    H236254   4.575   1.689   2.020  1.5095 -0.0736  0.5998
 4947TIP3   OH236255   4.520   6.112  11.487 -0.4922 -0.3938  0.4247
 4947TIP3    H136256   4.451   6.064  11.441 -0.4642 -0.7051  0.7043
 4947TIP3    H236257   4.601   6.080  11.447 -0.4567 -0.8198  0.8287
 4948TIP3   OH236258   6.151   3.507  14.179  0.2700 -0.0718  0.1908
 4948TIP3    H136259   6.214   3.471  14.116  0.6786 -0.7530  0.9791
 4948TIP3    H236260   6.099   3.432  14.207 -2.4044  0.7597 -2.0276
 4949TIP3   OH236261   0.690   4.010   4.286  0.1147  0.0095 -0.1370
 4949TIP3    H136262   0.623   4.056   4.337  0.8141  1.2562 -0.3124
 4949TIP3    H236263   0.733   3.952   4.348 -1.1509 -0.8732 -0.0309
 4950TIP3   OH236264   1.643   4.852   1.928  0.1247 -0.2111 -0.0419
 4950TIP3    H136265   1.581   4.796   1.880  1.4130 -0.5249 -1.3987
 4950TIP3    H236266   1.655   4.928   1.871  1.6994 -0.5978 -0.2577
 4951TIP3   OH236267   4.659   0.842   2.006  0.1906 -0.2317 -0.1655
 4951TIP3    H136268   4.705   0.849   1.922 -0.0478 -0.5087 -0.3194
 4951TIP3    H236269   4.716   0.786   2.059  0.8215  0.7311  0.1902
 4952TIP3   OH236270   4.840   1.873  11.661  0.3436 -0.3804  0.0230
 4952TIP3    H136271   4.853   1.952  11.609 -2.0470 -0.2157 -0.4315
 4952TIP3    H236272   4.824   1.906  11.750  0.8247 -0.4363  0.1289
 4953TIP3   OH236273   3.092   4.510   5.594 -0.1079 -0.3366 -0.2728
 4953TIP3    H136274   3.155   4.509   5.666 -0.1950 -2.2454 -0.1667
 4953TIP3    H236275   3.013   4.470   5.630 -1.6317  2.4359 -0.2714
 4954TIP3   OH236276   3.931   1.722  14.754  0.3390  0.0969 -0.1170
 4954TIP3    H136277   4.025   1.721  14.739 -0.1602 -0.7694 -4.2586
 4954TIP3    H236278   3.905   1.812  14.736  0.1288 -0.2055 -1.4002
 4955TIP3   OH236279   1.361   3.047  13.174  0.5435 -0.5065 -0.1892
 4955TIP3    H136280   1.334   3.006  13.092  0.0752 -0.2341 -0.1779
 4955TIP3    H236281   1.334   2.985  13.241  1.9575 -1.2670 -0.2862
 4956TIP3   OH236282   0.096   5.649   3.607 -0.3075 -0.4227  0.1939
 4956TIP3    H136283   0.018   5.613   3.648  0.3226 -2.2398 -0.0979
 4956TIP3    H236284   0.093   5.615   3.517  0.7339 -0.4009  0.1424
 4957TIP3   OH236285   3.096   4.780   1.574 -0.6714 -0.4612 -0.3158
 4957TIP3    H136286   3.120   4.688   1.581  0.0081 -0.2524  0.2793
 4957TIP3    H236287   3.126   4.819   1.656  3.3078  1.1945 -2.2909
 4958TIP3   OH236288   2.803   1.990  14.778 -0.1845  0.0922  0.3859
 4958TIP3    H136289   2.776   1.917  14.835  1.2395 -0.3896  0.4982
 4958TIP3    H236290   2.852   1.948  14.708  0.0267  0.8904  0.0518
 4959TIP3   OH236291   2.022   5.503  15.401 -0.3487  0.0717 -0.6856
 4959TIP3    H136292   1.950   5.562  15.422 -0.1802  0.3722 -0.9249
 4959TIP3    H236293   2.033   5.448  15.478 -0.7654  0.0953 -0.6120
 4960TIP3   OH236294   0.551   1.822  15.733 -0.2656  0.1148  0.5376
 4960TIP3    H136295   0.618   1.877  15.773  0.1104 -0.1616  0.2966
 4960TIP3    H236296   0.586   1.801  15.646  0.2156 -1.5956  1.1087
 4961TIP3   OH236297   1.652   3.477   5.246  0.1532 -0.5318  0.0177
 4961TIP3    H136298   1.741   3.493   5.216  0.4321 -1.1155  0.5255
 4961TIP3    H236299   1.597   3.500   5.170  0.7517 -0.5959 -0.4439
 4962TIP3   OH236300   4.134   3.114  12.296 -0.6915 -0.0451  0.4834
 4962TIP3    H136301   4.107   3.084  12.209 -1.6822  0.4556  0.6023
 4962TIP3    H236302   4.052   3.137  12.340 -0.0754  1.6497  0.8321
 4963TIP3   OH236303   3.802   6.163  16.862 -0.0445  0.2691  0.1601
 4963TIP3    H136304   3.754   6.101  16.918  0.7736 -1.4623 -0.9573
 4963TIP3    H236305   3.820   6.113  16.782 -1.9826  2.9149 -2.1114
 4964TIP3   OH236306   5.559   4.677  14.951 -0.4868 -0.1327 -0.1024
 4964TIP3    H136307   5.531   4.767  14.965 -0.5924 -0.2167  0.2351
 4964TIP3    H236308   5.652   4.676  14.973 -0.4193 -0.0481 -0.3748
 4965TIP3   OH236309   3.776   6.530  14.084 -0.0408  0.0055  0.3434
 4965TIP3    H136310   3.748   6.460  14.143  0.0464  1.1605  1.8117
 4965TIP3    H236311   3.719   6.603  14.105  1.4967  1.1614  0.6425
 4966TIP3   OH236312   1.364   1.332  16.466  0.4207  0.3146  0.2087
 4966TIP3    H136313   1.376   1.376  16.550  0.0515 -0.2633  0.5725
 4966TIP3    H236314   1.275   1.296  16.470  1.1702 -1.6446  0.5104
 4967TIP3   OH236315   2.491   5.708  16.135  0.5891  0.5072  0.0251
 4967TIP3    H136316   2.423   5.674  16.077  0.4194  0.6708  0.1258
 4967TIP3    H236317   2.444   5.768  16.194  0.5405 -0.5081  1.0678
 4968TIP3   OH236318   1.648   6.682  16.525 -0.3350  0.6475  0.0445
 4968TIP3    H136319   1.655   6.762  16.473  1.4113  0.5111 -0.0023
 4968TIP3    H236320   1.728   6.634  16.506 -1.5247 -1.3165 -0.2062
 4969TIP3   OH236321   6.600   4.972  14.921  0.1357  0.1513 -0.3041
 4969TIP3    H136322   6.534   4.981  14.852 -1.1712  1.3084  1.0281
 4969TIP3    H236323   6.575   5.038  14.986  2.6412  0.6450  0.2535
 4970TIP3   OH236324   4.032   3.807  14.755  0.1832 -0.6281 -0.2799
 4970TIP3    H136325   4.090   3.790  14.829 -1.2565 -2.9730  0.3982
 4970TIP3    H236326   4.073   3.761  14.681  1.2379  1.1111 -0.8461
 4971TIP3   OH236327   3.881   0.082   2.377 -0.4765 -0.0717  0.0268
 4971TIP3    H136328   3.975   0.067   2.385 -0.3588  0.5734 -0.1045
 4971TIP3    H236329   3.845   0.055   2.462  0.0651  1.4318  0.7691
 4972TIP3   OH236330   4.450   5.778  14.292 -0.4660  0.2370  1.0125
 4972TIP3    H136331   4.507   5.728  14.350 -0.1279  1.1282  1.4469
 4972TIP3    H236332   4.508   5.836  14.244 -0.8020 -0.1252  0.1391
 4973TIP3   OH236333   3.925   3.783  11.392  0.1739  0.2789 -0.1204
 4973TIP3    H136334   3.861   3.758  11.459  0.5423  1.5254  0.7198
 4973TIP3    H236335   3.871   3.818  11.320 -0.1703 -0.1189 -0.0589
 4974TIP3   OH236336   6.346   6.652  11.183  0.2637 -0.5554 -0.2619
 4974TIP3    H136337   6.327   6.742  11.157 -2.1657 -0.3180  1.9506
 4974TIP3    H236338   6.429   6.658  11.230 -0.3014  0.7133  0.6258
 4975TIP3   OH236339   6.520   4.034  12.516 -0.5053  0.0305  0.2979
 4975TIP3    H136340   6.556   4.082  12.590 -0.0667 -0.2473  0.2697
 4975TIP3    H236341   6.426   4.055  12.517 -1.0405 -2.0138  2.5220
 4976TIP3   OH236342   1.742   0.874  17.384 -0.0678 -0.1780  0.1125
 4976TIP3    H136343   1.807   0.915  17.441 -0.4352  0.5458  0.0300
 4976TIP3    H236344   1.661   0.924  17.399  0.1028  0.8236 -1.8912
 4977TIP3   OH236345   5.665   4.682  11.698  0.4197  0.0505  0.3702
 4977TIP3    H136346   5.601   4.641  11.639 -0.1075 -0.1673  1.0862
 4977TIP3    H236347   5.618   4.695  11.780  1.1349  0.4017  0.7344
 4978TIP3   OH236348   1.005   6.541  10.888 -0.2525 -0.1879  0.2179
 4978TIP3    H136349   0.948   6.466  10.903  0.0867 -0.5619 -0.3574
 4978TIP3    H236350   0.946   6.610  10.856 -0.4192 -0.4953 -0.1376
 4979TIP3   OH236351   5.523   1.799  16.705  0.1467  0.0687  0.0791
 4979TIP3    H136352   5.466   1.739  16.657  1.8417  0.3397 -2.4661
 4979TIP3    H236353   5.488   1.886  16.685  0.0786  0.1300  0.4528
 4980TIP3   OH236354   5.242   3.444  16.691  0.5267  0.2769  0.3759
 4980TIP3    H136355   5.235   3.416  16.782 -0.8911 -1.0209 -0.0923
 4980TIP3    H236356   5.297   3.377  16.650  1.5905  1.1317  0.3427
 4981TIP3   OH236357   0.560   1.613   4.168  0.0730  0.0349  0.0240
 4981TIP3    H136358   0.539   1.616   4.262  0.4084  1.6432  0.0803
 4981TIP3    H236359   0.601   1.528   4.155 -0.5410 -0.4665  1.2115
 4982TIP3   OH236360   6.035   6.019  16.174 -0.2544  0.4922 -0.0611
 4982TIP3    H136361   6.012   5.968  16.097  1.1262  0.7207 -0.6540
 4982TIP3    H236362   6.090   6.089  16.140 -0.4432  1.1854  1.0146
 4983TIP3   OH236363   0.667   4.589   2.987 -0.1353 -0.5190  0.3412
 4983TIP3    H136364   0.624   4.673   3.001 -0.6202 -0.6123 -0.5189
 4983TIP3    H236365   0.689   4.588   2.893  1.6958 -0.4993  0.7277
 4984TIP3   OH236366   3.332   6.658  13.679 -0.2289 -0.4310 -0.0706
 4984TIP3    H136367   3.287   6.574  13.687  2.0670 -1.7590 -0.2598
 4984TIP3    H236368   3.294   6.712  13.749 -2.5889 -1.1482 -0.6943
 4985TIP3   OH236369   6.313   1.894  12.733  0.2981 -0.2429  0.0881
 4985TIP3    H136370   6.233   1.865  12.777 -0.0592 -0.9885 -1.0082
 4985TIP3    H236371   6.373   1.821  12.742  1.0123  0.4621  1.2376
 4986TIP3   OH236372   2.061   5.889  15.445  0.0498  0.1442  0.8917
 4986TIP3    H136373   1.974   5.850  15.440  1.0766 -2.4130  1.0151
 4986TIP3    H236374   2.105   5.859  15.365  1.5771 -0.8557  2.0358
 4987TIP3   OH236375   4.445   0.505  15.819 -0.4970  0.6489 -0.2795
 4987TIP3    H136376   4.498   0.584  15.819 -0.6087  0.7917  2.2876
 4987TIP3    H236377   4.355   0.535  15.815 -0.5048  0.6032 -0.4528
 4988TIP3   OH236378   2.907   4.119  17.051  0.0291  0.4093 -0.2706
 4988TIP3    H136379   2.818   4.129  17.017  0.5558 -0.7914 -2.1734
 4988TIP3    H236380   2.954   4.071  16.983  2.2018  1.1284  0.6019
 4989TIP3   OH236381   1.092   3.637   6.567 -0.2828  0.3546  0.6617
 4989TIP3    H136382   1.010   3.593   6.590  0.7207 -1.5603  0.7291
 4989TIP3    H236383   1.100   3.707   6.632 -0.9873 -0.5495  1.7632
 4990TIP3   OH236384   2.061   2.061  12.313 -0.3822 -0.5370  0.4425
 4990TIP3    H136385   2.022   1.974  12.320 -1.4987  0.0569  2.3179
 4990TIP3    H236386   1.995   2.114  12.269  0.8662 -0.8976 -2.0248
 4991TIP3   OH236387   2.071   1.112  14.410 -0.1930  0.6326  0.0998
 4991TIP3    H136388   2.041   1.024  14.431  0.9755  0.6164  1.9826
 4991TIP3    H236389   2.036   1.166  14.482 -0.6003  1.6539 -0.8390
 4992TIP3   OH236390   4.547   5.376  13.383  0.0516  0.7813 -0.4539
 4992TIP3    H136391   4.600   5.338  13.312 -0.9473  0.3483 -0.9961
 4992TIP3    H236392   4.602   5.369  13.461  0.6914  0.1004 -0.9489
 4993TIP3   OH236393   3.548   1.200   0.479 -0.4418  0.6478  0.1978
 4993TIP3    H136394   3.487   1.216   0.551  0.3613 -0.7259  1.2197
 4993TIP3    H236395   3.519   1.117   0.441 -1.5997  1.9160 -1.9007
 4994TIP3   OH236396   5.866   6.607   1.336  0.1622 -0.6211 -0.4644
 4994TIP3    H136397   5.953   6.633   1.305  0.1964 -0.0903  0.0593
 4994TIP3    H236398   5.874   6.514   1.355  0.4688 -0.6919 -0.9117
 4995TIP3   OH236399   6.306   2.299   3.218 -0.6978 -0.8997  0.2641
 4995TIP3    H136400   6.327   2.211   3.187 -2.8566 -1.1948 -0.5382
 4995TIP3    H236401   6.310   2.353   3.139  1.8265  0.0440  0.9444
 4996TIP3   OH236402   1.941   5.076   1.888  0.2309  0.4698  1.1711
 4996TIP3    H136403   1.921   5.167   1.912  1.0683  0.8176  0.5609
 4996TIP3    H236404   2.036   5.069   1.896  0.4534  0.3361 -1.0954
 4997TIP3   OH236405   1.932   4.242   2.371 -0.0703  0.2464 -0.2988
 4997TIP3    H136406   1.842   4.215   2.389  0.6211 -2.7537 -0.8265
 4997TIP3    H236407   1.983   4.201   2.441  1.1408 -0.3122 -1.4727
 4998TIP3   OH236408   2.769   5.010   4.399  0.1666 -0.6253 -0.2337
 4998TIP3    H136409   2.841   4.950   4.417  1.4694  0.5236 -1.4675
 4998TIP3    H236410   2.807   5.080   4.346 -0.8851  2.2524  2.4906
 4999TIP3   OH236411   1.658   3.192  14.577  0.4037  0.4251 -0.1405
 4999TIP3    H136412   1.678   3.278  14.542 -2.2458  0.6125 -1.4250
 4999TIP3    H236413   1.621   3.144  14.503 -0.8717 -0.8277  1.2481
 5000TIP3   OH236414   5.197   4.792   0.976 -0.0651  0.0275  0.1856
 5000TIP3    H136415   5.196   4.723   0.910  2.0967 -0.9368  1.0492
 5000TIP3    H236416   5.290   4.803   0.997 -0.4357  2.5206  0.8073
 5001TIP3   OH236417   5.679   4.120  14.202 -0.3938  0.0848  0.2977
 5001TIP3    H136418   5.590   4.115  14.166 -0.5145  1.9732  0.2325
 5001TIP3    H236419   5.705   4.029  14.214 -2.4367 -0.5101  0.5794
 5002TIP3   OH236420   1.903   4.549  15.389  0.3372  0.2528 -0.1218
 5002TIP3    H136421   1.937   4.638  15.383  0.2551  0.1847 -2.1150
 5002TIP3    H236422   1.859   4.547  15.474  0.4058  2.0868  0.0099
 5003TIP3   OH236423   2.695   6.440  16.607 -0.2929  0.2739 -0.4879
 5003TIP3    H136424   2.619   6.475  16.654  0.2088  1.3440 -0.4335
 5003TIP3    H236425   2.679   6.346  16.602 -1.1502  0.3557  0.3728
 5004TIP3   OH236426   3.318   4.236   2.063 -0.0788  0.8351  0.2255
 5004TIP3    H136427   3.248   4.267   2.005 -1.5195 -0.6442  1.0807
 5004TIP3    H236428   3.396   4.234   2.008 -1.5261 -1.1926 -1.9177
 5005TIP3   OH236429   3.861   6.179  12.847 -0.3882 -0.4133 -0.2229
 5005TIP3    H136430   3.857   6.164  12.941 -0.2751 -0.0384 -0.1574
 5005TIP3    H236431   3.865   6.091  12.809  0.4970 -0.5580  0.1681
 5006TIP3   OH236432   5.379   6.317  12.873 -0.4838 -0.2943 -0.3253
 5006TIP3    H136433   5.433   6.364  12.936 -0.7127 -0.7574  0.2227
 5006TIP3    H236434   5.289   6.331  12.902 -0.6792  0.5360 -1.2788
 5007TIP3   OH236435   5.256   6.639  16.575  0.3494 -0.2331  0.1588
 5007TIP3    H136436   5.257   6.548  16.546  0.8397 -0.3735  0.5960
 5007TIP3    H236437   5.163   6.660  16.585  0.2378 -0.7511  0.2507
 5008TIP3   OH236438   2.417   5.811   1.718  0.1677 -0.2446  0.1145
 5008TIP3    H136439   2.444   5.743   1.657  2.5960  1.3578 -0.7793
 5008TIP3    H236440   2.445   5.779   1.804 -0.8480 -1.3425  0.0648
 5009TIP3   OH236441   3.771   2.474  14.705 -0.5293 -0.2768 -0.2375
 5009TIP3    H136442   3.826   2.508  14.775 -1.2575  2.4739 -0.8717
 5009TIP3    H236443   3.832   2.429  14.646  0.4116 -0.6774  1.0084
 5010TIP3   OH236444   5.509   1.790  17.235 -0.2294  0.0252  0.2963
 5010TIP3    H136445   5.417   1.769  17.218 -0.2081  1.3222 -1.7984
 5010TIP3    H236446   5.558   1.728  17.181  0.0475  0.7583 -0.2986
 5011TIP3   OH236447   1.026   1.536   4.250 -1.0147 -0.2661 -0.4294
 5011TIP3    H136448   0.979   1.533   4.334  0.0684  0.1062  0.2132
 5011TIP3    H236449   0.967   1.585   4.192 -1.5122  0.0082  0.2882
 5012TIP3   OH236450   1.208   3.582   0.055 -0.5012 -1.0847 -0.3345
 5012TIP3    H136451   1.165   3.513   0.003  0.1143 -0.4559 -1.7392
 5012TIP3    H236452   1.198   3.553   0.146 -2.1899 -1.9125 -0.7361
 5013TIP3   OH236453   2.978   6.278   0.168 -0.0738  0.2519 -0.3976
 5013TIP3    H136454   2.966   6.301   0.075  1.7326 -0.0389 -0.7506
 5013TIP3    H236455   3.069   6.247   0.173 -0.8436 -2.0135  1.0143
 5014TIP3   OH236456   0.705   4.412   2.467 -0.4651 -0.1371  0.1561
 5014TIP3    H136457   0.784   4.463   2.488 -1.8538  1.7965  1.0306
 5014TIP3    H236458   0.735   4.344   2.406  1.8347  0.5915  0.3878
 5015TIP3   OH236459   3.185   6.698   0.991  0.4106 -0.1270  0.3406
 5015TIP3    H136460   3.117   6.765   1.002 -2.2066 -2.6288  0.6415
 5015TIP3    H236461   3.234   6.700   1.073  1.6191  2.5501 -0.3406
 5016TIP3   OH236462   0.576   3.449   2.492  0.0575 -0.3383  0.6532
 5016TIP3    H136463   0.669   3.455   2.472  0.0878  1.2181  1.1670
 5016TIP3    H236464   0.567   3.489   2.578 -1.3182  1.3137 -0.1914
 5017TIP3   OH236465   1.597   4.525  10.877  0.3575  0.2115  0.9476
 5017TIP3    H136466   1.618   4.465  10.805  0.6975  0.7404  0.6026
 5017TIP3    H236467   1.656   4.500  10.947 -0.6454 -0.9724  1.4258
 5018TIP3   OH236468   0.811   1.948  12.026 -0.1059  0.2804 -0.1130
 5018TIP3    H136469   0.853   1.863  12.037 -0.1175  0.3761  0.7607
 5018TIP3    H236470   0.854   2.005  12.090 -0.2464  0.8766 -0.5383
 5019TIP3   OH236471   0.042   5.181  16.533 -0.8395 -0.6332 -0.8351
 5019TIP3    H136472   0.005   5.188  16.621 -0.2073 -1.6109 -0.4790
 5019TIP3    H236473   0.070   5.270  16.511  0.5297 -0.6596  0.6432
 5020TIP3   OH236474   2.111   6.281  16.086  0.1340  0.2349  0.0834
 5020TIP3    H136475   2.077   6.213  16.027 -1.5000  0.1670  1.0265
 5020TIP3    H236476   2.071   6.362  16.054  1.5811  0.6929 -0.6531
 5021TIP3   OH236477   0.330   6.351   0.975  0.7209 -0.0546  0.3882
 5021TIP3    H136478   0.384   6.278   0.945  1.8331  1.4421 -1.4794
 5021TIP3    H236479   0.364   6.427   0.928 -1.4845  1.3927  0.9756
 5022TIP3   OH236480   6.576   0.459   0.896 -0.2602 -0.4006 -0.1658
 5022TIP3    H136481   6.508   0.507   0.943  1.2561  1.1108  0.5776
 5022TIP3    H236482   6.539   0.444   0.808 -1.1790  1.1987 -0.0764
 5023TIP3   OH236483   6.348   6.643   1.321 -0.7474 -0.2071  0.0240
 5023TIP3    H136484   6.369   6.591   1.398 -1.4060 -0.7836 -0.1728
 5023TIP3    H236485   6.427   6.640   1.267 -0.7797 -1.0239  0.0090
 5024TIP3   OH236486   6.243   5.197   1.408 -0.0292 -0.1847 -0.2003
 5024TIP3    H136487   6.277   5.250   1.480 -1.0321 -1.1714  1.0358
 5024TIP3    H236488   6.171   5.249   1.371  0.7014  0.4714 -0.7451
 5025TIP3   OH236489   4.808   3.184   5.924 -0.9152 -0.0720 -0.5744
 5025TIP3    H136490   4.768   3.145   6.002 -0.4773  1.4077  0.4369
 5025TIP3    H236491   4.867   3.251   5.959 -0.6335  0.5544 -2.1871
 5026TIP3   OH236492   6.192   4.619  15.520  0.5484  0.3294 -0.1001
 5026TIP3    H136493   6.126   4.623  15.590 -0.5259  0.3496 -1.0899
 5026TIP3    H236494   6.232   4.533  15.531 -1.2006 -0.6319 -0.8320
 5027TIP3   OH236495   2.050   4.517   0.080  0.1990  0.1305 -0.0757
 5027TIP3    H136496   2.082   4.601   0.046  0.9404  0.5178  1.5107
 5027TIP3    H236497   2.038   4.463   0.002  0.3952  1.4716 -1.0673
 5028TIP3   OH236498   4.145   2.726  14.322  0.1854  0.0081 -0.2295
 5028TIP3    H136499   4.168   2.805  14.274 -0.2506  0.3627  0.1298
 5028TIP3    H236500   4.143   2.657  14.256  1.5790  0.0921 -0.3775
 5029TIP3   OH236501   2.301   6.733  11.933 -0.0870 -0.0173 -0.3454
 5029TIP3    H136502   2.359   6.705  11.862 -1.7638 -1.7750 -1.0902
 5029TIP3    H236503   2.293   6.827  11.922  0.2551 -0.1631 -2.0483
 5030TIP3   OH236504   5.065   6.719  14.840 -0.6036 -0.7741 -0.0487
 5030TIP3    H136505   5.007   6.646  14.820 -0.7319 -0.5822 -0.3927
 5030TIP3    H236506   5.073   6.718  14.936  0.2443 -1.8729 -0.1150
 5031TIP3   OH236507   3.642   2.626  12.706 -0.3172 -0.6389  0.0555
 5031TIP3    H136508   3.622   2.710  12.664 -0.9428 -0.7696  0.0957
 5031TIP3    H236509   3.662   2.650  12.797  4.7265  0.1784 -0.9354
 5032TIP3   OH236510   4.440   3.620   3.792 -0.2553  0.2499 -0.0955
 5032TIP3    H136511   4.497   3.584   3.724  1.2309  2.7242 -0.2969
 5032TIP3    H236512   4.467   3.712   3.799 -5.5608  2.2750 -1.6025
 5033TIP3   OH236513   1.599   2.990   5.033 -0.0953  0.1648 -0.5920
 5033TIP3    H136514   1.545   3.059   4.994 -0.1369 -0.1880 -1.1745
 5033TIP3    H236515   1.624   2.934   4.959  0.3184 -0.1847 -0.1960
 5034TIP3   OH236516   3.270   3.374   0.527 -0.2242  0.4977  0.6145
 5034TIP3    H136517   3.284   3.392   0.621 -1.0546 -1.6110  1.1900
 5034TIP3    H236518   3.271   3.279   0.520 -1.7973  0.5587 -1.2716
 5035TIP3   OH236519   1.390   1.059  12.273 -0.2966 -0.4362 -0.1661
 5035TIP3    H136520   1.481   1.044  12.298 -0.8406 -0.7487  1.7643
 5035TIP3    H236521   1.354   0.972  12.254 -0.7104 -0.5366  1.0250
 5036TIP3   OH236522   3.562   2.538   2.902  0.7032 -0.2303 -0.1785
 5036TIP3    H136523   3.543   2.459   2.851 -1.3831  1.1884 -1.7950
 5036TIP3    H236524   3.502   2.533   2.977  1.0260 -0.4754  0.0651
 5037TIP3   OH236525   2.181   1.868  10.987 -0.1198 -0.4396  0.0313
 5037TIP3    H136526   2.221   1.882  10.901  0.6232  0.9646  0.5594
 5037TIP3    H236527   2.088   1.860  10.970  0.0194 -0.1283 -0.9119
 5038TIP3   OH236528   3.714   4.639   3.051 -0.1378  0.2356  0.0640
 5038TIP3    H136529   3.730   4.653   2.957 -1.7548 -1.6646 -0.5727
 5038TIP3    H236530   3.672   4.720   3.081 -1.0814  0.2667 -1.2592
 5039TIP3   OH236531   4.409   4.774  16.786  0.1856  1.0493  0.1414
 5039TIP3    H136532   4.321   4.781  16.748  0.2018  0.2404 -0.0605
 5039TIP3    H236533   4.404   4.700  16.846  0.8365  0.7323 -0.1792
 5040TIP3   OH236534   3.272   4.093  16.530 -0.8851  0.4478 -0.3345
 5040TIP3    H136535   3.344   4.079  16.469 -1.3099  0.2504 -0.7979
 5040TIP3    H236536   3.312   4.086  16.616 -0.1611  1.3258 -0.5803
 5041TIP3   OH236537   0.494   0.306   6.588 -0.0001  0.2530 -0.5439
 5041TIP3    H136538   0.563   0.249   6.553  1.0243  0.7970  0.5015
 5041TIP3    H236539   0.541   0.370   6.642 -1.4548 -1.2128  2.7924
 5042TIP3   OH236540   2.701   3.140  12.207 -0.3010  0.2320 -0.3271
 5042TIP3    H136541   2.697   3.123  12.113 -1.0995  1.1795 -0.4869
 5042TIP3    H236542   2.621   3.188  12.226 -1.2384 -1.7902  1.2575
 5043TIP3   OH236543   1.736   0.623   3.226 -0.2891 -0.3134  0.7645
 5043TIP3    H136544   1.798   0.555   3.251  1.3250  1.1503  0.9742
 5043TIP3    H236545   1.788   0.685   3.176 -1.3667  1.4034  1.6681
 5044TIP3   OH236546   2.540   0.858   2.231  0.1507 -0.6599  0.2558
 5044TIP3    H136547   2.553   0.774   2.275  0.6940 -1.0689 -0.6405
 5044TIP3    H236548   2.579   0.845   2.144 -0.4919  0.2614 -0.1806
 5045TIP3   OH236549   3.764   4.380   3.132 -0.0194  0.2480 -0.3372
 5045TIP3    H136550   3.747   4.472   3.111  0.2709  0.7465  1.3940
 5045TIP3    H236551   3.839   4.355   3.078  1.1269  1.6294  0.5602
 5046TIP3   OH236552   4.822   0.062  16.731  0.2107 -0.1635  0.2677
 5046TIP3    H136553   4.743   0.080  16.781  0.7905  0.7188  0.9021
 5046TIP3    H236554   4.894   0.077  16.793  0.8726 -1.3655 -0.1650
 5047TIP3   OH236555   5.358   4.099   2.733  0.3649  0.8821  0.5241
 5047TIP3    H136556   5.318   4.178   2.770 -0.6571  1.0907 -0.9687
 5047TIP3    H236557   5.413   4.066   2.804 -1.8888  0.9805  2.4412
 5048TIP3   OH236558   4.138   2.505   1.562 -0.2990 -0.0766  0.1288
 5048TIP3    H136559   4.211   2.512   1.624  0.7286 -0.3846 -1.0017
 5048TIP3    H236560   4.133   2.411   1.542  0.2364  0.1658 -1.2199
 5049TIP3   OH236561   5.141   2.904  14.224 -0.0494 -0.3558 -0.0461
 5049TIP3    H136562   5.190   2.833  14.265  0.5028  0.1611  0.2146
 5049TIP3    H236563   5.114   2.869  14.139 -1.5626 -1.5889  0.8918
 5050TIP3   OH236564   1.971   2.682   1.006  0.2099  0.0931 -0.5435
 5050TIP3    H136565   1.912   2.740   1.054  0.8431  0.9187 -0.7519
 5050TIP3    H236566   2.059   2.704   1.039  0.4320 -1.0779 -0.2730
 5051TIP3   OH236567   2.567   4.202   2.418  0.1239  0.2181  0.4779
 5051TIP3    H136568   2.534   4.162   2.499 -1.0134  1.2118  0.5398
 5051TIP3    H236569   2.530   4.290   2.419 -0.3026  0.0821 -1.3768
 5052TIP3   OH236570   1.442   3.753   3.472  0.0196  0.1249  0.1551
 5052TIP3    H136571   1.386   3.761   3.395 -0.0012 -0.9858  0.0436
 5052TIP3    H236572   1.399   3.687   3.527  0.8992 -0.3087  0.3437
 5053TIP3   OH236573   4.470   0.238  12.789  0.0557 -0.0459 -0.2567
 5053TIP3    H136574   4.466   0.142  12.790 -0.1787 -0.0351  0.0288
 5053TIP3    H236575   4.441   0.264  12.877  0.9145  0.2577 -0.0589
 5054TIP3   OH236576   4.936   2.539   3.359 -0.7492 -0.5350 -0.3474
 5054TIP3    H136577   4.841   2.540   3.369 -0.5952  0.1053  1.3791
 5054TIP3    H236578   4.956   2.622   3.314 -0.9027  0.1369  0.7780
 5055TIP3   OH236579   1.071   5.662  12.250 -0.0007 -0.8032 -0.6721
 5055TIP3    H136580   0.996   5.662  12.311  0.0661 -3.1621 -0.5294
 5055TIP3    H236581   1.047   5.600  12.182  0.6798  0.5204 -2.1848
 5056TIP3   OH236582   0.715   1.467   3.650  0.0781 -1.0874 -0.2662
 5056TIP3    H136583   0.787   1.404   3.653 -0.8429 -2.2088  3.1457
 5056TIP3    H236584   0.752   1.544   3.607  3.7414 -1.2024  2.2266
 5057TIP3   OH236585   1.405   2.672  11.577 -0.0771 -0.1343 -0.1894
 5057TIP3    H136586   1.408   2.767  11.579 -0.3827 -0.0849 -1.3694
 5057TIP3    H236587   1.483   2.646  11.527 -0.2152 -0.4817 -0.2290
 5058TIP3   OH236588   0.541   0.207  13.643  0.5928  0.7464 -0.3243
 5058TIP3    H136589   0.545   0.260  13.563 -0.0941  1.3826  0.0565
 5058TIP3    H236590   0.450   0.212  13.671  0.6948  0.0144  0.1621
 5059TIP3   OH236591   0.918   2.942  14.852  0.1607 -0.0652 -0.9291
 5059TIP3    H136592   0.993   2.929  14.794  0.1489  0.1174 -0.9870
 5059TIP3    H236593   0.867   2.862  14.844  0.7277 -0.4970 -0.3246
 5060TIP3   OH236594   0.808   2.340   5.932 -0.2875  0.1380 -0.0931
 5060TIP3    H136595   0.721   2.341   5.892 -0.5435  4.0179  0.1648
 5060TIP3    H236596   0.802   2.403   6.004  2.6488  0.3091  0.1265
 5061TIP3   OH236597   5.570   1.961   2.616 -0.0422  0.1409 -0.0810
 5061TIP3    H136598   5.508   2.019   2.661 -1.7654 -1.5688 -0.1143
 5061TIP3    H236599   5.572   1.882   2.670  0.3912 -0.6875 -1.2795
 5062TIP3   OH236600   1.669   6.717   5.660  0.1203  0.3463  0.1364
 5062TIP3    H136601   1.724   6.641   5.679 -0.2482 -0.9198 -3.2224
 5062TIP3    H236602   1.729   6.782   5.624 -0.1826 -0.2624 -1.5739
 5063TIP3   OH236603   1.664   1.075   6.029  0.1593  0.2471 -0.2153
 5063TIP3    H136604   1.669   1.081   6.125  0.5904 -0.3844 -0.1869
 5063TIP3    H236605   1.649   0.982   6.012 -0.6587  0.4665 -0.7439
 5064TIP3   OH236606   4.588   1.822   2.730  0.7530 -0.2484 -0.8272
 5064TIP3    H136607   4.557   1.912   2.743 -0.5608 -0.9498  1.4602
 5064TIP3    H236608   4.681   1.832   2.709  0.4639  1.6623 -1.4093
 5065TIP3   OH236609   6.576   2.998  12.850  0.2918 -0.4422 -0.1572
 5065TIP3    H136610   6.586   2.990  12.755 -0.1460  1.7342 -0.4405
 5065TIP3    H236611   6.486   3.029  12.862  0.6108  0.0988  0.9230
 5066TIP3   OH236612   2.896   5.732   0.697  0.6627 -0.5952  0.2402
 5066TIP3    H136613   2.817   5.728   0.642  1.7583 -0.7869 -1.3982
 5066TIP3    H236614   2.939   5.647   0.683  0.5615 -0.9971  2.1117
 5067TIP3   OH236615   0.977   6.588  12.050 -0.1763  0.6089 -0.5207
 5067TIP3    H136616   1.051   6.646  12.030  0.9296 -0.6303 -0.2501
 5067TIP3    H236617   0.967   6.594  12.145  1.0307 -0.7941 -0.2503
 5068TIP3   OH236618   6.289   2.741  12.380 -0.2270  0.5432  0.6922
 5068TIP3    H136619   6.362   2.681  12.364 -0.3394  0.7551 -0.7639
 5068TIP3    H236620   6.228   2.724  12.308 -0.9794  1.3228  1.1252
 5069TIP3   OH236621   5.600   3.183  11.648 -0.6137 -0.1247  0.6273
 5069TIP3    H136622   5.646   3.120  11.592  0.1204  0.5749  0.4169
 5069TIP3    H236623   5.573   3.132  11.724 -0.6369 -0.8433  0.1421
 5070TIP3   OH236624   2.682   6.388  13.257  0.0158  0.2952 -0.2924
 5070TIP3    H136625   2.721   6.468  13.292 -0.6627  0.4797  0.0601
 5070TIP3    H236626   2.590   6.409  13.245 -0.1129 -0.3434 -0.4775
 5071TIP3   OH236627   3.476   2.983   4.441  0.0840 -0.8768 -0.2152
 5071TIP3    H136628   3.427   2.926   4.500 -0.5147 -1.4749 -1.2656
 5071TIP3    H236629   3.438   3.070   4.456  0.5569 -0.8485  0.9205
 5072TIP3   OH236630   0.054   3.433   3.698  0.0195 -0.6840 -0.3769
 5072TIP3    H136631  -0.037   3.406   3.706  0.2856 -1.0471  3.1588
 5072TIP3    H236632   0.104   3.352   3.706  0.7033 -0.4402 -1.8647
 5073TIP3   OH236633   0.517   0.896  17.197 -0.2463  0.0588  0.0314
 5073TIP3    H136634   0.593   0.852  17.236 -0.4599 -1.6278 -1.3070
 5073TIP3    H236635   0.490   0.959  17.263  1.7537  0.0690  0.9288
 5074TIP3   OH236636   5.855   0.187   1.961 -0.0656  0.6173  0.2861
 5074TIP3    H136637   5.942   0.213   1.932  0.7539 -2.3435 -0.2418
 5074TIP3    H236638   5.843   0.230   2.045  0.1850  4.2408 -1.3485
 5075TIP3   OH236639   5.868   1.710   2.620 -0.3412  0.4908  0.2224
 5075TIP3    H136640   5.791   1.710   2.677 -0.1718  1.4476  0.4599
 5075TIP3    H236641   5.905   1.622   2.630 -0.5617  0.5072  1.2443
 5076TIP3   OH236642   4.893   6.178   4.558  0.2416  0.3648  0.1958
 5076TIP3    H136643   4.873   6.095   4.516 -0.7172  0.5495  0.2511
 5076TIP3    H236644   4.923   6.155   4.645 -1.2253  0.1044  0.6595
 5077TIP3   OH236645   2.424   6.718   0.520  0.3630 -0.3217  0.4671
 5077TIP3    H136646   2.390   6.682   0.602 -0.1225 -0.9577 -0.0009
 5077TIP3    H236647   2.353   6.705   0.457  0.7607  0.0906 -0.0742
 5078TIP3   OH236648   3.500   2.911   2.849  0.1103 -0.3018 -0.8257
 5078TIP3    H136649   3.473   2.977   2.913 -0.9641 -1.5256  0.0170
 5078TIP3    H236650   3.420   2.889   2.802  0.3171 -1.4940 -0.6399
 5079TIP3   OH236651   6.200   6.131  15.535 -0.2708  0.0885  0.0857
 5079TIP3    H136652   6.285   6.172  15.524  0.3972 -1.0410  0.8405
 5079TIP3    H236653   6.191   6.119  15.630 -1.4638  0.5815  0.0501
 5080TIP3   OH236654   5.021   2.596  14.000 -0.2362  0.2501 -0.0183
 5080TIP3    H136655   5.006   2.675  13.947 -0.4322 -0.4981 -1.1021
 5080TIP3    H236656   5.048   2.529  13.937  0.4531 -0.4168  0.9613
 5081TIP3   OH236657   5.088   6.436  15.414  0.1807 -0.0848 -0.2372
 5081TIP3    H136658   5.077   6.362  15.475  1.3502  1.1454  1.5605
 5081TIP3    H236659   5.020   6.498  15.441  0.3824  0.2681 -0.5441
 5082TIP3   OH236660   4.919   4.958  11.597 -0.3114  0.0625  0.6300
 5082TIP3    H136661   4.949   4.946  11.507 -1.3036  0.1110  0.2716
 5082TIP3    H236662   4.951   4.881  11.644  0.4772  0.1880  0.3146
 5083TIP3   OH236663   3.626   0.618   0.013  0.6119 -0.5919 -0.1225
 5083TIP3    H136664   3.686   0.571   0.072  0.4968  1.2288  1.5618
 5083TIP3    H236665   3.671   0.617  -0.072  0.9477 -3.0072  0.0013
 5084TIP3   OH236666   6.065   0.099  16.161 -0.1128 -0.1117 -0.2697
 5084TIP3    H136667   6.091   0.007  16.164 -2.3911 -0.7857  1.7690
 5084TIP3    H236668   6.147   0.147  16.151  1.0319 -2.3542 -2.8482
 5085TIP3   OH236669   1.284   0.395  12.850  0.1290  0.6829  0.2103
 5085TIP3    H136670   1.360   0.403  12.793  0.0635 -3.6304 -0.8080
 5085TIP3    H236671   1.219   0.453  12.810  1.5219  1.1969 -1.4430
 5086TIP3   OH236672   1.441   3.359   0.412  0.2929  0.1137  0.1337
 5086TIP3    H136673   1.461   3.304   0.336  2.6482  0.6117  0.3407
 5086TIP3    H236674   1.389   3.302   0.469 -1.2046 -0.4013 -1.6151
 5087TIP3   OH236675   5.832   5.245  16.184 -0.2097  0.6074  0.2690
 5087TIP3    H136676   5.889   5.271  16.112  1.4847 -0.2076  1.2458
 5087TIP3    H236677   5.818   5.151  16.170 -0.9122  0.6989  0.3206
 5088TIP3   OH236678   2.019   6.497   5.981  0.7650 -0.0777 -0.7695
 5088TIP3    H136679   2.113   6.497   5.965  0.9263  0.2833  0.1184
 5088TIP3    H236680   2.008   6.549   6.060 -0.2139  0.1377 -1.0309
 5089TIP3   OH236681   4.327   3.980   6.818 -0.3340 -0.0449 -0.3711
 5089TIP3    H136682   4.325   3.887   6.795  0.5368 -0.1329 -0.1026
 5089TIP3    H236683   4.240   3.997   6.854 -0.0661 -1.0742  0.8052
 5090TIP3   OH236684   5.452   5.302   3.953  0.2884 -0.0174  0.2283
 5090TIP3    H136685   5.454   5.383   3.901 -0.8744 -1.0117 -1.4382
 5090TIP3    H236686   5.378   5.314   4.013 -0.3642 -0.1308 -0.5380
 5091TIP3   OH236687   2.018   5.709  17.343 -0.8154  0.0332 -0.4239
 5091TIP3    H136688   2.040   5.762  17.419 -1.3701  2.0576 -1.5742
 5091TIP3    H236689   2.102   5.681  17.307 -0.5649 -1.2696  1.0999
 5092TIP3   OH236690   4.327   0.002  15.536  0.3360  0.0413  0.4436
 5092TIP3    H136691   4.243   0.046  15.526  0.5755  1.2935  3.2771
 5092TIP3    H236692   4.376   0.056  15.597  1.7623 -2.6521  1.8424
 5093TIP3   OH236693   4.177   0.664   6.389  0.5625  0.1058 -0.3223
 5093TIP3    H136694   4.262   0.627   6.410 -0.4613 -1.3960  1.4303
 5093TIP3    H236695   4.114   0.609   6.435 -1.4749  0.4478 -2.5007
 5094TIP3   OH236696   4.010   5.839  16.625  0.1061  0.1676  0.4838
 5094TIP3    H136697   4.058   5.851  16.544 -2.0426  3.5869 -0.4645
 5094TIP3    H236698   4.058   5.891  16.690 -0.6077  1.0746  0.2903
 5095TIP3   OH236699   5.268   4.589  12.684  0.0595  0.7231  0.0685
 5095TIP3    H136700   5.232   4.661  12.736 -1.9008 -1.4752  2.0660
 5095TIP3    H236701   5.351   4.621  12.651  0.7314  2.8903  3.4001
 5096TIP3   OH236702   3.547   4.269   6.390 -0.0094 -0.0742 -0.0145
 5096TIP3    H136703   3.562   4.359   6.420  0.3344  0.5027 -1.8386
 5096TIP3    H236704   3.572   4.215   6.465 -0.9123  1.3458  1.3826
 5097TIP3   OH236705   2.717   6.713  16.953 -0.6149  0.0968  0.4723
 5097TIP3    H136706   2.766   6.631  16.962 -2.7595 -1.3684 -0.1903
 5097TIP3    H236707   2.634   6.696  16.997 -1.1841  1.8790  0.1755
 5098TIP3   OH236708   5.939   3.800  15.684  0.1283 -0.2747 -0.1601
 5098TIP3    H136709   6.024   3.832  15.654  0.4102 -0.0573  0.8402
 5098TIP3    H236710   5.899   3.875  15.728  0.9305 -1.2774  2.5053
 5099TIP3   OH236711   0.135   4.901   1.267  0.2282  0.0002 -0.5365
 5099TIP3    H136712   0.070   4.899   1.337  2.3599  0.6326  1.6117
 5099TIP3    H236713   0.191   4.825   1.284  0.2417 -0.3973 -2.1816
 5100TIP3   OH236714   2.642   2.835   5.241 -0.6786  0.1072  0.9658
 5100TIP3    H136715   2.556   2.867   5.214 -0.9625 -0.3627  1.2995
 5100TIP3    H236716   2.663   2.888   5.319 -0.4258  0.5838  0.5800
 5101TIP3   OH236717   0.935   5.088   0.646 -0.7840 -0.3044 -0.2463
 5101TIP3    H136718   1.021   5.073   0.609 -0.1966  1.4769  0.2691
 5101TIP3    H236719   0.947   5.163   0.705 -2.2104 -1.4271  1.5767
 5102TIP3   OH236720   1.288   1.173  12.594 -0.2535  0.1895 -0.2029
 5102TIP3    H136721   1.210   1.227  12.606 -0.0488  0.3698  0.3450
 5102TIP3    H236722   1.287   1.150  12.501 -1.1130 -0.0648 -0.1337
 5103TIP3   OH236723   5.015   4.041   0.154  0.2428  0.0536 -0.4047
 5103TIP3    H136724   5.087   3.980   0.135  0.5608  0.2650  0.1120
 5103TIP3    H236725   4.940   4.003   0.109  1.0430  0.7361 -2.3988
 5104TIP3   OH236726   5.623   2.182   2.376 -0.4485  0.0641  0.3574
 5104TIP3    H136727   5.664   2.109   2.422 -1.5738  0.6758  2.5199
 5104TIP3    H236728   5.529   2.167   2.388 -0.7646  0.6990 -1.1184
 5105TIP3   OH236729   4.581   2.767  15.210 -0.0519  0.4690  0.5899
 5105TIP3    H136730   4.618   2.735  15.292  1.0080  0.9631  0.3111
 5105TIP3    H236731   4.586   2.692  15.151 -0.3057  0.2825  0.7963
 5106TIP3   OH236732   4.118   5.768  11.421  0.2253 -0.4803  0.1118
 5106TIP3    H136733   4.048   5.804  11.475  1.0261  0.8108  0.3275
 5106TIP3    H236734   4.112   5.815  11.338  0.9143 -0.2614  0.1795
 5107TIP3   OH236735   2.205   4.057  16.794  0.2354  0.2100 -0.1750
 5107TIP3    H136736   2.233   4.122  16.858 -0.1434  0.5501 -0.3498
 5107TIP3    H236737   2.192   4.107  16.713 -0.4361 -0.0095 -0.2111
 5108TIP3   OH236738   3.705   1.496  15.109  0.1166  0.0888  0.2676
 5108TIP3    H136739   3.672   1.521  15.196 -1.6981  0.5067 -0.4980
 5108TIP3    H236740   3.648   1.541  15.048  0.5167 -1.2600 -1.1694
 5109TIP3   OH236741   0.217   5.046   2.971 -0.6983 -0.3190  0.3201
 5109TIP3    H136742   0.248   5.069   2.883 -2.8517  0.3482 -0.3133
 5109TIP3    H236743   0.273   4.973   2.998  0.9445  0.3970 -0.9926
 5110TIP3   OH236744   0.139   2.784  15.936  0.2114 -0.2243 -0.3786
 5110TIP3    H136745   0.112   2.701  15.975  1.7850  0.0908  1.5316
 5110TIP3    H236746   0.078   2.848  15.970 -0.1267 -0.3697 -0.7046
 5111TIP3   OH236747   6.161   2.069   5.844 -0.1472 -0.4580 -0.1667
 5111TIP3    H136748   6.224   2.136   5.872  1.0639 -1.9980  0.9677
 5111TIP3    H236749   6.113   2.047   5.924 -1.2736 -0.2117 -0.7572
 5112TIP3   OH236750   0.124   6.258  16.245 -0.7115  0.7642  0.6487
 5112TIP3    H136751   0.140   6.244  16.152 -1.6639 -0.6795  0.6701
 5112TIP3    H236752   0.040   6.303  16.248 -2.1302 -1.7030  0.8284
 5113TIP3   OH236753   1.651   6.246  14.648  0.1275 -0.2788 -0.2161
 5113TIP3    H136754   1.594   6.312  14.686 -0.5243 -0.2055 -1.2798
 5113TIP3    H236755   1.735   6.290  14.636  0.9137 -0.7796  2.6639
 5114TIP3   OH236756   5.407   0.564   6.553  0.1773  0.2139 -0.3647
 5114TIP3    H136757   5.312   0.570   6.554  0.1058 -0.7728 -0.1743
 5114TIP3    H236758   5.435   0.605   6.635 -0.1388 -0.3145  0.0091
 5115TIP3   OH236759   2.581   1.638   5.509 -0.4521  0.0977  0.2099
 5115TIP3    H136760   2.534   1.716   5.478 -0.1222  0.9450  1.7564
 5115TIP3    H236761   2.661   1.672   5.547  0.3488 -1.1441 -0.3018
 5116TIP3   OH236762   1.280   1.495   5.211 -0.3983 -0.0388 -0.5662
 5116TIP3    H136763   1.267   1.545   5.291  0.8216  1.5765 -1.3281
 5116TIP3    H236764   1.290   1.404   5.241 -0.1233  0.5052  1.0778
 5117TIP3   OH236765   0.189   6.296   4.883  0.2609  0.3598 -0.3620
 5117TIP3    H136766   0.128   6.333   4.819  0.6321  0.5712 -0.5982
 5117TIP3    H236767   0.227   6.220   4.838  0.3253  0.3540 -0.2986
 5118TIP3   OH236768   4.033   6.659  14.474  0.2410  0.0501 -0.3137
 5118TIP3    H136769   4.098   6.660  14.404 -0.1935  2.1600 -0.7289
 5118TIP3    H236770   4.083   6.633  14.552  1.5118  1.1844 -0.7083
 5119TIP3   OH236771   4.141   2.558  13.074  0.0556  0.1745  0.0992
 5119TIP3    H136772   4.205   2.492  13.100  0.4154  0.1362 -0.8622
 5119TIP3    H236773   4.104   2.589  13.157  0.9207 -0.1944  0.6351
 5120TIP3   OH236774   1.774   6.572  13.660  0.3063  0.4347 -0.2049
 5120TIP3    H136775   1.703   6.627  13.694  1.2879  1.2679  0.5459
 5120TIP3    H236776   1.743   6.543  13.574 -1.0179  0.6298  0.1880
 5121TIP3   OH236777   5.704   0.744  15.851 -0.1364 -0.2596 -0.0553
 5121TIP3    H136778   5.648   0.667  15.864 -0.9365  0.0568 -1.3621
 5121TIP3    H236779   5.757   0.750  15.930 -0.0855 -2.1337  0.0905
 5122TIP3   OH236780   1.249   6.292   5.525 -0.2458  0.6204 -0.0147
 5122TIP3    H136781   1.201   6.214   5.553  1.9884 -0.8772 -0.0960
 5122TIP3    H236782   1.209   6.364   5.575 -0.2878 -1.0685  2.5696
 5123TIP3   OH236783   0.122   6.077   3.074  0.3106  0.2653  0.2694
 5123TIP3    H136784   0.083   6.089   3.161 -0.2600  0.3231  0.0149
 5123TIP3    H236785   0.081   5.998   3.040  2.7625 -1.5362  1.2287
 5124TIP3   OH236786   2.600   5.781   1.459  0.5320  0.3085 -0.0842
 5124TIP3    H136787   2.540   5.839   1.412  0.0687  1.2277  1.5592
 5124TIP3    H236788   2.560   5.694   1.451 -0.9587  0.8720  0.8167
 5125TIP3   OH236789   1.104   4.154  15.041 -0.1207 -0.1834 -0.5950
 5125TIP3    H136790   1.021   4.154  14.993  0.4478 -1.3639 -1.6303
 5125TIP3    H236791   1.078   4.159  15.133 -1.2797  0.6619 -0.9392
 5126TIP3   OH236792   0.374   1.334   5.829 -0.0108  0.8351  0.2118
 5126TIP3    H136793   0.453   1.386   5.845  1.1220  0.2949 -2.8960
 5126TIP3    H236794   0.308   1.397   5.801 -0.3346  1.1421  1.6025
 5127TIP3   OH236795   4.785   5.991  15.340  0.1000 -0.4394  0.8048
 5127TIP3    H136796   4.862   6.025  15.295 -0.3980  2.1005  1.6989
 5127TIP3    H236797   4.817   5.966  15.427  0.1648 -0.7410  0.6961
 5128TIP3   OH236798   6.434   6.281  12.585 -0.0126 -0.2284 -0.1766
 5128TIP3    H136799   6.478   6.361  12.557 -0.3650  0.0146 -0.0401
 5128TIP3    H236800   6.440   6.282  12.681 -2.8732  1.3438  0.1182
 5129TIP3   OH236801   6.740   2.830   0.372 -0.3908 -0.3872 -0.2366
 5129TIP3    H136802   6.792   2.760   0.333 -0.8983 -0.6701 -0.4198
 5129TIP3    H236803   6.649   2.805   0.354 -0.5626  0.9692 -1.4596
 5130TIP3   OH236804   0.859   5.913  11.500 -0.6808  0.5607 -0.1790
 5130TIP3    H136805   0.929   5.943  11.558 -1.1655 -0.5539  1.0283
 5130TIP3    H236806   0.898   5.917  11.413  1.1900 -0.7505  0.5212
 5131TIP3   OH236807   3.154   3.186   5.208 -0.1609 -0.4460  0.5573
 5131TIP3    H136808   3.070   3.203   5.165 -0.2049  1.5894  1.3135
 5131TIP3    H236809   3.130   3.161   5.297  0.0111 -0.8542  0.4888
 5132TIP3   OH236810   5.025   4.541   3.779 -0.1251 -0.6950 -0.5339
 5132TIP3    H136811   5.096   4.519   3.840 -0.3429 -1.5998 -0.5885
 5132TIP3    H236812   5.067   4.595   3.712  0.3374 -0.5391 -0.1282
 5133TIP3   OH236813   1.849   0.134   5.559  0.6446 -0.1866  0.6309
 5133TIP3    H136814   1.942   0.118   5.576  0.7247  0.4892  0.8691
 5133TIP3    H236815   1.846   0.161   5.467  0.9612  1.7547  1.1504
 5134TIP3   OH236816   5.666   0.407   3.037 -1.4555 -0.4701 -0.0962
 5134TIP3    H136817   5.602   0.363   3.093 -1.5205 -0.9995 -0.5815
 5134TIP3    H236818   5.722   0.337   3.005  0.1003  0.0985  1.2168
 5135TIP3   OH236819   1.723   2.145  17.151  0.1457 -0.0860  0.3695
 5135TIP3    H136820   1.798   2.190  17.112 -0.8407  0.8498 -0.4966
 5135TIP3    H236821   1.684   2.095  17.080  0.1730 -0.9192  0.9178
 5136TIP3   OH236822   3.690   2.809   4.935  0.3224 -0.0185 -0.1051
 5136TIP3    H136823   3.707   2.838   4.845  0.0291  0.7573  0.0825
 5136TIP3    H236824   3.688   2.890   4.986  1.6941 -0.5332  0.8142
 5137TIP3   OH236825   3.906   3.858  15.182  0.2338 -0.0473 -0.2521
 5137TIP3    H136826   3.986   3.832  15.228  0.1644  0.1705 -0.0090
 5137TIP3    H236827   3.859   3.776  15.167  0.2699 -0.1202  0.0351
 5138TIP3   OH236828   0.751   1.020  12.248  0.0160  0.0709  0.4929
 5138TIP3    H136829   0.657   1.030  12.264  0.2756  1.2848  1.4193
 5138TIP3    H236830   0.778   0.947  12.304 -0.1142  0.7240  1.4374
 5139TIP3   OH236831   4.634   1.624   1.092 -0.1655 -0.0291  0.1135
 5139TIP3    H136832   4.683   1.589   1.018  2.6681 -0.5108  2.0817
 5139TIP3    H236833   4.558   1.566   1.099 -0.4277 -0.0729 -2.2416
 5140TIP3   OH236834   6.260   5.961   0.746 -0.7129 -0.7346  0.0414
 5140TIP3    H136835   6.251   5.949   0.841 -1.4833  0.0094  0.0753
 5140TIP3    H236836   6.303   6.047   0.737  0.8072 -1.4898 -0.2689
 5141TIP3   OH236837   4.564   2.882  13.874 -0.3107 -0.3961 -0.1801
 5141TIP3    H136838   4.617   2.846  13.802  0.2986 -0.9904  0.5544
 5141TIP3    H236839   4.586   2.828  13.950 -0.4354  0.6493  0.6204
 5142TIP3   OH236840   5.516   4.917   5.094  0.0431  0.0149  0.1207
 5142TIP3    H136841   5.547   4.827   5.106 -1.1689 -0.6530 -1.3592
 5142TIP3    H236842   5.422   4.913   5.114  0.2212  1.2562  1.3231
 5143TIP3   OH236843   4.426   1.314   3.190  0.1186 -0.3594  0.3658
 5143TIP3    H136844   4.448   1.253   3.260  2.3022  1.5085  1.4558
 5143TIP3    H236845   4.351   1.364   3.223  1.2443  0.6254  1.5136
 5144TIP3   OH236846   6.215   6.321   5.377 -0.2862  0.5481  0.4050
 5144TIP3    H136847   6.216   6.382   5.303  1.1739  0.0016 -0.0769
 5144TIP3    H236848   6.290   6.347   5.430  0.4583 -0.8941  0.1078
 5145TIP3   OH236849   1.658   6.552   6.489  0.3388 -0.0943  0.5291
 5145TIP3    H136850   1.569   6.586   6.485  0.4800  0.1745 -1.3839
 5145TIP3    H236851   1.658   6.492   6.563 -1.2935  0.2639  0.8482
 5146TIP3   OH236852   0.278   4.911  16.622  0.2281 -0.4589 -0.3591
 5146TIP3    H136853   0.302   4.835  16.675  0.8524 -0.0412 -0.0288
 5146TIP3    H236854   0.183   4.919  16.632  0.1943 -1.0316 -0.1855
 5147TIP3   OH236855   6.055   2.399  11.056 -0.0702 -0.2550 -0.0096
 5147TIP3    H136856   6.050   2.355  10.972 -2.0252  1.1598 -0.6960
 5147TIP3    H236857   6.109   2.477  11.039  0.8421 -0.7649  0.4614
 5148TIP3   OH236858   1.011   0.103   0.014  0.3820  0.3986  0.2447
 5148TIP3    H136859   1.032   0.047   0.089 -0.9910 -0.2705  0.1749
 5148TIP3    H236860   0.921   0.078  -0.010  0.4671  1.2279 -1.0622
 5149TIP3   OH236861   4.779   3.381  15.538 -0.3562 -0.5452  0.3822
 5149TIP3    H136862   4.733   3.464  15.554  1.0199  0.0693  1.3475
 5149TIP3    H236863   4.748   3.353  15.452 -0.9724  0.8932  0.0992
 5150TIP3   OH236864   0.350   4.206  12.836  0.3655 -0.6488  0.1054
 5150TIP3    H136865   0.432   4.238  12.798  0.5025 -1.0752  0.0428
 5150TIP3    H236866   0.284   4.222  12.768  0.2462  0.4243  0.4573
 5151TIP3   OH236867   0.109   1.828  15.475 -0.0465 -0.3480  0.4180
 5151TIP3    H136868   0.104   1.750  15.420  0.8078  0.7113 -1.2630
 5151TIP3    H236869   0.023   1.868  15.468 -0.0312 -0.3709  0.0544
 5152TIP3   OH236870   1.762   6.443   3.879  0.2693  0.5502  0.5196
 5152TIP3    H136871   1.683   6.497   3.879 -0.1778 -0.0661 -0.4794
 5152TIP3    H236872   1.742   6.373   3.817  1.3463 -0.0016  0.7835
 5153TIP3   OH236873   1.645   4.799   5.816  0.4775  0.2694  0.2849
 5153TIP3    H136874   1.681   4.718   5.779 -0.5032  0.3842 -0.9930
 5153TIP3    H236875   1.621   4.775   5.906  0.2553 -0.8587 -0.0530
 5154TIP3   OH236876   0.044   1.931   4.488 -0.2251 -0.6676  0.0576
 5154TIP3    H136877   0.022   1.846   4.527 -0.2512 -0.2360  1.0057
 5154TIP3    H236878   0.139   1.930   4.479 -0.2804 -1.0454 -0.5310
 5155TIP3   OH236879   4.333   6.361   1.574  0.0565 -0.2725 -0.1239
 5155TIP3    H136880   4.242   6.387   1.587  0.0947  0.0466 -0.4519
 5155TIP3    H236881   4.384   6.432   1.615  0.1762  0.6906 -1.8274
 5156TIP3   OH236882   4.469   5.608  17.114 -0.4156 -0.8562 -0.0959
 5156TIP3    H136883   4.398   5.557  17.153 -0.4471  0.2857  1.4334
 5156TIP3    H236884   4.425   5.684  17.075 -0.0648 -0.2194  0.7300
 5157TIP3   OH236885   0.608   2.550  14.138 -0.2932 -0.3372  0.4726
 5157TIP3    H136886   0.644   2.473  14.182  0.0961 -0.6537 -0.3748
 5157TIP3    H236887   0.666   2.564  14.063 -2.9222 -2.0384 -2.1161
 5158TIP3   OH236888   0.125   3.406  11.350 -0.0403 -0.3342 -0.1528
 5158TIP3    H136889   0.137   3.480  11.291  2.0373 -0.3969  0.1091
 5158TIP3    H236890   0.211   3.393  11.391 -0.5023 -2.4731  0.2942
 5159TIP3   OH236891   5.597   0.079  11.798  0.5101 -0.5011  0.3903
 5159TIP3    H136892   5.676   0.124  11.827 -0.7916  0.5098  2.6797
 5159TIP3    H236893   5.578   0.017  11.868 -1.2378 -0.0277  0.3812
 5160TIP3   OH236894   5.503   2.253   3.678 -0.3151  0.2318  0.2193
 5160TIP3    H136895   5.580   2.207   3.644  0.4065  1.0295  0.7370
 5160TIP3    H236896   5.457   2.187   3.731 -0.0477 -0.2720 -0.1627
 5161TIP3   OH236897   6.358   1.709   3.891 -0.3780  0.0242  0.3048
 5161TIP3    H136898   6.422   1.642   3.865  0.6899  0.9109  0.5492
 5161TIP3    H236899   6.286   1.699   3.830  1.1507  0.6895 -1.7047
 5162TIP3   OH236900   1.189   4.518   5.923 -0.1146  0.1689 -0.0258
 5162TIP3    H136901   1.201   4.504   6.017  1.1829  0.4130 -0.1368
 5162TIP3    H236902   1.218   4.436   5.883  0.6575  0.5593 -0.2812
 5163TIP3   OH236903   5.854   2.434   1.967  0.0090 -0.4345 -0.5527
 5163TIP3    H136904   5.778   2.469   1.921 -0.6725 -0.3001  0.6378
 5163TIP3    H236905   5.821   2.411   2.054  1.9033  2.4534  1.1168
 5164TIP3   OH236906   3.856   2.197  11.904 -0.3182  0.5701  0.7325
 5164TIP3    H136907   3.800   2.178  11.979 -0.9233  1.3131  0.4779
 5164TIP3    H236908   3.812   2.158  11.829  0.6665 -0.8324  0.8527
 5165TIP3   OH236909   1.052   2.791   0.654 -0.2744  0.1220  0.3148
 5165TIP3    H136910   0.958   2.784   0.637 -0.2769 -1.8531  0.9145
 5165TIP3    H236911   1.093   2.748   0.579  0.1711  1.1036 -0.0137
 5166TIP3   OH236912   5.547   5.488  17.236 -0.1728  0.2350 -0.2762
 5166TIP3    H136913   5.503   5.555  17.288 -2.0872 -1.2490  0.1335
 5166TIP3    H236914   5.519   5.504  17.146  0.7511  0.9911 -0.4442
 5167TIP3   OH236915   2.031   0.865   5.094  0.0119  0.6512 -0.3116
 5167TIP3    H136916   2.055   0.774   5.114 -1.0225  0.2479 -0.8215
 5167TIP3    H236917   2.039   0.871   4.999 -2.3299  0.3350 -0.5743
 5168TIP3   OH236918   4.672   6.321  16.151  0.0135  0.1016  0.6642
 5168TIP3    H136919   4.614   6.321  16.226 -0.6377  0.1401  0.1667
 5168TIP3    H236920   4.625   6.271  16.084  0.3405  0.5429  0.0950
 5169TIP3   OH236921   0.789   5.856  14.356  0.6594 -0.0053 -0.0843
 5169TIP3    H136922   0.732   5.813  14.420 -2.9708  1.2335 -2.1956
 5169TIP3    H236923   0.771   5.949  14.367  2.0185  0.4139 -1.1395
 5170TIP3   OH236924   2.587   4.646  16.069  0.0888 -0.6312 -0.1398
 5170TIP3    H136925   2.634   4.655  16.151 -1.0896  0.1555  0.4786
 5170TIP3    H236926   2.545   4.560  16.075 -1.5701  0.2024  0.9786
 5171TIP3   OH236927   5.532   4.284  12.543  0.6310 -0.2245 -0.2102
 5171TIP3    H136928   5.437   4.290  12.546  0.6639  0.3583 -0.2288
 5171TIP3    H236929   5.555   4.309  12.453  0.7968 -0.5216 -0.2539
 5172TIP3   OH236930   5.469   2.620  15.252 -0.1998  0.2020  0.1989
 5172TIP3    H136931   5.399   2.682  15.232  2.0430  3.1468  0.7403
 5172TIP3    H236932   5.531   2.629  15.180  0.7398 -0.5682  0.8753
 5173TIP3   OH236933   3.494   3.064  16.737 -0.1603 -0.1530  0.6905
 5173TIP3    H136934   3.541   3.140  16.702 -0.7844 -0.7956 -1.6830
 5173TIP3    H236935   3.525   2.990  16.685 -2.0878 -0.9642  0.6068
 5174TIP3   OH236936   5.838   2.799   4.486 -0.6258  0.2196 -0.0254
 5174TIP3    H136937   5.871   2.871   4.433  1.9972 -0.0875  1.0348
 5174TIP3    H236938   5.871   2.720   4.442  0.8142 -0.0737  1.4724
 5175TIP3   OH236939   1.848   0.001  12.937  0.1390  0.1609  0.5318
 5175TIP3    H136940   1.913   0.053  12.890  0.7292 -0.5008  0.6064
 5175TIP3    H236941   1.881  -0.089  12.932 -1.3271 -0.3703 -0.4020
 5176TIP3   OH236942   6.107   1.169   5.029  0.3897  0.6728  1.0517
 5176TIP3    H136943   6.014   1.190   5.019  0.4162  0.0608 -1.0048
 5176TIP3    H236944   6.153   1.242   4.988  0.7595  0.2958  0.7900
 5177TIP3   OH236945   1.941   5.148   0.430  0.2113 -0.9673  0.0131
 5177TIP3    H136946   2.000   5.146   0.355  1.3094 -0.9024  0.8513
 5177TIP3    H236947   1.936   5.240   0.456 -1.3228 -0.7718 -0.8355
 5178TIP3   OH236948   1.666   3.914   3.451  0.1935 -0.1844 -0.6882
 5178TIP3    H136949   1.670   3.987   3.513  0.9005  0.5955 -1.6194
 5178TIP3    H236950   1.584   3.870   3.471  0.8729 -0.5690  1.4653
 5179TIP3   OH236951   2.060   3.370   4.378  0.2257 -0.2237  0.0542
 5179TIP3    H136952   2.140   3.418   4.358  1.3030 -1.2846  1.5474
 5179TIP3    H236953   2.031   3.336   4.293  0.0239  2.0643 -0.8640
 5180TIP3   OH236954   6.583   5.758  12.391 -0.4100  0.2964  0.0445
 5180TIP3    H136955   6.590   5.665  12.369 -0.5445 -0.5238  3.1047
 5180TIP3    H236956   6.671   5.792  12.377 -0.3168 -0.2977 -0.9494
 5181TIP3   OH236957   4.074   0.001  13.826  0.1603  0.6597 -0.1152
 5181TIP3    H136958   4.100  -0.090  13.810  0.2978  0.2917  1.8867
 5181TIP3    H236959   4.088   0.045  13.743  1.3262 -0.8774 -0.7929
 5182TIP3   OH236960   3.266   6.071   5.397 -0.5659  0.1700 -0.4345
 5182TIP3    H136961   3.334   6.116   5.348  0.3058  0.7348  1.2072
 5182TIP3    H236962   3.314   6.017   5.460 -1.6302 -1.3393 -0.8717
 5183TIP3   OH236963   1.292   2.470  14.250 -0.3404  0.2451  0.1545
 5183TIP3    H136964   1.208   2.466  14.204 -0.3800  0.5615  0.1971
 5183TIP3    H236965   1.355   2.494  14.183 -0.2987  0.1141  0.1453
 5184TIP3   OH236966   0.600   0.257   4.497 -0.2197 -0.2396  0.3575
 5184TIP3    H136967   0.687   0.219   4.511 -0.0018 -0.2439 -0.8533
 5184TIP3    H236968   0.589   0.256   4.402 -1.4859 -0.0941  0.4831
 5185TIP3   OH236969   5.662   5.636   5.244 -0.2947 -0.1402  0.2903
 5185TIP3    H136970   5.725   5.588   5.191 -0.9563 -2.0497  1.1730
 5185TIP3    H236971   5.586   5.647   5.187 -0.2988 -0.5343  0.2187
 5186TIP3   OH236972   1.671   6.106  15.058  0.4853 -0.4739  0.2787
 5186TIP3    H136973   1.629   6.092  14.973  0.0876 -1.0991  0.5708
 5186TIP3    H236974   1.757   6.066  15.050  0.5456 -0.3092  0.0930
 5187TIP3   OH236975   4.908   2.731   4.128  0.9836 -0.3268  0.5280
 5187TIP3    H136976   4.980   2.741   4.066  0.7083 -0.6114  0.1571
 5187TIP3    H236977   4.907   2.637   4.149 -1.5135 -1.0702 -2.2427
 5188TIP3   OH236978   6.136   1.201  16.765 -0.1364 -0.3542 -0.2330
 5188TIP3    H136979   6.164   1.209  16.674 -0.5489 -0.3640 -0.3652
 5188TIP3    H236980   6.130   1.291  16.796 -1.3183 -0.2715 -0.6374
 5189TIP3   OH236981   2.044   0.318  16.752 -0.4631 -0.3932 -0.0068
 5189TIP3    H136982   2.132   0.345  16.778 -0.4496 -0.5730  0.1317
 5189TIP3    H236983   2.058   0.240  16.698 -0.5507 -0.5264  0.1642
 5190TIP3   OH236984   0.875   1.926  15.557  0.1781 -0.1229 -0.3381
 5190TIP3    H136985   0.911   1.891  15.475 -0.4720 -1.9705  0.1081
 5190TIP3    H236986   0.866   1.849  15.614 -1.8897  0.6762  0.5213
 5191TIP3   OH236987   4.835   1.702   3.597  0.4324  0.3831  0.1194
 5191TIP3    H136988   4.929   1.716   3.597  0.7915 -1.7251  0.9951
 5191TIP3    H236989   4.811   1.693   3.689 -0.7962  1.6766 -0.0319
 5192TIP3   OH236990   5.830   4.977  15.219  0.2917 -0.0991  0.4445
 5192TIP3    H136991   5.741   4.983  15.251 -0.2212  1.2040 -1.0984
 5192TIP3    H236992   5.878   5.045  15.266 -0.2119  1.0932 -0.7084
 5193TIP3   OH236993   2.134   3.279  16.714  0.3965  0.3494  0.3476
 5193TIP3    H136994   2.215   3.258  16.667  0.2251  0.8449 -0.1774
 5193TIP3    H236995   2.160   3.346  16.778  0.3417  0.7459 -0.0404
 5194TIP3   OH236996   4.509   1.850  12.299  0.4057 -0.3306  0.2633
 5194TIP3    H136997   4.459   1.777  12.264 -0.6381  1.8228 -3.2622
 5194TIP3    H236998   4.599   1.833  12.271  0.8271 -1.7028  2.2284
 5195TIP3   OH236999   6.547   0.440  12.442  0.1380 -0.3146 -0.6722
 5195TIP3    H137000   6.624   0.388  12.416  3.1718  2.9637  0.8027
 5195TIP3    H237001   6.552   0.445  12.537 -1.3038  0.8270 -0.6168
 5196TIP3   OH237002   4.245   5.689   3.940  0.1828 -0.4954 -0.1871
 5196TIP3    H137003   4.336   5.662   3.929  0.6682  0.9478  0.0953
 5196TIP3    H237004   4.223   5.736   3.859 -0.3116 -0.8258 -0.2509
 5197TIP3   OH237005   3.150   6.575  16.456 -0.1651  0.1543  0.0212
 5197TIP3    H137006   3.074   6.519  16.443  0.0541 -0.3356  0.7889
 5197TIP3    H237007   3.209   6.552  16.384  0.2335 -1.1592  0.7341
 5198TIP3   OH237008   4.397   6.747  10.859  0.0502  0.2697 -0.6831
 5198TIP3    H137009   4.485   6.713  10.845  0.4719  1.9490 -2.4895
 5198TIP3    H237010   4.341   6.690  10.806  0.1273 -0.4267 -0.0189
 5199TIP3   OH237011   6.189   4.004  17.356  0.0367 -0.3602 -0.0690
 5199TIP3    H137012   6.117   4.055  17.318  1.6816 -0.2305 -3.3325
 5199TIP3    H237013   6.268   4.040  17.316  1.5795 -3.0742  0.2811
 5200TIP3   OH237014   4.287   1.882   4.904  0.4345 -0.4142  0.2547
 5200TIP3    H137015   4.278   1.792   4.933  1.0854  0.1244  2.3217
 5200TIP3    H237016   4.212   1.897   4.846 -1.6434 -1.2847  2.5656
 5201TIP3   OH237017   0.928   1.818   1.327  0.8046  0.0167  0.0817
 5201TIP3    H137018   0.891   1.854   1.246  2.0343 -0.5646 -0.7731
 5201TIP3    H237019   1.017   1.853   1.330  1.5511 -1.7577 -0.0351
 5202TIP3   OH237020   3.748   5.045  14.323  0.4467 -0.2323  0.2712
 5202TIP3    H137021   3.668   5.096  14.331  1.2290  1.1038 -0.1122
 5202TIP3    H237022   3.718   4.956  14.301 -0.8909  0.7796 -2.5852
 5203TIP3   OH237023   0.685   2.396   4.018 -0.0850 -0.3582  0.3923
 5203TIP3    H137024   0.594   2.415   3.995  0.3005  0.3072 -0.6872
 5203TIP3    H237025   0.736   2.434   3.946  1.3131  2.7868  2.8035
 5204TIP3   OH237026   2.448   4.200  17.160  0.0449 -0.4969 -0.5864
 5204TIP3    H137027   2.383   4.245  17.107  0.1329  0.7938  0.3445
 5204TIP3    H237028   2.509   4.270  17.187  0.7510 -1.3503  0.0833
 5205TIP3   OH237029   1.639   0.802   1.124 -0.7366 -0.7372  0.0950
 5205TIP3    H137030   1.718   0.851   1.102 -0.9495  0.2058  1.3180
 5205TIP3    H237031   1.609   0.766   1.040  0.8668 -0.9490 -0.4153
 5206TIP3   OH237032   3.026   2.173  17.272  0.0337 -0.4118 -0.1401
 5206TIP3    H137033   2.975   2.129  17.205 -0.7955  1.6134 -0.9096
 5206TIP3    H237034   2.968   2.243  17.304  1.7656  1.0350 -0.0164
 5207TIP3   OH237035   0.223   2.730   4.541  0.1144 -0.3009  0.0250
 5207TIP3    H137036   0.273   2.650   4.555  2.8466  1.4379  1.0278
 5207TIP3    H237037   0.194   2.755   4.629  0.9580  0.7590  0.0255
 5208TIP3   OH237038   6.481   1.990   3.907  0.8764 -0.6779  0.3283
 5208TIP3    H137039   6.391   1.959   3.905  0.0044  1.5929 -2.2709
 5208TIP3    H237040   6.533   1.915   3.880 -0.6368 -1.1864 -1.3776
 5209TIP3   OH237041   4.967   0.283  12.296  0.0525  0.1081  0.1956
 5209TIP3    H137042   5.014   0.274  12.379  1.8468  1.6413 -0.5760
 5209TIP3    H237043   4.886   0.329  12.320  0.4310  0.3281  1.1182
 5210TIP3   OH237044   5.699   4.956  13.992 -0.1270  0.1201 -0.9877
 5210TIP3    H137045   5.714   4.894  13.920 -0.0195 -0.5475 -0.4058
 5210TIP3    H237046   5.623   4.921  14.038  0.7900 -0.4024  0.1968
 5211TIP3   OH237047   6.318   0.953   1.991  0.0803  0.1323  0.0357
 5211TIP3    H137048   6.339   1.038   2.030 -1.1048  0.4673 -0.0237
 5211TIP3    H237049   6.231   0.932   2.024  0.7759 -1.5848  0.9005
 5212TIP3   OH237050   4.562   5.880   4.264  0.1988  0.2134 -0.1294
 5212TIP3    H137051   4.601   5.793   4.275  1.0510  0.6169  0.1903
 5212TIP3    H237052   4.496   5.885   4.333  2.7049  1.1842  2.4195
 5213TIP3   OH237053   6.651   0.963  11.569 -0.4523 -0.3108 -0.5547
 5213TIP3    H137054   6.581   0.909  11.533  0.0092 -0.0735 -1.8416
 5213TIP3    H237055   6.720   0.900  11.593 -0.7068 -0.4532 -0.1724
 5214TIP3   OH237056   5.265   5.737  16.805 -0.2910  0.0083 -0.9364
 5214TIP3    H137057   5.319   5.784  16.741  1.9115 -1.0951  0.0117
 5214TIP3    H237058   5.298   5.767  16.890 -0.2631 -1.6579 -0.3309
 5215TIP3   OH237059   3.170   6.048  15.460  0.0347 -0.0623  0.6234
 5215TIP3    H137060   3.102   6.038  15.527  0.5976  1.8527  1.5358
 5215TIP3    H237061   3.211   6.132  15.479  2.0233 -0.7049 -0.5016
 5216TIP3   OH237062   5.658   2.420  17.337  0.2348  0.2173 -0.5082
 5216TIP3    H137063   5.696   2.433  17.250  0.5586  2.1801 -0.1318
 5216TIP3    H237064   5.665   2.326  17.353 -0.6616 -0.3264 -2.9540
 5217TIP3   OH237065   5.745   0.891   3.605 -0.7508 -0.1036  0.2817
 5217TIP3    H137066   5.729   0.842   3.524 -0.9080  0.2958  0.0697
 5217TIP3    H237067   5.660   0.928   3.628 -0.6385  0.0502  0.4561
 5218TIP3   OH237068   0.546   1.706  16.271 -0.3880 -0.2730  0.2564
 5218TIP3    H137069   0.577   1.634  16.326  1.3897  0.4555  0.2857
 5218TIP3    H237070   0.513   1.771  16.334 -1.0878 -0.6529  0.2850
 5219TIP3   OH237071   3.809   1.164   4.546 -0.2396 -0.4961  0.0804
 5219TIP3    H137072   3.766   1.241   4.585 -0.4119 -0.4554 -0.1833
 5219TIP3    H237073   3.850   1.119   4.620  1.7650  1.0258 -0.0225
 5220TIP3   OH237074   5.528   2.708   0.638 -0.1893  0.6071  0.0263
 5220TIP3    H137075   5.617   2.696   0.672  0.2670 -0.6636 -1.4665
 5220TIP3    H237076   5.523   2.802   0.618  0.4526  0.8743  1.0212
 5221TIP3   OH237077   5.638   2.264  17.011 -1.2296 -0.1125  0.3268
 5221TIP3    H137078   5.632   2.219  16.926 -0.8072  0.3720  0.0368
 5221TIP3    H237079   5.591   2.206  17.071  0.1738 -1.4828  0.1799
 5222TIP3   OH237080   0.693   1.528   0.412  0.3796  0.1862 -0.2363
 5222TIP3    H137081   0.730   1.557   0.328 -1.2961  1.2629 -0.6634
 5222TIP3    H237082   0.630   1.596   0.434 -1.0188 -1.3386  0.6477
 5223TIP3   OH237083   0.642   5.550   2.222  0.6824 -0.2855  0.4933
 5223TIP3    H137084   0.678   5.529   2.308 -1.1193 -0.6188  1.2021
 5223TIP3    H237085   0.669   5.641   2.207  1.3851 -0.3622  1.1966
 5224TIP3   OH237086   2.909   4.887   1.410 -0.2136 -0.0818 -0.5486
 5224TIP3    H137087   2.934   4.973   1.446 -1.8686 -0.1895  0.9763
 5224TIP3    H237088   2.965   4.825   1.456  1.1955  0.1363 -1.8634
 5225TIP3   OH237089   3.263   5.883   1.851  0.1531  0.2038 -0.2544
 5225TIP3    H137090   3.187   5.930   1.818  0.3411  1.0582  0.4877
 5225TIP3    H237091   3.233   5.843   1.933  0.9062  1.9025  0.9080
 5226TIP3   OH237092   1.339   4.961   1.294 -0.7574  0.1004  0.0774
 5226TIP3    H137093   1.358   4.921   1.210 -1.5267  2.3561 -1.2485
 5226TIP3    H237094   1.358   4.892   1.358  0.2499 -1.5433 -1.8753
 5227TIP3   OH237095   6.646   4.570   4.193 -0.2070 -0.1967 -0.0424
 5227TIP3    H137096   6.560   4.583   4.155 -0.0592  0.5857 -0.1239
 5227TIP3    H237097   6.707   4.608   4.129  0.1496 -0.1848  0.2968
 5228TIP3   OH237098   0.168   4.161   6.181 -0.2262 -0.1146  0.2709
 5228TIP3    H137099   0.256   4.194   6.200 -0.9939  2.3370 -0.1347
 5228TIP3    H237100   0.134   4.134   6.266  0.6824 -0.5697  0.5130
 5229TIP3   OH237101   4.364   2.872   3.645  0.0319  0.2502 -0.3681
 5229TIP3    H137102   4.373   2.925   3.724  1.4465 -0.4119 -0.0358
 5229TIP3    H237103   4.365   2.935   3.573 -0.5604  0.8114  0.1011
 5230TIP3   OH237104   0.817   0.422   0.539  0.0645  0.8278  0.0998
 5230TIP3    H137105   0.864   0.454   0.616  2.9661 -0.4177 -0.9878
 5230TIP3    H237106   0.845   0.480   0.468 -2.7575  2.1193 -0.0863
 5231TIP3   OH237107   0.839   1.732   4.151 -0.1399  0.2903  0.5916
 5231TIP3    H137108   0.771   1.795   4.127  0.2957  0.6489  0.2687
 5231TIP3    H237109   0.842   1.671   4.077 -0.2053  0.1938  0.6684
 5232TIP3   OH237110   2.976   4.353  14.197 -0.4494 -0.0305  0.4710
 5232TIP3    H137111   2.915   4.281  14.181 -0.1759 -0.4907  1.4202
 5232TIP3    H237112   3.004   4.380  14.110  2.6477 -3.8266 -0.0114
 5233TIP3   OH237113   5.084   4.651  11.273  0.5855  0.0134 -0.6601
 5233TIP3    H137114   5.064   4.732  11.320 -0.0325 -1.3515  1.6033
 5233TIP3    H237115   5.008   4.638  11.216 -1.3328 -0.9312  1.9074
 5234TIP3   OH237116   1.254   5.811  13.888  0.0805 -0.0668 -0.6767
 5234TIP3    H137117   1.248   5.876  13.818 -1.0393 -0.4457 -0.9420
 5234TIP3    H237118   1.295   5.735  13.846 -0.3928 -0.2182 -0.8600
 5235TIP3   OH237119   3.873   2.008  14.426 -0.0304 -0.3636 -0.1394
 5235TIP3    H137120   3.853   1.916  14.443 -0.6498 -0.2253 -0.0944
 5235TIP3    H237121   3.796   2.041  14.380 -0.8606  0.7078  1.8741
 5236TIP3   OH237122   6.379   3.141   3.580 -0.4380  0.3109  0.2389
 5236TIP3    H137123   6.295   3.100   3.601 -0.0328 -2.6035 -2.8031
 5236TIP3    H237124   6.430   3.134   3.660 -1.5647 -2.3484  0.8387
 5237TIP3   OH237125   2.414   0.560  13.779 -0.3151  0.3450 -0.6217
 5237TIP3    H137126   2.480   0.596  13.719 -0.8495  0.3780 -1.2003
 5237TIP3    H237127   2.331   0.597  13.749 -0.6618 -0.0708 -0.1959
 5238TIP3   OH237128   5.231   4.819  12.811 -0.2128 -0.1745  0.2862
 5238TIP3    H137129   5.232   4.914  12.799 -0.6911  0.1406  2.3818
 5238TIP3    H237130   5.238   4.807  12.906  0.5269 -2.2611  0.0136
 5239TIP3   OH237131   0.307   5.593   5.570 -0.1994 -0.0711 -0.4574
 5239TIP3    H137132   0.270   5.665   5.519  0.2265  0.5681  0.1171
 5239TIP3    H237133   0.267   5.601   5.657  0.0237 -0.3841 -0.3213
 5240TIP3   OH237134   4.621   3.295  12.964  0.3553 -0.0966  0.3959
 5240TIP3    H137135   4.650   3.365  13.022 -1.2588  1.8384 -0.9699
 5240TIP3    H237136   4.702   3.259  12.928  1.2609  1.6924  0.4881
 5241TIP3   OH237137   3.967   4.463  12.967 -0.6162 -0.3307  0.2058
 5241TIP3    H137138   3.956   4.497  12.878 -0.9994 -0.5545  0.1637
 5241TIP3    H237139   4.020   4.385  12.956 -1.3414 -0.8207  0.0664
 5242TIP3   OH237140   1.633   1.411  14.621  0.7783  0.3440  0.3961
 5242TIP3    H137141   1.579   1.434  14.545  0.6083 -2.3020 -0.3888
 5242TIP3    H237142   1.718   1.451  14.603  0.7985 -0.3795 -1.3285
 5243TIP3   OH237143   4.912   6.450  16.210 -0.2428  0.6180 -0.1037
 5243TIP3    H137144   4.835   6.395  16.221 -0.7895  1.1966 -0.9171
 5243TIP3    H237145   4.984   6.397  16.241 -0.9749  0.0790  0.7100
 5244TIP3   OH237146   0.738   6.690   4.473 -0.5579 -0.2025 -0.4306
 5244TIP3    H137147   0.822   6.734   4.461  0.3001 -1.9429 -1.1106
 5244TIP3    H237148   0.748   6.641   4.555 -2.0363  1.9572  1.1345
 5245TIP3   OH237149   5.706   5.215   5.547 -0.1650  0.0985  0.3585
 5245TIP3    H137150   5.772   5.154   5.514 -0.0421  0.4582 -0.0681
 5245TIP3    H237151   5.663   5.167   5.618  0.3500 -0.2515  0.4403
 5246TIP3   OH237152   4.520   2.480  12.488  0.1475 -0.6919  0.3703
 5246TIP3    H137153   4.537   2.514  12.575 -0.0473  1.0529 -0.2220
 5246TIP3    H237154   4.441   2.426  12.498  0.8045 -1.4839  1.4573
 5247TIP3   OH237155   5.793   0.397  14.508  0.1116  0.3330  0.3051
 5247TIP3    H137156   5.823   0.453  14.437  1.2748  0.9835  1.2699
 5247TIP3    H237157   5.742   0.329  14.465 -0.6084  1.6249 -0.9873
 5248TIP3   OH237158   3.030   1.796   5.546  0.2600 -0.1839 -0.0007
 5248TIP3    H137159   2.998   1.861   5.608 -0.6343 -0.0318 -0.5987
 5248TIP3    H237160   3.016   1.712   5.590  0.1369 -0.0422  0.2315
 5249TIP3   OH237161   4.931   1.830   4.056 -0.1456 -0.7981  0.4932
 5249TIP3    H137162   4.842   1.862   4.039 -0.5274 -2.7203 -1.7165
 5249TIP3    H237163   4.931   1.808   4.149 -1.4898  0.5640  0.8643
 5250TIP3   OH237164   5.315   1.680   6.114  0.1706  0.1582 -0.6857
 5250TIP3    H137165   5.223   1.686   6.138  0.6396  0.0577  1.3493
 5250TIP3    H237166   5.357   1.751   6.162  1.1940  0.0935 -1.4471
 5251TIP3   OH237167   5.613   5.553   2.460 -0.5258  0.3792 -0.1059
 5251TIP3    H137168   5.644   5.642   2.441 -0.0853  0.0395 -1.0012
 5251TIP3    H237169   5.555   5.532   2.387 -0.4966 -0.1432  0.0208
 5252TIP3   OH237170   0.432   0.648   5.187  0.1152 -0.2492 -0.3754
 5252TIP3    H137171   0.524   0.627   5.172  0.8081  0.4489  2.3163
 5252TIP3    H237172   0.396   0.571   5.230  0.7187  1.0374  2.6950
 5253TIP3   OH237173   1.166   3.763  16.726 -0.6638 -0.2715 -0.1352
 5253TIP3    H137174   1.255   3.780  16.756  0.5911 -0.4832 -3.3674
 5253TIP3    H237175   1.140   3.843  16.680 -1.7820 -0.5777 -0.0708
 5254TIP3   OH237176   0.534   5.964   3.540 -0.1936 -0.0721  0.3175
 5254TIP3    H137177   0.528   6.015   3.459 -0.0521 -1.5875 -0.7013
 5254TIP3    H237178   0.527   5.873   3.511 -0.3309 -0.6473  2.0495
 5255TIP3   OH237179   6.105   3.691  16.641  0.1719 -0.1672  0.7269
 5255TIP3    H137180   6.185   3.710  16.591 -0.6409 -0.5798 -0.8256
 5255TIP3    H237181   6.133   3.691  16.732  1.8041  0.3736  0.2693
 5256TIP3   OH237182   0.078   3.581   0.729  0.1156 -0.4777  0.2392
 5256TIP3    H137183   0.023   3.532   0.667  0.0355  0.5137 -0.4908
 5256TIP3    H237184   0.104   3.515   0.794  0.1690 -1.5374 -0.8134
 5257TIP3   OH237185   5.551   4.983  12.813  0.3380  0.0461  0.3556
 5257TIP3    H137186   5.596   5.016  12.891  0.5598 -0.0707  0.2790
 5257TIP3    H237187   5.587   5.035  12.741  0.4143 -0.1096  0.2817
 5258TIP3   OH237188   0.258   5.363  12.510 -0.8805  0.0678 -0.0977
 5258TIP3    H137189   0.163   5.366  12.525 -0.8382 -3.0945  1.8041
 5258TIP3    H237190   0.293   5.316  12.586  2.2225  0.9909 -0.8199
 5259TIP3   OH237191   6.061   1.504  16.376 -0.0456 -0.0939  0.4719
 5259TIP3    H137192   5.990   1.458  16.420  0.9541  0.1840  2.4870
 5259TIP3    H237193   6.135   1.497  16.436  0.7974  2.1294 -0.1964
 5260TIP3   OH237194   6.305   4.394  16.147  0.7712  0.6265 -0.6480
 5260TIP3    H137195   6.248   4.415  16.073  0.4291 -1.0210 -0.9022
 5260TIP3    H237196   6.392   4.385  16.108  0.6943  0.3375 -0.7562
 5261TIP3   OH237197   0.738   4.504  15.765 -0.0710  0.1776  0.1768
 5261TIP3    H137198   0.735   4.481  15.858  0.2248 -0.3604  0.0561
 5261TIP3    H237199   0.818   4.556  15.756 -1.0192  1.7581  0.5523
 5262TIP3   OH237200   4.909   6.266   4.032  0.2698 -0.2506 -0.5683
 5262TIP3    H137201   4.949   6.311   4.106  2.0997 -0.2459 -1.5014
 5262TIP3    H237202   4.868   6.188   4.070  0.6232  0.0799  0.5076
 5263TIP3   OH237203   1.096   3.309  10.787 -0.1835  0.0471  0.7849
 5263TIP3    H137204   1.056   3.384  10.742  0.2354  0.4465  1.0634
 5263TIP3    H237205   1.168   3.283  10.730  0.6809  0.8897  1.4507
 5264TIP3   OH237206   5.453   0.307   4.496 -0.2633  0.1350  0.5331
 5264TIP3    H137207   5.485   0.367   4.428 -0.4501 -0.1416  0.1963
 5264TIP3    H237208   5.441   0.362   4.573 -0.4965  0.5427  0.2090
 5265TIP3   OH237209   0.593   6.286  15.698 -0.2310  0.2251  0.5340
 5265TIP3    H137210   0.554   6.319  15.780 -0.4359  1.3419 -0.0060
 5265TIP3    H237211   0.675   6.244  15.726 -0.2912  0.5988  1.3056
 5266TIP3   OH237212   1.588   1.569   3.782  0.2384  0.0717  0.5688
 5266TIP3    H137213   1.593   1.656   3.743  0.4692 -0.6586 -1.1467
 5266TIP3    H237214   1.495   1.547   3.780  0.0606  0.6181  1.8672
 5267TIP3   OH237215   6.188   3.680  16.912  0.8197 -0.0549  0.1275
 5267TIP3    H137216   6.237   3.740  16.968  2.6487  0.5232 -1.9241
 5267TIP3    H237217   6.224   3.593  16.932  1.0647  0.0738  0.2463
 5268TIP3   OH237218   6.428   3.573  16.067  0.1369 -0.1029 -0.4015
 5268TIP3    H137219   6.453   3.481  16.077  0.0445 -0.0491  0.4759
 5268TIP3    H237220   6.347   3.580  16.117  0.6370  0.6525  0.3334
 5269TIP3   OH237221   0.034   2.163   5.589 -0.5398 -0.5268  0.5114
 5269TIP3    H137222   0.101   2.098   5.565 -1.0390 -0.5867 -0.7939
 5269TIP3    H237223  -0.022   2.169   5.512 -0.6061  1.3332  0.6608
 5270TIP3   OH237224   1.234   5.517  13.806  0.1052  0.7256 -0.5653
 5270TIP3    H137225   1.311   5.486  13.758 -0.5046  0.5994 -1.4878
 5270TIP3    H237226   1.184   5.568  13.742 -2.0306 -1.5490 -0.8725
 5271TIP3   OH237227   2.431   1.870  17.390  0.0333 -0.5694 -0.1370
 5271TIP3    H137228   2.404   1.957  17.422  0.3783 -0.6140  0.2927
 5271TIP3    H237229   2.409   1.871  17.297 -0.2956 -0.1510 -0.0615
 5272TIP3   OH237230   0.900   2.288  11.601  0.5484  0.4253 -0.1241
 5272TIP3    H137231   0.929   2.296  11.510 -1.5999 -0.4355 -0.9607
 5272TIP3    H237232   0.815   2.331  11.602 -0.7471 -1.9592  0.7380
 5273TIP3   OH237233   0.039   5.900  13.902 -0.2031  0.6597  0.3872
 5273TIP3    H137234   0.047   5.839  13.828  1.7601 -0.9598  1.8172
 5273TIP3    H237235  -0.053   5.895  13.927 -0.2333 -1.3186  0.0830
 5274TIP3   OH237236   4.783   1.370  11.608  0.4209  0.3932 -0.3761
 5274TIP3    H137237   4.747   1.439  11.553  1.5794  0.0589 -1.5846
 5274TIP3    H237238   4.876   1.389  11.612  0.4800 -0.0720  0.8049
 5275TIP3   OH237239   2.035   1.982   2.550  0.5646  0.1797  0.2969
 5275TIP3    H137240   2.045   1.894   2.587 -1.0390  0.2463  0.9461
 5275TIP3    H237241   2.054   1.971   2.457 -1.7734 -1.3476 -0.0903
 5276TIP3   OH237242   1.510   0.856  15.479 -0.5526  0.3550  0.8084
 5276TIP3    H137243   1.436   0.837  15.537 -0.8435  0.0479  0.3390
 5276TIP3    H237244   1.553   0.772  15.466 -0.4904  0.4210  0.5801
 5277TIP3   OH237245   0.686   2.441  11.515  0.1366 -0.1406 -0.2114
 5277TIP3    H137246   0.635   2.476  11.588 -0.9960 -2.6576  0.3323
 5277TIP3    H237247   0.635   2.365  11.486  1.4123 -0.1754 -2.5585
 5278TIP3   OH237248   5.521   1.902   3.250  0.3992 -0.7281  0.1568
 5278TIP3    H137249   5.530   1.983   3.302  1.8949 -0.1133 -0.9930
 5278TIP3    H237250   5.508   1.834   3.316 -0.7158  0.4026  1.1778
 5279TIP3   OH237251   5.285   4.703  15.532  0.0946 -0.0430 -0.1331
 5279TIP3    H137252   5.350   4.636  15.555 -0.3813  0.0453  1.5961
 5279TIP3    H237253   5.217   4.694  15.598 -1.3893  0.2730 -1.5629
 5280TIP3   OH237254   2.391   6.173  16.417 -0.7000  0.2878  0.6450
 5280TIP3    H137255   2.371   6.247  16.359  0.5528  0.9283  0.9955
 5280TIP3    H237256   2.326   6.106  16.393 -1.9560  1.5346  0.4214
 5281TIP3   OH237257   2.433   0.512   5.453  0.4818 -0.0059  0.3146
 5281TIP3    H137258   2.340   0.517   5.432  0.5373 -0.3103 -0.0224
 5281TIP3    H237259   2.468   0.446   5.393  0.5917 -1.1298  1.5555
 5282TIP3   OH237260   3.646   6.557  10.825 -0.6159  0.4282 -0.1287
 5282TIP3    H137261   3.694   6.552  10.908 -1.2637  1.1027  0.3036
 5282TIP3    H237262   3.706   6.602  10.766 -0.1176 -0.1260 -0.0608
 5283TIP3   OH237263   2.152   6.723   5.130  0.1327 -0.3091  0.4150
 5283TIP3    H137264   2.086   6.783   5.096 -1.0743 -0.7431  1.8908
 5283TIP3    H237265   2.231   6.745   5.081 -1.4197 -0.8358 -2.5620
 5284TIP3   OH237266   0.315   2.892  11.613  0.1374  0.3383  0.0405
 5284TIP3    H137267   0.317   2.871  11.706  0.4517  0.4346  0.0549
 5284TIP3    H237268   0.355   2.816  11.570  0.7274  0.6440  0.0469
 5285TIP3   OH237269   6.537   1.435  14.848  0.5946 -0.7374 -0.1658
 5285TIP3    H137270   6.579   1.351  14.834  0.0624 -0.8779 -0.9739
 5285TIP3    H237271   6.497   1.428  14.935  0.3847 -1.3909 -0.3090
 5286TIP3   OH237272   3.066   1.223  11.639 -0.7185 -0.4654  0.0550
 5286TIP3    H137273   3.119   1.181  11.708  1.9718  0.6718 -1.1593
 5286TIP3    H237274   3.024   1.297  11.683  1.5579  0.6948  0.4362
 5287TIP3   OH237275   0.211   2.301   2.018  0.5773 -0.6572 -0.9396
 5287TIP3    H137276   0.157   2.377   2.041  0.4105 -1.4783  1.8241
 5287TIP3    H237277   0.291   2.338   1.982  0.6351  0.8880  0.6479
 5288TIP3   OH237278   6.658   4.004  15.230  0.2373 -0.1348 -0.0308
 5288TIP3    H137279   6.708   4.068  15.281 -0.0912 -0.0033  0.1280
 5288TIP3    H237280   6.718   3.975  15.162  0.2592  0.6210 -0.3336
 5289TIP3   OH237281   6.605   6.582  15.686 -0.2847 -0.5385 -0.0495
 5289TIP3    H137282   6.659   6.521  15.737 -0.7780  0.4128  1.6620
 5289TIP3    H237283   6.517   6.572  15.722 -0.2601  1.6393  0.7582
 5290TIP3   OH237284   5.265   2.310  11.420  0.1869  0.4517  0.0672
 5290TIP3    H137285   5.199   2.325  11.488  1.0884  1.3021  0.7957
 5290TIP3    H237286   5.277   2.396  11.380 -2.5003 -0.5394 -3.3257
 5291TIP3   OH237287   0.670   1.350  11.339 -0.4556 -0.3457 -0.6305
 5291TIP3    H137288   0.729   1.318  11.407  1.8858  0.1411 -2.3187
 5291TIP3    H237289   0.705   1.313  11.258 -1.2403  1.6074 -1.9282
 5292TIP3   OH237290   2.619   5.799  11.153  0.2864 -0.4935  0.5560
 5292TIP3    H137291   2.620   5.703  11.143  3.0645 -0.4389 -0.5272
 5292TIP3    H237292   2.589   5.832  11.069 -0.8506 -0.3650  0.9897
 5293TIP3   OH237293   3.911   1.563   1.514 -0.0069 -0.3674  0.1287
 5293TIP3    H137294   3.890   1.474   1.543  1.1333 -0.6291  0.2075
 5293TIP3    H237295   3.861   1.575   1.434 -0.9972 -0.6861  0.6861
 5294TIP3   OH237296   3.606   2.266   5.165 -0.9020  0.6288 -0.0328
 5294TIP3    H137297   3.593   2.247   5.072 -0.6384  1.8403 -0.3330
 5294TIP3    H237298   3.663   2.344   5.166  2.6219 -1.7160  1.1671
 5295TIP3   OH237299   5.150   4.323   6.714  0.0618  0.4117  0.3456
 5295TIP3    H137300   5.120   4.354   6.799  0.4034  1.7084  0.0143
 5295TIP3    H237301   5.236   4.364   6.702  0.7626 -1.0545  0.0783
 5296TIP3   OH237302   4.211   2.953  16.880  0.9478  0.1277 -0.1854
 5296TIP3    H137303   4.306   2.963  16.878  1.0580  0.1496 -4.2284
 5296TIP3    H237304   4.178   3.025  16.825 -1.7334  1.6119  3.0032
 5297TIP3   OH237305   4.692   6.205  12.953 -0.1202  0.4166  0.6799
 5297TIP3    H137306   4.721   6.120  12.986 -2.5442 -0.6106  0.3610
 5297TIP3    H237307   4.747   6.269  13.000 -0.1038 -1.1917  3.0059
 5298TIP3   OH237308   3.727   2.034   5.424 -0.1303  0.0335  0.8312
 5298TIP3    H137309   3.782   2.111   5.407 -0.7204  0.5871  1.3889
 5298TIP3    H237310   3.648   2.069   5.465 -1.2765 -0.6528 -0.6758
 5299TIP3   OH237311   4.982   0.445  15.828 -0.3797  0.0357 -0.2915
 5299TIP3    H137312   5.022   0.456  15.741 -0.6895 -1.7069 -0.6885
 5299TIP3    H237313   5.034   0.502  15.885  0.8450  0.0052 -1.3262
 5300TIP3   OH237314   6.308   6.386   2.693 -1.0813 -0.0680 -0.2298
 5300TIP3    H137315   6.383   6.438   2.721 -0.4769 -0.2973 -1.3871
 5300TIP3    H237316   6.243   6.452   2.666 -0.0123  0.1557 -2.4949
 5301TIP3   OH237317   6.526   2.645   4.049 -0.1965 -0.7664 -0.3777
 5301TIP3    H137318   6.580   2.702   3.994  0.9024 -0.5689  0.8455
 5301TIP3    H237319   6.509   2.697   4.127 -1.9697 -0.9427 -0.6030
 5302TIP3   OH237320   5.080   0.465  17.368 -0.0484 -0.3472 -0.0779
 5302TIP3    H137321   5.099   0.554  17.338 -0.9833 -0.3399 -0.6872
 5302TIP3    H237322   5.142   0.410  17.321  0.0346 -0.0906 -0.2727
 5303TIP3   OH237323   4.650   2.122  13.692 -0.0181  0.1778  0.6229
 5303TIP3    H137324   4.558   2.107  13.713  0.1739 -0.0795  1.3220
 5303TIP3    H237325   4.698   2.086  13.767  0.6254  0.9247  0.5865
 5304TIP3   OH237326   5.290   5.355   2.042 -0.1261  0.1336  0.0019
 5304TIP3    H137327   5.303   5.281   1.982 -0.6164  1.0855 -1.3257
 5304TIP3    H237328   5.289   5.315   2.129 -2.0274 -1.6652 -0.7454
 5305TIP3   OH237329   6.206   0.986  16.015  0.3079 -0.2015 -0.1559
 5305TIP3    H137330   6.142   1.039  16.063  0.8345  0.3736 -0.0680
 5305TIP3    H237331   6.172   0.984  15.926  0.1623  0.0933 -0.1106
 5306TIP3   OH237332   4.052   0.736   4.829 -0.0434  0.0722  0.8076
 5306TIP3    H137333   4.060   0.776   4.916 -0.5493  1.0493  0.4270
 5306TIP3    H237334   4.140   0.739   4.793  0.2906 -0.8987  1.5173
 5307TIP3   OH237335   3.899   6.287   1.522 -0.0671 -0.3910 -0.4074
 5307TIP3    H137336   3.837   6.322   1.585 -0.1462  0.8418 -1.1502
 5307TIP3    H237337   3.924   6.361   1.468  3.2488 -0.4302  0.7856
 5308TIP3   OH237338   3.058   1.429  12.170 -0.3046 -0.1051  0.0688
 5308TIP3    H137339   3.067   1.484  12.092 -0.9330 -0.3990 -0.2229
 5308TIP3    H237340   3.003   1.356  12.141 -1.9596  0.6432  1.2153
 5309TIP3   OH237341   6.121   1.496   3.060  0.0769 -0.1637 -0.2325
 5309TIP3    H137342   6.056   1.486   3.130 -0.0782  0.7419 -0.2296
 5309TIP3    H237343   6.174   1.416   3.064 -1.4571 -1.2504 -0.6874
 5310TIP3   OH237344   2.116   3.173   5.023 -0.0944 -0.2522  0.3677
 5310TIP3    H137345   2.124   3.114   5.098  0.4807  1.5417  1.7868
 5310TIP3    H237346   2.024   3.166   4.997 -0.4747 -0.3735  1.6949
 5311TIP3   OH237347   4.961   3.600   4.959 -0.5376  0.4801 -0.0651
 5311TIP3    H137348   4.920   3.519   4.988  0.5358  0.3650  1.1946
 5311TIP3    H237349   4.894   3.642   4.904 -1.0838 -1.2718 -0.8272
 5312TIP3   OH237350   3.350   2.629  13.265  0.1882  0.0361  0.1173
 5312TIP3    H137351   3.332   2.633  13.359  0.6935 -2.7245  0.4133
 5312TIP3    H237352   3.268   2.598  13.227 -0.4229  2.3246 -0.5925
 5313TIP3   OH237353   1.497   6.025  13.759 -0.4503 -0.4009 -0.2949
 5313TIP3    H137354   1.555   5.949  13.758 -0.9552 -0.7938 -0.2630
 5313TIP3    H237355   1.511   6.064  13.845  1.7094  1.0484 -1.2416
 5314TIP3   OH237356   5.599   6.244   0.729 -0.3048 -0.5102  0.1686
 5314TIP3    H137357   5.609   6.259   0.823  0.4713 -0.4464  0.0832
 5314TIP3    H237358   5.680   6.278   0.690 -1.6288  1.7738 -0.7947
 5315TIP3   OH237359   3.862   5.075   3.454 -0.0026  0.0665 -0.7047
 5315TIP3    H137360   3.906   5.050   3.372 -0.4953  1.0847 -1.2975
 5315TIP3    H237361   3.782   5.023   3.455  0.3730 -0.5100 -0.4907
 5316TIP3   OH237362   3.377   6.023   3.715 -0.2550  0.2752  0.5156
 5316TIP3    H137363   3.362   5.931   3.736 -1.4397  0.8570  2.4289
 5316TIP3    H237364   3.302   6.047   3.660 -0.3868  0.3032  0.7062
 5317TIP3   OH237365   5.929   3.376  13.800 -0.5123 -0.0085  0.0342
 5317TIP3    H137366   5.889   3.293  13.822  0.7455 -0.4862  0.6302
 5317TIP3    H237367   5.926   3.380  13.705 -0.1742 -0.9536 -0.0259
 5318TIP3   OH237368   3.123   2.043  12.930  0.0714  0.0587 -0.3090
 5318TIP3    H137369   3.214   2.075  12.931  0.2045 -0.2906  0.8210
 5318TIP3    H237370   3.129   1.956  12.892  0.3615 -0.3489  0.6535
 5319TIP3   OH237371   6.151   1.407   1.591 -0.2116  0.3758  0.2483
 5319TIP3    H137372   6.159   1.491   1.636  0.0093  0.5917 -0.1851
 5319TIP3    H237373   6.231   1.359   1.615 -0.3274  0.2969  0.4779
 5320TIP3   OH237374   4.674   2.508   3.465 -0.1985  0.5624 -0.1956
 5320TIP3    H137375   4.585   2.543   3.476 -0.5576 -0.6316  0.8958
 5320TIP3    H237376   4.660   2.420   3.431  0.5388  0.1211  0.6274
 5321TIP3   OH237377   6.506   3.550   2.387 -0.5238 -0.1485 -0.2069
 5321TIP3    H137378   6.426   3.516   2.426  0.1042 -0.7305  0.5959
 5321TIP3    H237379   6.568   3.556   2.459  1.2137 -2.8609 -1.3250
 5322TIP3   OH237380   4.728   3.423   0.659 -0.0364  0.3277 -0.1943
 5322TIP3    H137381   4.644   3.385   0.634  0.9185 -0.9027 -1.8102
 5322TIP3    H237382   4.724   3.513   0.627 -1.1550  0.6538  0.8070
 5323TIP3   OH237383   6.379   2.284  13.392  0.2869 -0.3277 -0.1598
 5323TIP3    H137384   6.326   2.274  13.313 -1.3242 -1.1916  0.9644
 5323TIP3    H237385   6.462   2.242  13.370 -0.4846 -1.4436 -1.0781
 5324TIP3   OH237386   6.522   3.257   0.411  0.0739  0.1031  0.3861
 5324TIP3    H137387   6.512   3.169   0.447 -0.6460  0.9062  2.2860
 5324TIP3    H237388   6.572   3.305   0.477 -1.1165  1.6058  0.2587
 5325TIP3   OH237389   1.309   3.720   1.584  0.5804 -0.5749 -0.4342
 5325TIP3    H137390   1.344   3.664   1.515  2.7276  0.3880 -0.2315
 5325TIP3    H237391   1.377   3.787   1.596 -1.1419  1.1214  0.4380
 5326TIP3   OH237392   5.773   5.474  12.599  0.7306 -0.0476 -0.4975
 5326TIP3    H137393   5.812   5.543  12.545  0.9515 -1.1319 -1.7595
 5326TIP3    H237394   5.679   5.480  12.580  0.6932  0.1837 -0.2555
 5327TIP3   OH237395   3.594   5.668  16.007  0.3905 -0.0188 -0.1801
 5327TIP3    H137396   3.533   5.641  16.076  0.0425  1.4583  0.1108
 5327TIP3    H237397   3.541   5.667  15.927  0.3076  0.0514 -0.1270
 5328TIP3   OH237398   3.411   0.654  11.955  0.2122 -0.5100 -0.1040
 5328TIP3    H137399   3.444   0.594  12.021  0.7479 -1.7467 -1.4487
 5328TIP3    H237400   3.485   0.667  11.895 -0.9130 -1.2807 -1.7364
 5329TIP3   OH237401   6.458   2.554  12.310  0.8188  0.5730 -0.4877
 5329TIP3    H137402   6.454   2.462  12.336  0.1505  0.0459 -2.3356
 5329TIP3    H237403   6.515   2.555  12.233  0.4082  1.6325 -0.7972
 5330TIP3   OH237404   4.017   6.598   0.933 -0.3483 -0.0112  0.2219
 5330TIP3    H137405   3.961   6.527   0.963 -0.6362 -0.1094 -0.5354
 5330TIP3    H237406   4.054   6.634   1.014  0.6774 -1.7237  0.5682
 5331TIP3   OH237407   1.866   6.131  13.407 -0.6520  0.3219 -0.6779
 5331TIP3    H137408   1.950   6.111  13.365 -0.4444 -2.6524  0.8843
 5331TIP3    H237409   1.800   6.097  13.347 -0.5869  0.2264 -0.6964
 5332TIP3   OH237410   0.123   0.038  12.362 -0.3672  0.1004  0.3611
 5332TIP3    H137411   0.121   0.023  12.267 -0.6348  0.7434  0.2590
 5332TIP3    H237412   0.215   0.050  12.383 -0.4643  2.3656 -0.2287
 5333TIP3   OH237413   0.420   5.585  12.475 -0.2173  0.3720 -0.0365
 5333TIP3    H137414   0.366   5.508  12.491 -0.5776  1.0985  2.6941
 5333TIP3    H237415   0.358   5.658  12.472  0.3093  0.8178 -0.4988
 5334TIP3   OH237416   1.920   5.810   4.977  0.1853 -0.3731  0.1505
 5334TIP3    H137417   2.005   5.773   5.000  1.4569  2.6492  0.8142
 5334TIP3    H237418   1.940   5.882   4.917 -1.8245  0.7198  0.6741
 5335TIP3   OH237419   4.239   4.025   3.364  0.0792 -0.1144 -0.3961
 5335TIP3    H137420   4.174   3.954   3.365  0.9119 -0.9308 -1.4141
 5335TIP3    H237421   4.315   3.989   3.408  0.3073  0.3548 -0.3996
 5336TIP3   OH237422   5.444   3.550   6.090 -0.3911 -0.6169 -0.0358
 5336TIP3    H137423   5.365   3.547   6.144 -0.7607  0.7281 -0.4417
 5336TIP3    H237424   5.515   3.571   6.151 -0.7971  0.8488 -0.0240
 5337TIP3   OH237425   3.386   2.132  12.961 -0.1435 -0.0740 -0.8996
 5337TIP3    H137426   3.482   2.127  12.961 -0.0111  1.6400  0.6737
 5337TIP3    H237427   3.366   2.211  12.910 -0.5690  0.9628  0.8115
 5338TIP3   OH237428   3.839   1.804   5.432 -0.2038  0.3630 -0.3048
 5338TIP3    H137429   3.846   1.795   5.528  0.2630  0.2223 -0.3496
 5338TIP3    H237430   3.796   1.888   5.419  1.9589  1.5874 -0.0104
 5339TIP3   OH237431   4.879   1.356   2.067 -0.7121  0.1611  0.0703
 5339TIP3    H137432   4.939   1.284   2.085  1.0956  0.8206 -2.7000
 5339TIP3    H237433   4.860   1.349   1.973 -1.8236  2.3106  0.0749
 5340TIP3   OH237434   6.708   3.391  12.078 -0.2770  0.3816 -0.2238
 5340TIP3    H137435   6.699   3.464  12.017  0.8234  0.9773  0.2999
 5340TIP3    H237436   6.801   3.389  12.099  0.2539 -2.7572 -2.1475
 5341TIP3   OH237437   0.634   6.374  13.276 -0.1397 -0.6624  0.1920
 5341TIP3    H137438   0.566   6.413  13.331 -1.3154 -1.7914 -0.3964
 5341TIP3    H237439   0.716   6.392  13.322 -0.9683 -0.5430  1.6834
 5342TIP3   OH237440   6.059   6.273  13.748  0.8406  0.0300 -0.0864
 5342TIP3    H137441   6.101   6.351  13.786 -1.2100  2.5415 -2.5325
 5342TIP3    H237442   6.119   6.246  13.679  0.4257  1.0927 -0.8999
 5343TIP3   OH237443   0.472   3.252  12.368  0.1878  0.1527  0.6591
 5343TIP3    H137444   0.512   3.203  12.296 -1.0029 -0.6372  0.5184
 5343TIP3    H237445   0.449   3.185  12.432  2.3485  0.9362  2.3965
 5344TIP3   OH237446   4.432   4.583  11.842 -0.0078  0.3579  0.1049
 5344TIP3    H137447   4.341   4.583  11.810 -0.9359  0.1562  2.5411
 5344TIP3    H237448   4.454   4.675  11.852  0.0574  0.4088 -0.4986
 5345TIP3   OH237449   6.261   3.167   4.900  0.3713 -0.7486  0.2625
 5345TIP3    H137450   6.227   3.102   4.963 -1.3096 -0.2005 -0.0235
 5345TIP3    H237451   6.186   3.225   4.883  2.0035  1.7692  1.1068
 5346TIP3   OH237452   0.410   2.302  14.675 -0.2500  0.1031 -0.2756
 5346TIP3    H137453   0.427   2.351  14.595 -1.5071  2.0710  0.5800
 5346TIP3    H237454   0.365   2.365  14.732 -0.3359 -1.5498  1.5751
 5347TIP3   OH237455   0.000   2.623  13.324  0.2076 -0.9274  0.9193
 5347TIP3    H137456  -0.080   2.616  13.375  1.4813  0.4257  3.2827
 5347TIP3    H237457   0.057   2.554  13.359  0.8081 -0.5223  0.7695
 5348TIP3   OH237458   6.571   1.446   0.370  0.1726  0.5928  0.6100
 5348TIP3    H137459   6.585   1.483   0.457 -0.0230  2.1029  0.0303
 5348TIP3    H237460   6.579   1.352   0.382  1.8430  0.8629  1.9543
 5349TIP3   OH237461   5.419   4.405   5.867 -0.0669  0.0042  0.0695
 5349TIP3    H137462   5.494   4.415   5.925 -1.7049  2.2009  1.9831
 5349TIP3    H237463   5.350   4.368   5.922 -1.2391  0.7435 -0.8458
 5350TIP3   OH237464   3.970   6.202   0.457  0.1945  0.3599 -0.7887
 5350TIP3    H137465   3.995   6.175   0.369  1.1645 -0.0673 -0.3983
 5350TIP3    H237466   3.877   6.179   0.464  0.7691 -2.2587 -0.7433
 5351TIP3   OH237467   2.466   5.125  17.094  0.2535 -0.0976  0.4380
 5351TIP3    H137468   2.436   5.146  17.006 -0.5327 -0.7092  0.5474
 5351TIP3    H237469   2.539   5.064  17.080  0.3760  0.1026  0.2011
 5352TIP3   OH237470   1.156   2.199  17.284 -0.7642  0.4451 -0.3327
 5352TIP3    H137471   1.148   2.109  17.254 -0.2884 -0.1623  1.2624
 5352TIP3    H237472   1.137   2.195  17.378 -0.6976  1.9978 -0.2251
 5353TIP3   OH237473   1.798   6.297   3.262 -0.4686 -0.6255  0.0730
 5353TIP3    H137474   1.832   6.309   3.173 -1.5893 -1.9521 -0.5874
 5353TIP3    H237475   1.841   6.365   3.314  2.4139 -1.5787 -0.8638
 5354TIP3   OH237476   6.229   0.318   5.831  0.5713 -0.3761  0.8354
 5354TIP3    H137477   6.297   0.255   5.812  0.0975 -0.7698  0.4160
 5354TIP3    H237478   6.215   0.311   5.926  1.8237  0.4515  1.1061
 5355TIP3   OH237479   2.184   1.349   1.351 -0.2477 -0.5347  0.8210
 5355TIP3    H137480   2.146   1.430   1.386 -0.4255  0.7770 -2.0657
 5355TIP3    H237481   2.265   1.377   1.309  0.4790 -2.1594  1.0868
 5356TIP3   OH237482   6.379   5.142  16.502 -0.3485 -0.0819 -0.4190
 5356TIP3    H137483   6.451   5.101  16.455  0.2116 -0.3176  0.6088
 5356TIP3    H237484   6.345   5.074  16.560  0.3278  0.7480  1.0077
 5357TIP3   OH237485   1.316   3.942   5.374  0.5131  0.4321 -0.2650
 5357TIP3    H137486   1.351   3.854   5.358 -1.6252 -0.0075 -3.5855
 5357TIP3    H237487   1.330   3.989   5.292 -4.4540  0.7993 -1.2208
 5358TIP3   OH237488   1.514   0.535  11.260  0.5425  0.0273  0.2427
 5358TIP3    H137489   1.603   0.500  11.266  0.8748  0.6019 -0.9086
 5358TIP3    H237490   1.489   0.522  11.168 -2.0188 -3.4643  1.2217
 5359TIP3   OH237491   6.105   5.436  14.221 -0.2677  0.2760  0.0642
 5359TIP3    H137492   6.080   5.515  14.174 -0.6708 -0.3088 -0.7329
 5359TIP3    H237493   6.037   5.372  14.198  0.3733 -0.4751  0.2107
 5360TIP3   OH237494   5.583   6.616   1.135  0.5503 -0.1600 -0.2421
 5360TIP3    H137495   5.589   6.680   1.064  0.6120  0.6001  0.4356
 5360TIP3    H237496   5.670   6.617   1.176  0.6772 -0.9687 -0.4527
 5361TIP3   OH237497   4.959   4.511  16.080  0.5309  0.3196 -0.0295
 5361TIP3    H137498   4.945   4.516  16.175  1.8430 -0.0341  0.1985
 5361TIP3    H237499   4.872   4.495  16.044 -0.2275  1.8913  0.9944
 5362TIP3   OH237500   4.678   1.971   1.042 -0.1341  0.1241  0.1977
 5362TIP3    H137501   4.712   1.900   0.989  1.9669  2.5646 -1.9751
 5362TIP3    H237502   4.583   1.968   1.028  0.2928  0.5543 -3.7524
 5363TIP3   OH237503   1.269   4.562  14.055 -0.4212 -0.0757 -0.0790
 5363TIP3    H137504   1.212   4.514  13.995 -0.6675  0.8871 -0.6414
 5363TIP3    H237505   1.357   4.531  14.034 -0.4235  0.7488 -1.4718
 5364TIP3   OH237506   1.630   4.818  16.759 -0.2737  0.3914  0.2633
 5364TIP3    H137507   1.682   4.809  16.680 -0.3327  2.4636 -0.0835
 5364TIP3    H237508   1.616   4.729  16.790  0.7817 -0.3822 -1.3788
 5365TIP3   OH237509   6.564   6.442   4.220 -0.8073  0.1872 -0.1292
 5365TIP3    H137510   6.486   6.487   4.187 -0.1862  1.6936  0.3935
 5365TIP3    H237511   6.624   6.512   4.246  1.5266 -0.8504 -2.2402
 5366TIP3   OH237512   5.240   2.502  14.147 -0.2775  0.0127 -0.1178
 5366TIP3    H137513   5.245   2.411  14.117  1.0673  0.1772 -0.4455
 5366TIP3    H237514   5.158   2.534  14.111 -0.2692 -0.7648 -0.8682
 5367TIP3   OH237515   6.733   3.810   5.713  0.1871  0.3299 -0.2101
 5367TIP3    H137516   6.734   3.812   5.808 -1.2736  1.0041 -0.1874
 5367TIP3    H237517   6.652   3.855   5.688  0.8375  0.7217 -1.7835
 5368TIP3   OH237518   3.873   6.480  11.865  0.0639 -0.3057  0.0640
 5368TIP3    H137519   3.954   6.443  11.829  0.2728 -0.7820  0.9963
 5368TIP3    H237520   3.892   6.573  11.875  0.9913 -0.6290  1.5458
 5369TIP3   OH237521   6.629   4.619   1.521 -0.4175 -0.2102 -0.1357
 5369TIP3    H137522   6.597   4.684   1.458  2.1259 -1.0369 -2.5203
 5369TIP3    H237523   6.652   4.543   1.467  0.8607 -1.4133  1.9672
 5370TIP3   OH237524   3.200   0.764   1.665 -0.0965  0.4480 -0.5403
 5370TIP3    H137525   3.116   0.719   1.653  1.5340 -3.5377  1.0817
 5370TIP3    H237526   3.218   0.755   1.759  2.2218  0.9447 -0.8820
 5371TIP3   OH237527   5.874   2.278  12.438 -0.2795 -0.4842  0.1923
 5371TIP3    H137528   5.874   2.335  12.515 -2.1415  0.5797 -0.5306
 5371TIP3    H237529   5.921   2.328  12.372 -3.2804  1.0658 -0.9369
 5372TIP3   OH237530   1.203   5.372   4.493  0.4820 -0.6216 -0.2404
 5372TIP3    H137531   1.188   5.377   4.587 -0.6685  1.3757 -0.4725
 5372TIP3    H237532   1.170   5.285   4.468  1.7119 -1.5971  1.2808
 5373TIP3   OH237533   2.999   1.236   2.596 -0.0105 -0.3407  0.2131
 5373TIP3    H137534   2.927   1.278   2.642 -0.6006 -1.6115  0.4984
 5373TIP3    H237535   3.008   1.286   2.515  0.7697  1.6612  1.4872
 5374TIP3   OH237536   4.518   2.128  10.728 -0.3117 -0.2667  0.6890
 5374TIP3    H137537   4.579   2.125  10.802 -0.5882  0.7121  0.9702
 5374TIP3    H237538   4.521   2.219  10.699 -0.8091 -0.4648 -0.0065
 5375TIP3   OH237539   4.224   6.362  15.486  0.4227  0.2686  0.3844
 5375TIP3    H137540   4.158   6.412  15.438  0.0298  0.1422  0.7862
 5375TIP3    H237541   4.269   6.311  15.419  1.2586  1.6236 -0.1274
 5376TIP3   OH237542   4.736   3.957   3.350  0.2837 -0.2358  0.1695
 5376TIP3    H137543   4.683   3.912   3.284  0.3354 -1.4119  0.9011
 5376TIP3    H237544   4.826   3.943   3.320  0.3421 -1.3931  0.8584
 5377TIP3   OH237545   5.108   5.564  15.961  0.0078 -0.2125 -0.3946
 5377TIP3    H137546   5.192   5.609  15.955 -0.4637  0.5442 -1.7196
 5377TIP3    H237547   5.124   5.491  16.021  2.2168 -1.4383 -2.3566
 5378TIP3   OH237548   4.225   4.634   4.201 -0.0751 -0.1674 -0.1874
 5378TIP3    H137549   4.139   4.673   4.189 -0.6894 -1.5405 -0.4430
 5378TIP3    H237550   4.225   4.601   4.291  0.1790 -0.1788 -0.1901
 5379TIP3   OH237551   0.597   1.443  16.292 -0.4034 -0.2690 -1.0326
 5379TIP3    H137552   0.506   1.414  16.302 -0.4236 -0.8310 -2.5549
 5379TIP3    H237553   0.635   1.381  16.230  0.4140  1.1544 -2.0205
 5380TIP3   OH237554   1.037   4.586   2.798  0.1049 -1.3574 -0.3818
 5380TIP3    H137555   1.058   4.529   2.871  2.1894 -1.3474 -0.9121
 5380TIP3    H237556   1.032   4.674   2.837 -1.6390 -1.6700  0.1807
 5381TIP3   OH237557   5.567   4.099   5.265 -0.0861 -0.2548 -0.0693
 5381TIP3    H137558   5.480   4.108   5.228  0.9963 -0.9823 -3.0559
 5381TIP3    H237559   5.602   4.019   5.225  2.1248  0.2855  0.6434
 5382TIP3   OH237560   6.664   5.870  11.327  0.0728  0.0557  0.1812
 5382TIP3    H137561   6.668   5.911  11.241  0.5504 -0.1683  0.0937
 5382TIP3    H237562   6.591   5.913  11.371 -0.4747 -0.1621 -0.5084
 5383TIP3   OH237563   0.473   0.760   4.827  0.0847 -0.1563  0.3189
 5383TIP3    H137564   0.424   0.763   4.744  2.4770  0.0335 -1.1978
 5383TIP3    H237565   0.462   0.847   4.864  0.4591  0.3627 -0.7502
 5384TIP3   OH237566   0.615   5.398   0.469  0.1633 -0.7922 -0.2575
 5384TIP3    H137567   0.567   5.345   0.406  1.1382 -1.5626 -0.3751
 5384TIP3    H237568   0.574   5.485   0.464 -2.1028 -1.7221  0.6383
 5385TIP3   OH237569   1.554   5.312  17.305 -0.0180  0.3239  0.2269
 5385TIP3    H137570   1.584   5.393  17.265 -0.8591  0.9986  0.9451
 5385TIP3    H237571   1.634   5.263  17.324  0.4863  0.9705 -0.2259
 5386TIP3   OH237572   4.021   4.080  15.339  0.0038  0.6331  0.4645
 5386TIP3    H137573   3.926   4.082  15.328  0.2246 -0.2017 -2.7177
 5386TIP3    H237574   4.052   4.157  15.291  0.9601  0.6632  1.1210
 5387TIP3   OH237575   2.627   5.756  12.185 -0.2169 -0.4005  0.3222
 5387TIP3    H137576   2.641   5.750  12.280 -0.9150 -1.7142  0.3653
 5387TIP3    H237577   2.681   5.686  12.149  0.8773  0.7681 -0.3689
 5388TIP3   OH237578   1.058   3.612  13.632 -0.1005 -0.3406 -0.5556
 5388TIP3    H137579   1.050   3.684  13.695 -0.6949 -0.6797 -0.2356
 5388TIP3    H237580   1.050   3.654  13.547  1.4152  0.2245 -0.4549
 5389TIP3   OH237581   4.128   3.666   3.785 -0.0943  0.2714  0.7867
 5389TIP3    H137582   4.073   3.736   3.820  0.7667  1.5952 -0.4489
 5389TIP3    H237583   4.214   3.682   3.823  0.3606  0.5272 -0.3293
 5390TIP3   OH237584   2.613   5.581  13.395  0.0983 -0.2033  0.3003
 5390TIP3    H137585   2.587   5.650  13.457 -1.2739 -0.8368  0.4411
 5390TIP3    H237586   2.533   5.556  13.351  0.7202 -1.2018 -0.2993
 5391TIP3   OH237587   0.261   1.479   4.977  0.1687 -0.1286  0.0411
 5391TIP3    H137588   0.263   1.538   4.902 -0.0156  0.3121  0.3747
 5391TIP3    H237589   0.351   1.477   5.009  0.4215 -0.9781 -0.6887
 5392TIP3   OH237590   6.278   0.751  15.218  0.2227 -0.7022  0.3509
 5392TIP3    H137591   6.238   0.676  15.172 -1.7520  0.1033  0.6428
 5392TIP3    H237592   6.368   0.724  15.233  0.0082 -2.3676 -0.9928
 5393TIP3   OH237593   0.536   3.773  14.692  0.7920  0.2747 -0.0434
 5393TIP3    H137594   0.580   3.858  14.686 -1.6451  1.6786  0.6884
 5393TIP3    H237595   0.446   3.791  14.667  0.2859 -2.2087 -0.2392
 5394TIP3   OH237596   3.019   4.591   0.113  0.2304  0.6255 -0.0939
 5394TIP3    H137597   2.956   4.663   0.104 -0.7724 -0.2297 -0.0974
 5394TIP3    H237598   2.978   4.530   0.174  0.8399 -0.1834 -0.4720
 5395TIP3   OH237599   4.774   2.106   6.089  0.4719 -0.2344  0.2418
 5395TIP3    H137600   4.749   2.195   6.062  0.5679 -0.7689 -1.6832
 5395TIP3    H237601   4.870   2.106   6.086  0.4633 -0.4804  0.0143
 5396TIP3   OH237602   0.280   4.991   6.262  0.2255 -0.0642  0.2586
 5396TIP3    H137603   0.253   4.935   6.189 -0.1388 -0.4612  0.6991
 5396TIP3    H237604   0.261   5.080   6.232 -0.6043 -0.2722  0.1503
 5397TIP3   OH237605   4.895   2.377  12.119  0.6751 -0.1837  0.0308
 5397TIP3    H137606   4.824   2.315  12.101  0.6604 -0.0993 -0.2039
 5397TIP3    H237607   4.881   2.405  12.209  0.5145 -0.3030  0.0418
 5398TIP3   OH237608   5.160   4.108  16.442 -0.4191 -0.3973  0.5234
 5398TIP3    H137609   5.222   4.035  16.436 -1.2802 -1.1665  0.8624
 5398TIP3    H237610   5.206   4.175  16.494  1.1745  0.1649 -1.4566
 5399TIP3   OH237611   6.599   2.920  15.764 -0.1224  0.5837 -0.3320
 5399TIP3    H137612   6.641   2.978  15.700 -1.5193  2.1933  0.1401
 5399TIP3    H237613   6.632   2.951  15.848  0.9640 -0.9120 -0.1584
 5400TIP3   OH237614   1.488   6.590  13.499  0.4895  0.1751  0.0655
 5400TIP3    H137615   1.492   6.674  13.454  2.5639  0.2151  0.2027
 5400TIP3    H237616   1.473   6.526  13.429 -2.3538  0.6873  0.1034
 5401TIP3   OH237617   1.769   2.156   5.890  0.0481  0.5626 -0.0036
 5401TIP3    H137618   1.813   2.133   5.809 -3.0064 -0.8957 -1.4004
 5401TIP3    H237619   1.702   2.220   5.864 -1.1607 -0.1122  1.2985
 5402TIP3   OH237620   4.112   5.433  16.724  0.5396 -0.3759  0.0189
 5402TIP3    H137621   4.095   5.500  16.790  0.3351  1.2641 -1.6142
 5402TIP3    H237622   4.200   5.453  16.691  0.3760 -0.7449 -0.6650
 5403TIP3   OH237623   4.441   1.438   1.659  0.6402  0.6624  0.2373
 5403TIP3    H137624   4.407   1.354   1.690 -0.7049  0.3193 -1.9274
 5403TIP3    H237625   4.525   1.448   1.703  0.6136 -1.5981  0.9171
 5404TIP3   OH237626   6.721   5.743  12.956 -0.5649 -1.0055 -0.1969
 5404TIP3    H137627   6.808   5.767  12.923 -0.9743 -0.0335 -0.6152
 5404TIP3    H237628   6.661   5.802  12.909 -1.2870 -0.4063  1.4052
 5405TIP3   OH237629   1.608   2.093   1.331  0.1685  0.4126  0.0572
 5405TIP3    H137630   1.636   2.165   1.275 -0.0777  0.4275 -0.0502
 5405TIP3    H237631   1.629   2.014   1.282 -3.1417  0.4308 -1.6536
 5406TIP3   OH237632   6.341   0.542   4.083 -0.3784  0.6327  0.4026
 5406TIP3    H137633   6.317   0.570   4.171 -0.4639 -0.2443  0.6666
 5406TIP3    H237634   6.332   0.621   4.030  0.1461  1.2882  1.2566
 5407TIP3   OH237635   5.597   4.448   6.074  0.0632 -0.1025  0.0775
 5407TIP3    H137636   5.670   4.461   6.134  0.5293 -2.6439  0.1944
 5407TIP3    H237637   5.522   4.488   6.117  0.9347  0.5535  1.0206
 5408TIP3   OH237638   2.236   0.548  14.532 -0.1252  0.4834 -0.2910
 5408TIP3    H137639   2.303   0.555  14.601  0.7826 -0.3485 -1.0485
 5408TIP3    H237640   2.253   0.623  14.475 -0.7809  1.0889  0.3082
 5409TIP3   OH237641   5.033   1.249  17.276  0.2575 -0.0329 -0.4229
 5409TIP3    H137642   5.027   1.173  17.218  0.6288 -0.1503 -0.3060
 5409TIP3    H237643   5.080   1.217  17.353  0.0876  0.2195 -0.2126
 5410TIP3   OH237644   5.177   0.157   5.047 -0.1619 -0.4947  0.1189
 5410TIP3    H137645   5.225   0.074   5.040 -3.2380 -2.5071  0.8878
 5410TIP3    H237646   5.114   0.142   5.117 -1.6806  2.1110 -0.5548
 5411TIP3   OH237647   0.539   3.978   5.738 -0.1371  0.9350  0.5852
 5411TIP3    H137648   0.584   3.962   5.821  1.7029  0.2142 -0.4798
 5411TIP3    H237649   0.509   4.069   5.744  0.5728  1.1137  1.7646
 5412TIP3   OH237650   1.246   3.281  15.803 -0.3607  0.2554 -0.1834
 5412TIP3    H137651   1.194   3.238  15.736  1.2234 -0.6284 -0.9213
 5412TIP3    H237652   1.248   3.373  15.777 -0.1525 -0.0009 -1.1097
 5413TIP3   OH237653   0.559   0.185   0.808  0.7001 -0.2557  0.6364
 5413TIP3    H137654   0.527   0.274   0.822  0.3026 -0.4912  1.2422
 5413TIP3    H237655   0.641   0.181   0.858  0.1643 -0.5590  1.5100
 5414TIP3   OH237656   4.880   4.825  15.116  0.2566 -0.5809 -0.2246
 5414TIP3    H137657   4.958   4.826  15.171  0.1218  0.7507 -0.0352
 5414TIP3    H237658   4.912   4.851  15.029  0.0942 -0.4448 -0.2438
 5415TIP3   OH237659   2.422   0.306  14.086 -0.1788 -0.4840  0.3861
 5415TIP3    H137660   2.358   0.324  14.017 -2.2754 -0.5085  2.2146
 5415TIP3    H237661   2.474   0.234  14.052 -1.9112 -1.2808 -0.7467
 5416TIP3   OH237662   5.980   3.094   2.572 -0.5573  0.2772 -0.0336
 5416TIP3    H137663   5.944   3.029   2.511  0.1020  0.0829 -0.2274
 5416TIP3    H237664   5.953   3.063   2.659  1.4644 -1.4509  0.0790
 5417TIP3   OH237665   4.161   6.411   4.374 -0.4048  0.0638 -0.1501
 5417TIP3    H137666   4.240   6.427   4.322 -0.8005  1.8830 -0.2382
 5417TIP3    H237667   4.127   6.328   4.341  1.2733 -0.5834 -0.3412
 5418TIP3   OH237668   1.351   6.587   3.999 -0.2821  0.5095  0.2715
 5418TIP3    H137669   1.386   6.501   4.020 -1.2012 -0.1843 -0.8745
 5418TIP3    H237670   1.257   6.580   4.018 -0.6779  0.6702 -1.4131
 5419TIP3   OH237671   3.613   2.835  14.604 -0.0136 -0.0603  0.3444
 5419TIP3    H137672   3.561   2.899  14.555 -0.9394 -0.1724  1.1482
 5419TIP3    H237673   3.672   2.797  14.539  0.3040  1.3434 -0.2225
 5420TIP3   OH237674   0.826   4.815  15.611  0.4453  0.1808  0.2917
 5420TIP3    H137675   0.896   4.833  15.674 -0.7653  1.6340  1.3039
 5420TIP3    H237676   0.749   4.859  15.648 -1.0797 -1.5734 -0.6501
 5421TIP3   OH237677   1.070   4.816   3.722 -0.1378 -0.1560 -0.5644
 5421TIP3    H137678   1.003   4.769   3.772 -0.0376  0.9639  0.6697
 5421TIP3    H237679   1.116   4.869   3.787  1.9030 -0.8204 -1.4063
 5422TIP3   OH237680   0.311   5.844  12.434 -0.1410 -0.0077 -0.1484
 5422TIP3    H137681   0.227   5.883  12.458 -0.0265  1.6408 -2.1344
 5422TIP3    H237682   0.376   5.903  12.472  0.0890  0.1069 -0.7223
 5423TIP3   OH237683   5.443   3.442   1.670 -0.4464  0.1768 -0.2035
 5423TIP3    H137684   5.399   3.457   1.586 -0.3609  0.7263 -0.1565
 5423TIP3    H237685   5.380   3.474   1.735 -0.5865 -0.4156 -0.0470
 5424TIP3   OH237686   1.674   2.639  11.494  0.6570  0.1903 -0.0617
 5424TIP3    H137687   1.735   2.590  11.440  0.8198 -0.0768  0.3621
 5424TIP3    H237688   1.662   2.722  11.448  1.6352  0.3980  0.0438
 5425TIP3   OH237689   5.894   3.019   2.819  0.0044  0.2604 -0.4415
 5425TIP3    H137690   5.883   3.107   2.856  0.4340  0.3158 -0.4443
 5425TIP3    H237691   5.931   2.967   2.891  0.7241  0.3359 -0.7542
 5426TIP3   OH237692   0.141   2.404   5.637 -0.4261  0.0925 -0.0327
 5426TIP3    H137693   0.089   2.323   5.630  0.0183 -0.3865  1.7000
 5426TIP3    H237694   0.082   2.465   5.681 -0.0884  0.0606  0.4700
 5427TIP3   OH237695   2.275   1.273  12.956 -0.0695  0.0150 -0.4022
 5427TIP3    H137696   2.283   1.202  13.020 -1.8493  0.8945  0.8934
 5427TIP3    H237697   2.207   1.242  12.896  0.3855 -0.0819 -0.8756
 5428TIP3   OH237698   5.984   0.849   3.435 -0.0303  0.5368  0.0232
 5428TIP3    H137699   5.945   0.810   3.513  1.1440 -0.3153  0.1940
 5428TIP3    H237700   6.065   0.890   3.466  0.1407  0.7123 -0.6433
 5429TIP3   OH237701   3.012   6.547  14.205 -0.3508 -0.8587  0.1683
 5429TIP3    H137702   3.092   6.532  14.255  0.9770  0.4150 -1.5030
 5429TIP3    H237703   2.942   6.530  14.268  1.1570 -2.9847  1.4200
 5430TIP3   OH237704   0.156   1.768  11.204  0.3737 -0.0784 -0.3159
 5430TIP3    H137705   0.183   1.703  11.269  1.3340 -2.4955 -2.9109
 5430TIP3    H237706   0.207   1.747  11.126 -2.5147  0.9763 -2.6939
 5431TIP3   OH237707   1.942   6.204   1.632  0.4011  0.2503 -0.3161
 5431TIP3    H137708   1.879   6.206   1.560 -0.8986  0.1613  0.7760
 5431TIP3    H237709   2.000   6.131   1.611 -0.3536 -0.1806 -0.9676
 5432TIP3   OH237710   1.422   2.902   0.864 -0.4566 -0.5438  0.2210
 5432TIP3    H137711   1.517   2.892   0.857 -0.4514 -0.7949  0.6225
 5432TIP3    H237712   1.393   2.821   0.907 -1.0481 -1.2303 -1.4162
 5433TIP3   OH237713   1.262   2.837   1.549 -0.0472 -0.4005  0.4114
 5433TIP3    H137714   1.243   2.930   1.534  0.2273 -0.4887 -0.5569
 5433TIP3    H237715   1.182   2.792   1.520  0.2905 -0.5397 -0.3351
 5434TIP3   OH237716   4.405   1.798  14.077  0.0145 -0.2591  0.2730
 5434TIP3    H137717   4.413   1.803  13.982  0.2590 -0.8409  0.2618
 5434TIP3    H237718   4.311   1.805  14.093 -0.0503 -0.4084 -0.0268
 5435TIP3   OH237719   3.976   3.567  17.141  0.1357 -0.3195  0.2101
 5435TIP3    H137720   3.890   3.608  17.149 -0.8583 -2.5285  1.9664
 5435TIP3    H237721   4.000   3.579  17.050 -1.1219  2.0203  0.0969
 5436TIP3   OH237722   3.530   0.826   2.771 -0.4774  0.4110  0.1707
 5436TIP3    H137723   3.453   0.836   2.715  1.5688 -0.3357 -3.0528
 5436TIP3    H237724   3.552   0.733   2.764  0.4685  0.5275  1.3995
 5437TIP3   OH237725   1.002   2.754  15.280  0.2936  0.4094 -0.5536
 5437TIP3    H137726   0.917   2.710  15.274  0.8151 -0.8867  0.9283
 5437TIP3    H237727   1.054   2.713  15.211 -0.0996  0.8149 -1.1030
 5438TIP3   OH237728   1.863   1.542  13.204  0.0654 -0.0415 -0.0870
 5438TIP3    H137729   1.809   1.481  13.152  1.3350  0.4467 -2.0987
 5438TIP3    H237730   1.908   1.486  13.267  0.5762 -1.1435 -1.3598
 5439TIP3   OH237731   1.775   2.739   2.055  0.2010 -0.0429 -0.2052
 5439TIP3    H137732   1.723   2.664   2.024 -1.0239  0.9906 -0.7287
 5439TIP3    H237733   1.720   2.815   2.037  2.0966  1.1638 -1.2029
 5440TIP3   OH237734   1.599   2.310  12.636 -0.1246  0.0107 -0.1368
 5440TIP3    H137735   1.659   2.383  12.655  0.7295 -0.4991 -0.7711
 5440TIP3    H237736   1.512   2.347  12.645  0.2691  0.6340  1.3991
 5441TIP3   OH237737   1.776   0.425  11.940  0.6095  0.4494  0.2504
 5441TIP3    H137738   1.831   0.496  11.974  0.8825  0.7964 -0.8887
 5441TIP3    H237739   1.838   0.357  11.914  0.3653 -0.0774  0.9901
 5442TIP3   OH237740   5.905   1.683  15.821  0.3261 -0.3141  0.5546
 5442TIP3    H137741   5.925   1.590  15.825 -1.4978 -0.7237  0.8739
 5442TIP3    H237742   5.958   1.722  15.891 -0.8295 -1.5132  2.1672
 5443TIP3   OH237743   0.229   3.022   5.009  0.3530  0.1498 -0.3685
 5443TIP3    H137744   0.284   2.949   4.978  0.1319 -0.0201 -0.3581
 5443TIP3    H237745   0.281   3.061   5.079  0.4159 -0.0789 -0.2836
 5444TIP3   OH237746   6.205   4.518   3.368  0.2177  0.2264 -0.4896
 5444TIP3    H137747   6.119   4.560   3.376 -0.0702 -0.5592  1.0192
 5444TIP3    H237748   6.240   4.550   3.285 -0.5436  2.3791 -0.0484
 5445TIP3   OH237749   5.482   4.694  14.278  0.5729 -0.3371 -0.0822
 5445TIP3    H137750   5.570   4.723  14.255 -0.2157  1.2930 -1.3097
 5445TIP3    H237751   5.475   4.606  14.241  0.9779  0.3807 -2.0172
 5446TIP3   OH237752   1.753   5.317   6.456 -0.1276 -0.3356  0.0314
 5446TIP3    H137753   1.831   5.354   6.415 -0.0487 -1.4261 -0.8425
 5446TIP3    H237754   1.784   5.286   6.541  0.1389  0.1871  0.1311
 5447TIP3   OH237755   3.830   3.816   3.795 -0.0739 -0.1058 -0.1129
 5447TIP3    H137756   3.803   3.728   3.822  1.5656  0.1206  2.6449
 5447TIP3    H237757   3.808   3.821   3.702 -2.1907 -2.6257  0.1529
 5448TIP3   OH237758   6.111   4.366  14.648 -0.1812  0.1888 -0.5191
 5448TIP3    H137759   6.099   4.383  14.741 -3.0770 -2.5389 -0.2237
 5448TIP3    H237760   6.138   4.274  14.644  1.0113  0.5668 -2.3841
 5449TIP3   OH237761   4.356   1.820  13.105 -0.8932  0.2811  0.2707
 5449TIP3    H137762   4.410   1.747  13.135 -0.0329  1.0642  0.6905
 5449TIP3    H237763   4.390   1.896  13.153 -3.1927  0.6133  1.5531
 5450TIP3   OH237764   0.257   1.781  13.118 -0.6410  0.3961 -0.5758
 5450TIP3    H137765   0.285   1.726  13.191  1.1934 -0.5923 -1.9491
 5450TIP3    H237766   0.228   1.862  13.159  2.5645  0.8289  1.1807
 5451TIP3   OH237767   5.406   2.298  12.076  0.1247  0.0392 -0.4891
 5451TIP3    H137768   5.332   2.352  12.105 -0.8408 -0.4320 -1.9617
 5451TIP3    H237769   5.445   2.265  12.157 -1.3295  0.2341  0.3257
 5452TIP3   OH237770   0.999   3.778  12.943 -0.3675  0.0896  0.1565
 5452TIP3    H137771   1.043   3.780  12.859 -1.3400  1.7971 -0.3474
 5452TIP3    H237772   0.915   3.735  12.925 -0.0052 -0.8286  0.5781
 5453TIP3   OH237773   0.008   5.400   1.332  0.5429 -0.4120 -0.7846
 5453TIP3    H137774   0.077   5.467   1.331 -0.3197  0.5045 -0.6232
 5453TIP3    H237775   0.053   5.320   1.358  1.9082 -0.2684 -2.5145
 5454TIP3   OH237776   2.818   6.463   4.773  0.4861 -0.0453 -0.3005
 5454TIP3    H137777   2.755   6.535   4.780  1.0578  0.3775  0.8019
 5454TIP3    H237778   2.871   6.471   4.853  1.0832 -1.1920 -0.5736
 5455TIP3   OH237779   4.099   2.647   5.974  0.2887  0.4268  0.2384
 5455TIP3    H137780   4.173   2.706   5.962  0.6699 -0.2764 -1.1291
 5455TIP3    H237781   4.137   2.569   6.014  0.0715  0.4928  0.5798
 5456TIP3   OH237782   4.105   3.517  13.071  0.2655  0.3395  0.1890
 5456TIP3    H137783   4.048   3.593  13.059  0.3544  0.1224 -2.1206
 5456TIP3    H237784   4.073   3.453  13.007  1.9741 -0.4715  0.0921
 5457TIP3   OH237785   5.534   0.691  11.642 -0.2195  0.4239  0.7293
 5457TIP3    H137786   5.519   0.646  11.559  0.1064  1.6762 -0.0494
 5457TIP3    H237787   5.597   0.637  11.688  1.4095  0.8787 -0.8734
 5458TIP3   OH237788   6.274   4.139   5.461  0.0663  0.3946 -0.2230
 5458TIP3    H137789   6.255   4.057   5.416  1.6348  0.3009 -0.7487
 5458TIP3    H237790   6.189   4.184   5.466 -0.4360 -0.3359 -1.7625
 5459TIP3   OH237791   0.199   4.761   1.963  0.1749 -0.3344  0.2513
 5459TIP3    H137792   0.220   4.737   2.053 -3.5565 -1.0301  1.1172
 5459TIP3    H237793   0.228   4.686   1.911 -0.7165 -1.5238  1.3941
 5460TIP3   OH237794   4.170   1.324  11.861 -0.1493  0.1221 -0.1463
 5460TIP3    H137795   4.174   1.419  11.873  1.1065  0.2866 -1.6499
 5460TIP3    H237796   4.173   1.312  11.767  2.4491 -1.4952  0.0538
 5461TIP3   OH237797   3.495   4.764  14.654  0.0898 -0.5791 -0.1262
 5461TIP3    H137798   3.536   4.704  14.592  0.6857  0.0433 -0.3576
 5461TIP3    H237799   3.486   4.846  14.606 -1.8489 -0.8122 -0.2032
 5462TIP3   OH237800   5.691   5.085   0.665  0.6726 -0.0119 -0.5416
 5462TIP3    H137801   5.636   5.017   0.627 -2.8910  1.6907  1.0502
 5462TIP3    H237802   5.664   5.089   0.757  0.5734  3.5372 -0.5792
 5463TIP3   OH237803   2.876   3.514   5.358  0.3590 -0.3055  0.4393
 5463TIP3    H137804   2.854   3.574   5.287 -0.1864 -0.8249  0.1624
 5463TIP3    H237805   2.830   3.549   5.434  1.4195  0.5921  0.6991
 5464TIP3   OH237806   0.309   6.084  13.668  0.0034 -0.5911 -0.2914
 5464TIP3    H137807   0.297   5.991  13.691  0.9093 -0.8295 -0.7212
 5464TIP3    H237808   0.368   6.117  13.736 -0.1857 -0.3650 -0.2376
 5465TIP3   OH237809   3.786   1.149   4.864  0.4191 -0.3813 -0.1939
 5465TIP3    H137810   3.696   1.125   4.844 -0.3815  0.0119  2.4515
 5465TIP3    H237811   3.817   1.078   4.921  1.1174  0.4094  0.4431
 5466TIP3   OH237812   3.143   5.944  14.311 -0.5673  0.5274  0.1626
 5466TIP3    H137813   3.073   5.971  14.250 -0.2226  0.9855 -0.0370
 5466TIP3    H237814   3.101   5.944  14.397 -0.9526  0.2821 -0.0239
 5467TIP3   OH237815   3.241   4.549   2.083  0.1637  0.6146  0.2419
 5467TIP3    H137816   3.262   4.628   2.131  0.0489  0.0911  1.1809
 5467TIP3    H237817   3.219   4.484   2.151  0.9007 -0.4107 -0.4658
 5468TIP3   OH237818   0.480   5.561  16.217  0.2008 -0.1846 -0.5176
 5468TIP3    H137819   0.550   5.537  16.278  0.2044  1.9106  0.3987
 5468TIP3    H237820   0.506   5.647  16.183 -1.7168  0.5061 -0.3843
 5469TIP3   OH237821   3.785   3.680  14.466 -0.1422  0.0537 -0.5206
 5469TIP3    H137822   3.771   3.656  14.374  1.5461 -1.1460 -0.5021
 5469TIP3    H237823   3.852   3.619  14.497  0.2832  1.2975  1.1429
 5470TIP3   OH237824   2.425   5.770  16.593 -0.0230  0.5093  0.0621
 5470TIP3    H137825   2.396   5.849  16.638 -0.2790  0.4443  0.0157
 5470TIP3    H237826   2.507   5.746  16.636 -0.2385  0.4782  0.4574
 5471TIP3   OH237827   6.532   2.638   0.306 -1.1698 -0.0443  0.1230
 5471TIP3    H137828   6.456   2.584   0.325  0.0946 -1.3366  1.8795
 5471TIP3    H237829   6.574   2.596   0.231 -2.4877  1.0835 -1.3196
 5472TIP3   OH237830   2.738   5.237  13.212  0.3642  0.2334 -0.3178
 5472TIP3    H137831   2.762   5.153  13.174  0.8877 -0.0581  0.6160
 5472TIP3    H237832   2.683   5.215  13.287  0.2267  0.7435 -0.2602
 5473TIP3   OH237833   5.888   4.051  11.081 -0.4718  0.1919 -0.4498
 5473TIP3    H137834   5.917   4.030  10.992  0.0487  0.4773 -0.3534
 5473TIP3    H237835   5.967   4.045  11.134 -1.0685 -1.6154  0.3100
 5474TIP3   OH237836   3.024   4.879  12.151 -0.0304 -0.1123 -0.2698
 5474TIP3    H137837   3.092   4.920  12.098 -0.3120 -1.5983 -1.8865
 5474TIP3    H237838   2.975   4.825  12.089 -1.3473 -0.7483  1.2537
 5475TIP3   OH237839   5.914   0.303  13.696  0.2308 -0.4770  0.2026
 5475TIP3    H137840   5.827   0.274  13.668 -0.2085  2.4165 -1.9333
 5475TIP3    H237841   5.902   0.396  13.718  2.5689 -0.3167  1.1199
 5476TIP3   OH237842   5.157   0.083   1.923 -0.0034 -0.4626  0.2966
 5476TIP3    H137843   5.169   0.085   1.828 -2.2711 -2.4204 -0.1253
 5476TIP3    H237844   5.221   0.018   1.953  1.7597  1.2185  0.3927
 5477TIP3   OH237845   0.123   2.551  16.072  0.3590  0.2987 -0.0017
 5477TIP3    H137846   0.076   2.554  16.155 -0.0632 -2.3636 -0.0597
 5477TIP3    H237847   0.081   2.480  16.023  3.7400 -1.6576 -0.4221
 5478TIP3   OH237848   2.932   0.182   5.862 -0.2749 -0.0643 -0.3671
 5478TIP3    H137849   2.910   0.089   5.863  1.0557 -0.4262  2.6563
 5478TIP3    H237850   2.847   0.226   5.856 -1.0541 -1.4421  0.1288
 5479TIP3   OH237851   1.447   6.236   1.704  0.2367  0.1691  0.2504
 5479TIP3    H137852   1.453   6.143   1.726  0.0266  0.3479  1.0907
 5479TIP3    H237853   1.377   6.241   1.638  0.2964 -0.2751  0.1527
 5480TIP3   OH237854   6.192   1.899   5.130  0.2842  0.0132 -0.4679
 5480TIP3    H137855   6.268   1.928   5.080  0.7917  0.3560  0.4614
 5480TIP3    H237856   6.180   1.967   5.197 -0.5185 -0.2992 -0.2807
 5481TIP3   OH237857   0.195   3.053  10.769  0.1633  0.2538 -0.5544
 5481TIP3    H137858   0.120   2.994  10.765 -0.9636  1.5653  0.3650
 5481TIP3    H237859   0.227   3.044  10.859  0.4706  0.4669 -0.6431
 5482TIP3   OH237860   2.513   3.926   5.303  0.0327  0.4017  0.1166
 5482TIP3    H137861   2.436   3.888   5.261  0.9561 -1.0114 -0.3891
 5482TIP3    H237862   2.540   3.997   5.244 -0.5607  0.5445  0.0131
 5483TIP3   OH237863   6.330   5.410   0.907 -0.0055 -0.4547  0.1631
 5483TIP3    H137864   6.400   5.460   0.950  1.4128 -2.3737  0.1983
 5483TIP3    H237865   6.340   5.430   0.814 -1.7239  2.0098  0.3874
 5484TIP3   OH237866   4.717   5.110  16.586  0.2493 -0.0327 -0.2580
 5484TIP3    H137867   4.735   5.031  16.536 -3.1332 -1.3770  0.3851
 5484TIP3    H237868   4.677   5.170  16.523  0.8707  0.3858 -0.2711
 5485TIP3   OH237869   1.566   5.413   5.262  0.1622 -0.0135  0.8288
 5485TIP3    H137870   1.553   5.320   5.241 -0.5818  0.3299 -0.3024
 5485TIP3    H237871   1.659   5.419   5.284  0.6994 -0.6942 -1.0164
 5486TIP3   OH237872   5.457   3.527  14.611  0.2721  0.5779 -0.2292
 5486TIP3    H137873   5.495   3.439  14.612  2.9257  1.6236 -0.3877
 5486TIP3    H237874   5.380   3.520  14.667  0.9330 -1.6211  0.5298
 5487TIP3   OH237875   6.689   2.683  13.792  0.3951  0.8864 -0.2836
 5487TIP3    H137876   6.670   2.687  13.885  1.2616  2.5831 -0.1467
 5487TIP3    H237877   6.782   2.705  13.785  0.1506  1.6178 -1.5921
 5488TIP3   OH237878   4.262   3.732  15.012 -0.4265 -0.0439 -0.1264
 5488TIP3    H137879   4.288   3.735  14.920 -0.3689 -0.7298 -0.1339
 5488TIP3    H237880   4.177   3.689  15.011 -1.4372  1.8323 -0.0651
 5489TIP3   OH237881   0.543   4.114  11.744 -0.3308  0.4742  0.0047
 5489TIP3    H137882   0.545   4.025  11.780 -0.1699  0.6622  0.4696
 5489TIP3    H237883   0.503   4.104  11.658 -0.8794  0.0363  0.3024
 5490TIP3   OH237884   2.741   1.474   1.070 -0.2163  0.8204  0.3420
 5490TIP3    H137885   2.746   1.422   1.150  0.9980 -1.3807 -1.0646
 5490TIP3    H237886   2.650   1.465   1.041 -0.3374  0.5226  0.8077
 5491TIP3   OH237887   5.868   0.828  16.064  0.3809  0.4675  0.8563
 5491TIP3    H137888   5.864   0.912  16.017  0.5029 -0.0682 -0.1306
 5491TIP3    H237889   5.951   0.830  16.111  0.2726  0.9933  1.0332
 5492TIP3   OH237890   5.188   1.401  12.101 -0.0637 -0.0657  0.1598
 5492TIP3    H137891   5.098   1.405  12.135  0.0935  0.6318  0.5197
 5492TIP3    H237892   5.242   1.426  12.175  0.3835  0.1219 -0.2245
 5493TIP3   OH237893   1.420   5.810  11.236  0.3575 -0.0681 -0.0823
 5493TIP3    H137894   1.513   5.829  11.224  0.6185 -1.1737  0.0690
 5493TIP3    H237895   1.375   5.887  11.202  1.3013  0.0001 -1.2551
 5494TIP3   OH237896   1.089   1.456  16.009 -0.2686  0.5693 -0.0175
 5494TIP3    H137897   1.064   1.430  16.097 -1.4724  2.0913  0.1426
 5494TIP3    H237898   1.183   1.471  16.014  0.1044 -1.5840  0.3786
 5495TIP3   OH237899   3.865   1.162  14.283  0.3527 -0.3498 -0.0807
 5495TIP3    H137900   3.791   1.106  14.258 -0.3647  0.1392  0.8797
 5495TIP3    H237901   3.902   1.121  14.361  2.0838 -1.4288 -1.3830
 5496TIP3   OH237902   0.729   6.333   5.175  0.8985  0.2578 -0.4793
 5496TIP3    H137903   0.744   6.425   5.156  0.2396  1.2174  2.8477
 5496TIP3    H237904   0.638   6.329   5.204  0.8543 -1.4912 -0.7281
 5497TIP3   OH237905   5.886   3.418  12.017 -0.0547  0.3243  0.0915
 5497TIP3    H137906   5.933   3.500  12.003 -0.0061  0.0725 -1.4196
 5497TIP3    H237907   5.853   3.394  11.930  0.0004 -1.2942  0.4863
 5498TIP3   OH237908   4.191   6.334   5.464 -0.5299 -0.5042  0.7138
 5498TIP3    H137909   4.236   6.337   5.549 -0.5728  0.9174  0.7097
 5498TIP3    H237910   4.249   6.283   5.408  0.7427  0.6234  0.9321
 5499TIP3   OH237911   0.195   6.727  12.909  0.2545 -0.0540 -0.4778
 5499TIP3    H137912   0.271   6.671  12.897  0.4666  0.4553 -1.6410
 5499TIP3    H237913   0.228   6.801  12.961 -0.0999 -1.0962  1.3396
 5500TIP3   OH237914   4.840   4.326   4.751 -0.0848  0.4675 -0.2470
 5500TIP3    H137915   4.915   4.383   4.734  0.7562  0.2481  2.3939
 5500TIP3    H237916   4.855   4.250   4.695 -0.0569  1.7634 -2.1215
 5501TIP3   OH237917   3.097   6.518  13.444  0.0499  0.2524  0.1661
 5501TIP3    H137918   3.038   6.443  13.432 -1.0249  0.8908  1.2405
 5501TIP3    H237919   3.148   6.496  13.522 -1.7253  1.4673  1.7744
 5502TIP3   OH237920   0.949   6.146  16.855 -0.2406  0.4251 -0.9057
 5502TIP3    H137921   0.884   6.121  16.789 -0.2242  0.4609 -0.9361
 5502TIP3    H237922   0.978   6.234  16.829 -1.6112  1.2521  0.1913
 5503TIP3   OH237923   0.450   0.002  11.971  0.2079  0.4552  0.1487
 5503TIP3    H137924   0.545  -0.006  11.980  0.2062  0.6635  0.3604
 5503TIP3    H237925   0.430  -0.036  11.885  0.4020 -0.2220  0.4023
 5504TIP3   OH237926   2.298   6.301  17.259  0.1984  0.0562  0.5400
 5504TIP3    H137927   2.211   6.293  17.220  0.0748  0.7438  0.6524
 5504TIP3    H237928   2.314   6.217  17.301  0.1515 -0.5391 -0.6270
 5505TIP3   OH237929   1.321   1.673   3.869 -0.3510  0.1173 -0.3437
 5505TIP3    H137930   1.272   1.684   3.788  0.0917  1.4007 -0.4568
 5505TIP3    H237931   1.355   1.760   3.889  1.6170 -0.6549 -0.1012
 5506TIP3   OH237932   1.642   2.011  15.757  0.0700  0.7236  0.0834
 5506TIP3    H137933   1.720   2.052  15.720  0.0925  0.7441  0.1525
 5506TIP3    H237934   1.570   2.063  15.723 -0.0460 -0.3313 -1.3791
 5507TIP3   OH237935   6.557   4.895  12.059  0.3169 -0.6659  0.1893
 5507TIP3    H137936   6.486   4.924  12.001  0.2941 -2.4691 -0.7395
 5507TIP3    H237937   6.552   4.800  12.057  2.4258 -0.8224  0.5714
 5508TIP3   OH237938   6.443   0.934  13.070  0.2723 -0.4202  0.3308
 5508TIP3    H137939   6.463   0.845  13.098 -0.2710 -0.7022 -0.1491
 5508TIP3    H237940   6.389   0.923  12.992  0.8185  0.3435 -0.1668
 5509TIP3   OH237941   0.252   6.102   5.389  0.5268 -0.3358 -0.2954
 5509TIP3    H137942   0.305   6.169   5.431  1.0935 -1.6484  1.2132
 5509TIP3    H237943   0.231   6.137   5.303 -0.8345  2.5742  1.1077
 5510TIP3   OH237944   2.203   3.960   4.677  0.1645 -0.2776 -0.0653
 5510TIP3    H137945   2.241   4.048   4.666  1.4052 -0.9847 -1.9742
 5510TIP3    H237946   2.276   3.907   4.708 -0.2204 -0.9433 -0.2919
 5511TIP3   OH237947   1.555   5.359   3.313 -0.1014  1.0914  0.0996
 5511TIP3    H137948   1.506   5.392   3.388 -0.7622 -1.6950  1.0216
 5511TIP3    H237949   1.591   5.275   3.344  1.9786  1.2031 -1.8229
 5512TIP3   OH237950   4.005   3.771   6.679 -0.0879  0.5523 -0.0532
 5512TIP3    H137951   3.945   3.843   6.660 -0.0750  0.5852  0.0266
 5512TIP3    H237952   3.949   3.694   6.689 -0.2555  0.8318  1.3508
 5513TIP3   OH237953   4.481   3.336  13.503  0.2775  0.1034  0.5050
 5513TIP3    H137954   4.435   3.382  13.573  0.6272 -0.7652  1.3311
 5513TIP3    H237955   4.559   3.300  13.546  2.0815  2.0318 -0.9564
 5514TIP3   OH237956   4.780   5.507  11.148  0.4060  0.3178 -0.2367
 5514TIP3    H137957   4.859   5.453  11.148 -0.8596 -1.6467 -0.9443
 5514TIP3    H237958   4.778   5.546  11.060 -1.5543 -3.2111 -2.0181
 5515TIP3   OH237959   4.471   0.558   3.826 -0.6573 -0.7640  0.8407
 5515TIP3    H137960   4.485   0.494   3.756  0.5854 -2.0824  2.2246
 5515TIP3    H237961   4.401   0.521   3.879  0.2076 -1.1267  1.7641
 5516TIP3   OH237962   5.374   3.369  14.937  0.0741 -0.1323  0.0829
 5516TIP3    H137963   5.448   3.320  14.900 -1.6112 -1.4992 -1.6758
 5516TIP3    H237964   5.357   3.327  15.022  1.2487  0.1784  0.4918
 5517TIP3   OH237965   5.016   4.295   6.485  0.3747 -0.2612 -0.3715
 5517TIP3    H137966   5.082   4.292   6.415  0.4460  1.6398 -0.4358
 5517TIP3    H237967   5.066   4.281   6.566  0.8478  0.8647 -0.4467
 5518TIP3   OH237968   5.968   3.688  15.959 -0.2855  0.2688  0.2095
 5518TIP3    H137969   5.907   3.733  15.901 -0.1127 -0.4120 -0.5045
 5518TIP3    H237970   5.921   3.680  16.042 -1.0619  0.0117 -0.2507
 5519TIP3   OH237971   5.443   2.418  13.822 -0.2979 -0.0925  0.0626
 5519TIP3    H137972   5.512   2.402  13.757  1.3152  0.2427  1.6142
 5519TIP3    H237973   5.403   2.500  13.794  0.8959  0.4587 -0.1170
 5520TIP3   OH237974   1.069   6.027   4.804  0.6212 -0.4737 -0.8732
 5520TIP3    H137975   1.048   6.046   4.896  1.2756  2.1235 -1.1847
 5520TIP3    H237976   1.101   5.937   4.805 -2.0854 -1.5527  0.9602
 5521TIP3   OH237977   2.131   5.328  17.155 -0.1074  0.0334  0.1186
 5521TIP3    H137978   2.195   5.260  17.175  0.4581  0.6915  0.6124
 5521TIP3    H237979   2.058   5.311  17.215 -0.0969 -0.2998  0.0399
 5522TIP3   OH237980   0.580   5.066  13.480  0.1418 -0.0682  0.0683
 5522TIP3    H137981   0.562   4.987  13.531  0.2453 -0.0190  0.1811
 5522TIP3    H237982   0.675   5.073  13.480  0.1334  0.0366  0.0272
 5523TIP3   OH237983   2.127   1.761   5.853 -0.2461  0.4151 -0.2518
 5523TIP3    H137984   2.223   1.764   5.845 -0.1178  1.2442  1.2674
 5523TIP3    H237985   2.102   1.850   5.876 -1.2706 -0.0427  0.4768
 5524TIP3   OH237986   2.630   2.665  15.897  0.6238  0.0774  0.2101
 5524TIP3    H137987   2.722   2.679  15.922  0.6700  1.1748 -0.4901
 5524TIP3    H237988   2.621   2.712  15.814  0.0658 -2.1738 -1.0700
 5525TIP3   OH237989   0.139   3.290  16.875  0.3607  0.4694  0.1320
 5525TIP3    H137990   0.134   3.269  16.969  1.5572  0.4450  0.1961
 5525TIP3    H237991   0.151   3.205  16.833  1.5586  0.6354  0.1046
 5526TIP3   OH237992   0.221   5.351   5.424 -0.6853 -0.3787 -0.3546
 5526TIP3    H137993   0.270   5.368   5.343  1.5257 -1.9037  0.5700
 5526TIP3    H237994   0.207   5.437   5.462  3.5102  0.1413  0.5010
 5527TIP3   OH237995   0.324   4.278  10.769 -0.1799 -0.0499 -0.4129
 5527TIP3    H137996   0.313   4.370  10.794 -0.2970 -0.6620  1.9521
 5527TIP3    H237997   0.390   4.244  10.829 -0.0758 -1.5129 -1.3077
 5528TIP3   OH237998   3.987   3.384   0.338  0.0850  0.3406  0.4316
 5528TIP3    H137999   3.965   3.461   0.286 -1.4430 -0.7123 -0.5495
 5528TIP3    H238000   3.950   3.402   0.425 -1.0609  0.3363 -0.0491
 5529TIP3   OH238001   0.845   3.139   2.535 -0.2628 -0.1917 -0.3109
 5529TIP3    H138002   0.782   3.090   2.589  1.7809 -0.4514  2.0060
 5529TIP3    H238003   0.877   3.208   2.593  1.4018  0.0861 -1.5062
 5530TIP3   OH238004   0.542   1.742   0.481 -0.1691  0.1858 -0.3076
 5530TIP3    H138005   0.467   1.697   0.444  0.3500 -1.0752  0.1201
 5530TIP3    H238006   0.511   1.775   0.566  0.0011 -1.1293  0.2829
 5531TIP3   OH238007   5.315   1.218  15.727  0.3986  0.5627 -0.2286
 5531TIP3    H138008   5.355   1.300  15.700  1.1895  0.1841 -0.2314
 5531TIP3    H238009   5.371   1.150  15.690 -0.4426  0.0088 -0.5270
 5532TIP3   OH238010   0.420   2.755  13.330 -0.0443  0.4656 -0.3917
 5532TIP3    H138011   0.468   2.765  13.248 -0.1926  1.5823 -0.3520
 5532TIP3    H238012   0.455   2.823  13.388 -0.8623  0.5464  0.0268
 5533TIP3   OH238013   2.169   6.676  14.595 -0.3223  0.2062 -0.4180
 5533TIP3    H138014   2.247   6.657  14.544 -0.0936 -0.3596  0.1259
 5533TIP3    H238015   2.195   6.659  14.686 -1.6238 -1.9117 -0.3714
 5534TIP3   OH238016   4.789   4.928   4.147 -0.3127 -0.5891 -0.2657
 5534TIP3    H138017   4.725   4.927   4.075 -0.8420  0.9160  0.1365
 5534TIP3    H238018   4.736   4.935   4.226  0.3184  0.5543  0.0837
 5535TIP3   OH238019   3.975   6.065   2.863  0.4709  0.4302  0.7037
 5535TIP3    H138020   3.939   5.982   2.833  0.3085  0.4435  0.8590
 5535TIP3    H238021   3.915   6.131   2.827  1.3975  0.5820 -0.6396
 5536TIP3   OH238022   2.911   3.710  12.230  0.0807 -0.1751 -0.0505
 5536TIP3    H138023   2.890   3.679  12.141  0.9129 -1.0588  0.0429
 5536TIP3    H238024   2.922   3.805  12.220  3.6002 -0.5777 -1.6748
 5537TIP3   OH238025   0.931   4.768   1.605 -0.4039  0.1177  0.0706
 5537TIP3    H138026   0.849   4.730   1.574 -0.0329  1.2195 -2.5656
 5537TIP3    H238027   0.904   4.840   1.661 -1.1176 -1.9857  2.6521
 5538TIP3   OH238028   1.050   0.327   4.344 -0.0310 -0.3296 -0.5604
 5538TIP3    H138029   1.008   0.269   4.280 -0.3265 -1.0022  0.2229
 5538TIP3    H238030   1.143   0.306   4.337 -0.2805 -2.1829  0.8988
 5539TIP3   OH238031   0.410   5.691   3.702 -0.4559  0.0216  0.2411
 5539TIP3    H138032   0.369   5.770   3.665  0.7789 -0.0554 -1.4217
 5539TIP3    H238033   0.389   5.695   3.795 -1.4086  1.7048  0.0089
 5540TIP3   OH238034   1.839   2.121   3.325  0.2030  0.5464 -0.1641
 5540TIP3    H138035   1.923   2.074   3.325 -1.0280 -1.7918 -0.0927
 5540TIP3    H238036   1.864   2.213   3.324  2.7985 -0.0290  1.1327
 5541TIP3   OH238037   6.247   2.883  16.549 -0.3580  0.6043 -0.3065
 5541TIP3    H138038   6.317   2.948  16.554 -1.2179  1.5565 -0.3356
 5541TIP3    H238039   6.240   2.848  16.638 -0.4632  1.1669 -0.0935
 5542TIP3   OH238040   6.308   3.810   4.443  0.3764  0.3149  0.5231
 5542TIP3    H138041   6.329   3.756   4.367 -0.9830 -1.2862  1.2168
 5542TIP3    H238042   6.389   3.813   4.493  1.2213  1.1962 -0.8409
 5543TIP3   OH238043   4.903   5.245  16.741  0.2705  0.0790 -0.3669
 5543TIP3    H138044   4.822   5.209  16.706 -0.2942  0.0198  0.9447
 5543TIP3    H238045   4.906   5.214  16.832  1.3168  0.8102 -0.1318
 5544TIP3   OH238046   0.321   0.607   4.093 -0.3218 -0.6434  0.2625
 5544TIP3    H138047   0.381   0.533   4.096 -0.7297 -0.9784  0.2351
 5544TIP3    H238048   0.375   0.683   4.119 -0.1268 -1.0866  1.2025
 5545TIP3   OH238049   3.189   2.758  15.643 -0.2187  0.0380 -0.9710
 5545TIP3    H138050   3.242   2.706  15.703  0.3464  0.3957 -1.1571
 5545TIP3    H238051   3.219   2.848  15.655 -2.5204  0.6683  0.8022
 5546TIP3   OH238052   3.659   2.093   4.200  0.2970  0.4853  0.4437
 5546TIP3    H138053   3.588   2.032   4.223 -0.1463  1.1920  0.9984
 5546TIP3    H238054   3.706   2.106   4.282  1.1472 -0.0609  0.0552
 5547TIP3   OH238055   4.125   4.054  12.518 -0.3691  0.3987 -0.7295
 5547TIP3    H138056   4.201   4.052  12.460 -0.8930 -2.7377 -1.5393
 5547TIP3    H238057   4.050   4.044  12.459 -1.2108  0.7971  0.2398
 5548TIP3   OH238058   5.316   2.302   5.508 -0.0712  0.2286  0.1606
 5548TIP3    H138059   5.247   2.305   5.441 -0.1085  1.0245  0.2287
 5548TIP3    H238060   5.387   2.254   5.466 -0.1696  0.5490 -0.3887
 5549TIP3   OH238061   4.856   0.253  15.100 -0.0665 -0.2699  0.1956
 5549TIP3    H138062   4.941   0.297  15.102  0.5432 -1.3066 -1.1470
 5549TIP3    H238063   4.813   0.291  15.023 -0.6619 -0.0556  0.6303
 5550TIP3   OH238064   5.235   4.735  16.600  0.1971 -1.0487  0.3965
 5550TIP3    H138065   5.254   4.735  16.694  0.0321 -2.8714  0.4516
 5550TIP3    H238066   5.172   4.665  16.588  1.5400 -2.0296 -1.3141
 5551TIP3   OH238067   5.588   2.543   2.598  0.0304  0.6233  0.0887
 5551TIP3    H138068   5.586   2.517   2.505 -0.4274 -0.8167  0.4726
 5551TIP3    H238069   5.668   2.594   2.607  0.4482  0.1932 -0.9663
 5552TIP3   OH238070   6.535   0.554   3.581  0.4960 -0.4255 -0.5391
 5552TIP3    H138071   6.566   0.530   3.494 -0.8301  0.8534 -1.4111
 5552TIP3    H238072   6.526   0.649   3.578  0.2670 -0.3738  0.9541
 5553TIP3   OH238073   3.287   0.808   2.609  0.7816  0.3272 -0.9991
 5553TIP3    H138074   3.269   0.732   2.553 -2.4078  1.2919 -1.4529
 5553TIP3    H238075   3.282   0.883   2.549  2.1960  1.0691 -0.2448
 5554TIP3   OH238076   2.159   6.191   1.875  0.1022 -0.1331  0.0826
 5554TIP3    H138077   2.142   6.284   1.857 -0.4891  0.1118  1.7125
 5554TIP3    H238078   2.074   6.149   1.864  0.3101 -0.4463 -0.3573
 5555TIP3   OH238079   3.677   1.814   2.489 -0.4937 -0.5109  0.2269
 5555TIP3    H138080   3.584   1.839   2.494 -0.4250 -0.0344 -0.7600
 5555TIP3    H238081   3.683   1.736   2.545 -2.1003 -2.3147 -1.9205
 5556TIP3   OH238082   5.549   0.309   4.049  0.0881  0.7065 -0.3076
 5556TIP3    H138083   5.597   0.391   4.061  0.2644  0.5898 -0.2081
 5556TIP3    H238084   5.576   0.255   4.123  0.0158  0.5378 -0.4046
 5557TIP3   OH238085   0.571   0.395   3.306  0.2573 -0.0008 -0.2621
 5557TIP3    H138086   0.582   0.311   3.262 -1.1776  0.3858 -1.4548
 5557TIP3    H238087   0.632   0.392   3.380  2.6260 -0.7508 -2.1301
 5558TIP3   OH238088   0.775   3.116  14.990  0.2328 -0.4186 -0.2666
 5558TIP3    H138089   0.738   3.061  15.060  1.4065 -0.8968  0.0025
 5558TIP3    H238090   0.836   3.058  14.944  1.4152  0.6179 -0.0567
 5559TIP3   OH238091   2.429   5.761  11.980  0.5745 -0.5205  0.6465
 5559TIP3    H138092   2.368   5.758  12.053  2.1693  2.4077  2.2694
 5559TIP3    H238093   2.516   5.751  12.020  1.3852 -2.8899 -1.3934
 5560TIP3   OH238094   4.382   3.392   0.243  0.4364  0.0762 -0.0625
 5560TIP3    H138095   4.461   3.344   0.218  0.0940 -0.4398 -0.1766
 5560TIP3    H238096   4.384   3.393   0.339  0.4353 -0.1925 -0.0579
 5561TIP3   OH238097   6.671   0.157   1.796 -0.1925  0.8763 -0.2939
 5561TIP3    H138098   6.622   0.075   1.797 -1.5104  1.6467  1.0874
 5561TIP3    H238099   6.648   0.197   1.712  1.4673 -0.7019 -1.5683
 5562TIP3   OH238100   5.818   5.899  12.475 -0.2095 -0.8728 -0.4882
 5562TIP3    H138101   5.872   5.939  12.406 -0.9731  0.0482 -0.5751
 5562TIP3    H238102   5.819   5.806  12.455 -0.9874 -0.5607 -2.1981
 5563TIP3   OH238103   5.883   4.988   5.017 -0.7457  0.1372 -0.1382
 5563TIP3    H138104   5.879   4.941   4.933  1.0336 -0.7711  0.2241
 5563TIP3    H238105   5.860   4.922   5.083  2.9406 -0.7821  0.4887
 5564TIP3   OH238106   5.824   1.985   4.103  0.3316 -0.1220  0.1867
 5564TIP3    H138107   5.843   2.039   4.026 -0.0472 -2.2779 -1.5530
 5564TIP3    H238108   5.874   2.025   4.174 -1.2664  3.4808 -0.4768
 5565TIP3   OH238109   5.332   3.986  11.726 -0.0682  0.0443  0.0299
 5565TIP3    H138110   5.316   4.076  11.754  0.7026  0.3336 -0.4048
 5565TIP3    H238111   5.421   3.967  11.756  1.0457  0.5834 -2.6401
 5566TIP3   OH238112   6.113   0.586   0.974  0.0641 -0.2116  0.3665
 5566TIP3    H138113   6.067   0.502   0.980  0.2386 -0.2026  2.9897
 5566TIP3    H238114   6.102   0.613   0.882  0.0357 -3.0745 -0.5726
 5567TIP3   OH238115   5.465   1.563  13.204 -0.0902  0.3181  0.2024
 5567TIP3    H138116   5.445   1.656  13.196 -0.7377  0.0462 -2.3680
 5567TIP3    H238117   5.381   1.519  13.196  0.4625 -0.5508 -1.2536
 5568TIP3   OH238118   2.672   2.488  12.366  0.3300 -0.4495  0.1190
 5568TIP3    H138119   2.598   2.439  12.401  0.0777 -0.7438 -0.7976
 5568TIP3    H238120   2.743   2.470  12.427 -1.1304  2.5515  2.9712
 5569TIP3   OH238121   4.680   6.361   0.448 -0.2050 -0.2548 -0.1190
 5569TIP3    H138122   4.600   6.309   0.442 -1.0511  1.0469 -0.4102
 5569TIP3    H238123   4.688   6.402   0.362 -0.6116  1.5878  0.6853
 5570TIP3   OH238124   1.816   5.080   3.424  0.0151  0.0329 -0.0588
 5570TIP3    H138125   1.853   5.050   3.507 -2.6049  0.4007  1.3565
 5570TIP3    H238126   1.722   5.067   3.434 -0.5102  1.4984 -2.4030
 5571TIP3   OH238127   1.318   3.696  14.442 -0.0422  0.1031  0.0578
 5571TIP3    H138128   1.354   3.745  14.517  0.9912  0.7178 -0.7948
 5571TIP3    H238129   1.372   3.617  14.437 -0.3007 -0.0787  0.1359
 5572TIP3   OH238130   5.761   1.436  11.463 -0.2848  0.5238 -0.1458
 5572TIP3    H138131   5.667   1.450  11.447 -0.5247 -1.6417 -0.9622
 5572TIP3    H238132   5.804   1.476  11.388 -0.5830  0.9923 -0.0757
 5573TIP3   OH238133   4.302   5.497  11.281 -0.4080  0.1780  0.1559
 5573TIP3    H138134   4.249   5.417  11.285  0.5805 -0.4530  2.7093
 5573TIP3    H238135   4.312   5.514  11.188  0.9631 -3.8328 -0.6287
 5574TIP3   OH238136   3.117   0.799   3.134 -0.2326 -0.0642 -0.1426
 5574TIP3    H138137   3.209   0.782   3.114 -0.4713 -0.1108 -1.2763
 5574TIP3    H238138   3.089   0.722   3.183 -0.0238 -0.7243 -1.0214
 5575TIP3   OH238139   2.977   1.290   4.121  0.2327  0.7070  0.1488
 5575TIP3    H138140   3.001   1.371   4.167  3.1318 -0.9650  1.8333
 5575TIP3    H238141   2.939   1.235   4.190 -0.9482  0.2828 -0.8099
 5576TIP3   OH238142   4.907   5.558   6.845  0.4048  0.6112 -0.8272
 5576TIP3    H138143   5.003   5.556   6.846  0.4027  0.5864  0.4113
 5576TIP3    H238144   4.883   5.503   6.770  1.3241 -1.8726  0.5671
 5577TIP3   OH238145   2.046   4.653  11.935 -0.1478  0.1380  0.8617
 5577TIP3    H138146   2.078   4.740  11.911  0.3648  0.1757  1.6738
 5577TIP3    H238147   2.075   4.640  12.025 -1.3550 -0.3369  1.2091
 5578TIP3   OH238148   6.337   3.110  13.050  0.0435 -0.1952 -0.0769
 5578TIP3    H138149   6.300   3.054  12.982  0.1795  1.3593 -1.4976
 5578TIP3    H238150   6.261   3.141  13.100 -0.2006 -0.2255 -0.4269
 5579TIP3   OH238151   4.915   4.628  11.693  0.2045 -0.2723 -0.2427
 5579TIP3    H138152   4.902   4.598  11.783  1.0397 -0.0797 -0.0510
 5579TIP3    H238153   4.986   4.573  11.660  1.1469  0.8854 -0.1766
 5580TIP3   OH238154   2.286   5.617   3.242  0.6337  0.3721 -0.0948
 5580TIP3    H138155   2.376   5.620   3.275  0.3905 -0.6493  0.6839
 5580TIP3    H238156   2.238   5.678   3.298  0.8230  0.9234 -0.5153
 5581TIP3   OH238157   4.701   2.564   5.308  0.0849 -0.0396 -0.0357
 5581TIP3    H138158   4.622   2.533   5.264 -0.7493 -2.9731  3.0474
 5581TIP3    H238159   4.669   2.597   5.392  1.9060  1.5489  0.0864
 5582TIP3   OH238160   4.025   3.677  15.359 -0.4231  0.6548 -0.3350
 5582TIP3    H138161   4.087   3.612  15.324 -2.2404 -0.4835 -1.5864
 5582TIP3    H238162   4.072   3.716  15.433  1.4921 -0.7004 -0.7416
 5583TIP3   OH238163   5.174   1.071  13.047 -0.2505  0.5675 -0.3843
 5583TIP3    H138164   5.099   1.108  13.095  0.3321 -0.2198  1.1874
 5583TIP3    H238165   5.243   1.137  13.056 -0.3444  0.7165 -0.7298
 5584TIP3   OH238166   1.148   3.107  11.636  0.3168  0.0373 -0.1089
 5584TIP3    H138167   1.208   3.128  11.564 -0.5231  2.0013 -0.3193
 5584TIP3    H238168   1.197   3.128  11.715  0.3466  0.4413 -0.2311
 5585TIP3   OH238169   5.316   1.276   1.472  0.5366  0.7869  0.2178
 5585TIP3    H138170   5.315   1.195   1.523 -1.9948  2.1286  2.5767
 5585TIP3    H238171   5.388   1.327   1.509  1.1655  0.2329 -0.2309
 5586TIP3   OH238172   5.091   1.996   6.225  0.5661  0.2098  0.1768
 5586TIP3    H138173   5.165   2.045   6.261  1.4501  0.0119 -1.2670
 5586TIP3    H238174   5.062   2.047   6.150  0.3743 -0.5897 -0.3133
 5587TIP3   OH238175   4.003   1.333  16.483 -0.3052 -0.5433 -0.4629
 5587TIP3    H138176   3.936   1.398  16.461  0.3689 -0.0103 -0.9849
 5587TIP3    H238177   3.972   1.293  16.565 -0.4470  0.8606  0.2007
 5588TIP3   OH238178   0.596   4.870  13.751 -0.3544  0.1847  0.3897
 5588TIP3    H138179   0.540   4.853  13.827  1.4176 -1.7548  1.3415
 5588TIP3    H238180   0.576   4.798  13.690  0.9289 -0.4256  0.6636
 5589TIP3   OH238181   4.155   2.497   0.983 -0.2629  0.4744 -0.6889
 5589TIP3    H138182   4.118   2.494   1.071 -1.7841 -1.9684 -1.3153
 5589TIP3    H238183   4.105   2.565   0.938 -0.7138  0.4985 -0.1552
 5590TIP3   OH238184   2.876   0.723   3.714  0.1986 -0.3713 -0.4118
 5590TIP3    H138185   2.893   0.643   3.665 -1.7848 -1.6099  0.7523
 5590TIP3    H238186   2.856   0.693   3.803 -0.5599  1.4014  0.0729
 5591TIP3   OH238187   5.477   1.781  11.128  0.4501 -0.2618 -0.0426
 5591TIP3    H138188   5.569   1.784  11.153 -0.1220  0.3515  2.1675
 5591TIP3    H238189   5.467   1.853  11.066  1.1578  0.6855  0.8984
 5592TIP3   OH238190   3.188   2.397  13.572 -0.3936 -0.3539  0.2658
 5592TIP3    H138191   3.208   2.478  13.524  1.2312 -1.9201 -1.9079
 5592TIP3    H238192   3.096   2.379  13.551  0.0018 -0.4671 -1.5563
 5593TIP3   OH238193   6.074   3.957   1.314  0.0850  0.4040  0.0759
 5593TIP3    H138194   5.996   3.943   1.259 -0.1198  0.9886  0.2183
 5593TIP3    H238195   6.053   4.033   1.368  1.0198  1.0059 -0.3709
 5594TIP3   OH238196   3.799   4.883   5.966  0.5070 -0.1551 -0.1557
 5594TIP3    H138197   3.734   4.824   6.005  0.7360 -0.6490 -0.5193
 5594TIP3    H238198   3.872   4.827   5.941  1.5861  0.5432  1.2718
 5595TIP3   OH238199   3.655   1.360  14.274 -0.0808 -0.0837 -0.3953
 5595TIP3    H138200   3.716   1.309  14.327 -1.9555 -1.4853  0.4769
 5595TIP3    H238201   3.710   1.428  14.234  1.7319 -0.1963  1.7397
 5596TIP3   OH238202   2.513   6.337  12.054  0.5303 -0.0734 -0.6996
 5596TIP3    H138203   2.501   6.263  11.995  0.5820 -0.1530 -0.6103
 5596TIP3    H238204   2.544   6.408  11.997  0.9482 -0.2612 -0.7032
 5597TIP3   OH238205   3.047   4.910  16.645 -0.3014 -0.1281 -0.2334
 5597TIP3    H138206   2.976   4.883  16.703  0.1250  0.3002  0.5144
 5597TIP3    H238207   3.094   4.829  16.626  0.9365 -0.0079  1.9480
 5598TIP3   OH238208   4.368   4.428   1.480  0.3802  0.3505 -0.0471
 5598TIP3    H138209   4.343   4.435   1.388  1.0490  0.8986 -0.1971
 5598TIP3    H238210   4.455   4.389   1.479 -0.0547 -0.6566  0.4176
 5599TIP3   OH238211   6.543   1.924   1.145 -0.5132  0.3251  0.2888
 5599TIP3    H138212   6.603   1.981   1.096 -0.8143  0.5983  0.2367
 5599TIP3    H238213   6.585   1.838   1.142  0.0292  0.5785  0.5165
 5600TIP3   OH238214   4.592   4.444   2.264 -0.2239  0.1068 -0.0171
 5600TIP3    H138215   4.608   4.529   2.223 -0.3830  0.8762  1.4448
 5600TIP3    H238216   4.498   4.443   2.281 -0.7909 -1.6522 -2.6801
 5601TIP3   OH238217   5.808   6.605   0.470 -0.0888 -0.5805 -0.5310
 5601TIP3    H138218   5.785   6.698   0.480 -1.4340 -0.9024 -0.3324
 5601TIP3    H238219   5.864   6.602   0.393  0.8398  0.5205  0.0729
 5602TIP3   OH238220   1.063   2.927   4.081 -0.7173  0.8551  0.1093
 5602TIP3    H138221   1.141   2.881   4.052 -1.9679 -0.9662 -0.6066
 5602TIP3    H238222   1.039   2.983   4.008 -1.3542 -0.3628 -0.6555
 5603TIP3   OH238223   1.271   6.656   2.473  0.0480 -0.1004  0.7310
 5603TIP3    H138224   1.281   6.570   2.431  0.3318 -0.4162  1.4323
 5603TIP3    H238225   1.190   6.691   2.436  0.8772  0.1423 -0.9503
 5604TIP3   OH238226   3.880   4.299   2.243 -0.3466  0.3034  0.7012
 5604TIP3    H138227   3.854   4.370   2.302 -0.6519 -0.2357  1.2271
 5604TIP3    H238228   3.821   4.307   2.168 -1.4465 -0.3365  1.4689
 5605TIP3   OH238229   5.548   1.018   0.934 -0.0768  0.1488 -0.3570
 5605TIP3    H138230   5.607   0.964   0.986 -0.8183 -0.8037 -0.4874
 5605TIP3    H238231   5.545   1.102   0.981  1.8918  0.4699 -0.7059
 5606TIP3   OH238232   5.263   3.391   3.362 -0.0974  0.6207  0.0245
 5606TIP3    H138233   5.176   3.402   3.402  0.1682  0.2962  0.7184
 5606TIP3    H238234   5.259   3.440   3.280 -0.9450  0.5884  0.0406
 5607TIP3   OH238235   1.869   3.582   3.637  0.0188 -0.2677 -0.0291
 5607TIP3    H138236   1.954   3.610   3.670  0.4999 -0.9681 -0.6645
 5607TIP3    H238237   1.865   3.618   3.548 -0.6537  0.3608  0.2420
 5608TIP3   OH238238   1.144   3.680   3.716 -0.4147 -0.4874 -0.2095
 5608TIP3    H138239   1.099   3.603   3.750 -1.1976 -1.1836 -2.6423
 5608TIP3    H238240   1.208   3.645   3.654  0.2419  0.7561 -0.2703
 5609TIP3   OH238241   1.565   1.069  16.462  0.7226 -0.2596 -0.1844
 5609TIP3    H138242   1.594   0.978  16.459  0.5620 -0.2957 -0.8153
 5609TIP3    H238243   1.469   1.064  16.457  0.5621 -0.1508  1.9839
 5610TIP3   OH238244   2.810   0.252   6.738 -0.4845  0.0461  0.4685
 5610TIP3    H138245   2.898   0.261   6.700 -0.9115  0.0682 -0.5601
 5610TIP3    H238246   2.817   0.292   6.825  0.2872  0.9094  0.0327
 5611TIP3   OH238247   2.468   3.648   4.516 -0.4218  0.2023  0.1720
 5611TIP3    H138248   2.485   3.738   4.490 -0.6253  0.4053  0.7342
 5611TIP3    H238249   2.376   3.633   4.496 -0.6063  0.3909  0.8384
 5612TIP3   OH238250   1.381   6.643   6.489 -0.5391 -0.4508 -0.0001
 5612TIP3    H138251   1.351   6.562   6.530  1.1994  0.3145  3.1732
 5612TIP3    H238252   1.334   6.712   6.535 -1.1072  0.4431 -1.8322
 5613TIP3   OH238253   4.613   3.425  16.414 -0.0372  0.4265 -0.1389
 5613TIP3    H138254   4.694   3.413  16.363  0.2811  0.7029  0.2906
 5613TIP3    H238255   4.597   3.520  16.409  1.3566  0.8768  2.2732
 5614TIP3   OH238256   6.448   1.841   1.648  0.7173  0.0541  0.1256
 5614TIP3    H138257   6.405   1.926   1.640 -0.0312 -0.2648  0.6104
 5614TIP3    H238258   6.534   1.853   1.609  1.0484  1.3592  1.2007
 5615TIP3   OH238259   6.532   0.178   1.238  0.1318 -0.7170  0.2677
 5615TIP3    H138260   6.505   0.270   1.235  0.7035 -0.5481  0.1868
 5615TIP3    H238261   6.479   0.140   1.309 -1.3721 -0.7599 -0.8422
 5616TIP3   OH238262   3.917   2.692   4.141  0.0245 -0.0903 -0.0837
 5616TIP3    H138263   3.846   2.692   4.206  0.7593 -1.6245  0.7707
 5616TIP3    H238264   3.887   2.753   4.074 -2.4765 -1.2342 -0.1428
 5617TIP3   OH238265   2.612   2.025   1.625 -0.0942  0.1730  0.0151
 5617TIP3    H138266   2.695   1.991   1.656  0.0965 -1.0690 -1.7021
 5617TIP3    H238267   2.605   2.112   1.665  0.7725 -0.7170  2.2385
 5618TIP3   OH238268   6.524   1.238  16.989 -0.0625  0.0170 -0.0100
 5618TIP3    H138269   6.602   1.188  16.966 -0.5370  0.0066 -1.7034
 5618TIP3    H238270   6.459   1.214  16.923 -1.0779  1.0376  0.5730
 5619TIP3   OH238271   0.103   3.890  12.025  0.4409 -0.1974 -0.0010
 5619TIP3    H138272   0.036   3.955  12.000  1.8451  1.5776  0.6503
 5619TIP3    H238273   0.162   3.888  11.950  1.2646  0.4876  0.6170
 5620TIP3   OH238274   0.036   4.507   1.103  0.6114  0.3601 -0.4149
 5620TIP3    H138275  -0.006   4.560   1.170  1.0037  0.2509 -0.0822
 5620TIP3    H238276   0.055   4.569   1.032 -0.8447  0.2575 -0.9210
 5621TIP3   OH238277   6.210   0.373   3.311 -0.1298 -0.7370  0.1131
 5621TIP3    H138278   6.198   0.371   3.216  1.2055 -0.5041 -0.0854
 5621TIP3    H238279   6.208   0.466   3.334  1.1364 -0.6808  0.0638
 5622TIP3   OH238280   2.258   5.560  16.537 -0.0775 -0.4439  0.5949
 5622TIP3    H138281   2.170   5.587  16.562  0.0497  0.7170 -0.1257
 5622TIP3    H238282   2.312   5.638  16.550  0.8248 -1.1010  0.9027
 5623TIP3   OH238283   4.654   3.727   6.431  0.4012 -0.2217  0.3758
 5623TIP3    H138284   4.571   3.683   6.450  0.7667 -0.5352  1.2881
 5623TIP3    H238285   4.671   3.706   6.339 -0.2883 -0.5648  0.3186
 5624TIP3   OH238286   2.575   4.148   0.978 -0.3842  0.0356 -0.4256
 5624TIP3    H138287   2.531   4.072   0.939 -0.3545 -1.1893  1.7988
 5624TIP3    H238288   2.507   4.216   0.981 -0.3096  0.3137 -2.7763
 5625TIP3   OH238289   0.861   4.973   4.280 -0.2528  0.1305  0.0685
 5625TIP3    H138290   0.786   4.968   4.222  0.3251  0.3696 -0.7168
 5625TIP3    H238291   0.884   5.066   4.283  1.5503 -0.1775 -1.7592
 5626TIP3   OH238292   3.182   4.292   4.105 -0.3574 -0.4521  0.6665
 5626TIP3    H138293   3.245   4.286   4.176 -0.7181  1.4053  1.1814
 5626TIP3    H238294   3.227   4.252   4.030  1.3325  0.5571  1.0902
 5627TIP3   OH238295   6.432   2.920   4.331 -0.2091 -0.7230  0.1463
 5627TIP3    H138296   6.505   2.948   4.386  0.9756 -1.3033 -1.0665
 5627TIP3    H238297   6.441   2.824   4.327 -1.3870 -0.8510  0.4406
 5628TIP3   OH238298   1.886   0.814   3.085 -0.1199  0.0272 -0.1855
 5628TIP3    H138299   1.837   0.853   3.012 -1.1299  0.9601  0.9600
 5628TIP3    H238300   1.883   0.880   3.154 -3.3555 -2.5260  2.4639
 5629TIP3   OH238301   1.507   0.052   2.230  0.0606  0.5003  0.2585
 5629TIP3    H138302   1.429   0.095   2.267 -0.1594  2.1560 -1.9213
 5629TIP3    H238303   1.573   0.121   2.227  0.2126  0.3308 -1.8665
 5630TIP3   OH238304   5.634   4.559  13.063  0.6883  0.0301  0.2720
 5630TIP3    H138305   5.628   4.613  13.142 -0.4429 -0.0385  0.2456
 5630TIP3    H238306   5.676   4.616  12.998  0.8927  0.3576  0.6887
 5631TIP3   OH238307   0.244   3.823   3.047 -0.1989  0.0843  0.2144
 5631TIP3    H138308   0.241   3.909   3.005 -2.1488  0.2345  0.5968
 5631TIP3    H238309   0.292   3.838   3.128 -1.8671  1.2145  1.0564
 5632TIP3   OH238310   1.991   1.997   1.760 -0.1048 -0.1853  0.2445
 5632TIP3    H138311   2.014   1.927   1.699 -2.1981 -0.2671 -0.5558
 5632TIP3    H238312   1.971   2.072   1.705 -0.2248  0.3159  0.9507
 5633TIP3   OH238313   0.911   5.345  11.391  0.0372 -0.0066 -0.3908
 5633TIP3    H138314   0.968   5.323  11.317 -0.8139  0.4294 -1.2093
 5633TIP3    H238315   0.890   5.438  11.378 -0.3853 -0.0128  0.2137
 5634TIP3   OH238316   3.526   2.334   0.488  0.2711 -0.0103  0.3820
 5634TIP3    H138317   3.528   2.241   0.467 -0.5747 -0.0405  0.3679
 5634TIP3    H238318   3.450   2.367   0.441 -2.3857 -0.2723  3.9851
 5635TIP3   OH238319   4.805   5.567   1.207  0.3711 -0.0969 -0.6737
 5635TIP3    H138320   4.855   5.486   1.221  0.7075 -0.5806 -3.8260
 5635TIP3    H238321   4.737   5.542   1.144 -1.4431  1.4575  0.5611
 5636TIP3   OH238322   6.361   1.921  12.444 -0.2819  0.1437  0.1173
 5636TIP3    H138323   6.348   1.929  12.539 -0.5874 -0.4092  0.1266
 5636TIP3    H238324   6.344   2.009  12.410 -0.4820  0.2700  0.5401
 5637TIP3   OH238325   0.822   4.316   2.836 -0.2301  0.0253 -0.1893
 5637TIP3    H138326   0.875   4.396   2.824  0.0176  0.0954  1.2405
 5637TIP3    H238327   0.884   4.252   2.870 -0.4099 -0.8398 -1.4265
 5638TIP3   OH238328   2.798   6.440   4.432  0.0843  0.2542 -0.2557
 5638TIP3    H138329   2.834   6.385   4.362 -1.0011  0.7838 -1.2615
 5638TIP3    H238330   2.865   6.437   4.501  1.7245  0.6144 -1.7428
 5639TIP3   OH238331   0.355   2.013   4.775 -0.1403 -0.7093  0.5353
 5639TIP3    H138332   0.337   2.099   4.813 -2.0987 -0.4797 -0.7104
 5639TIP3    H238333   0.449   2.003   4.781  0.3903  2.2699 -0.7052
 5640TIP3   OH238334   2.069   0.155  12.826  0.0272 -0.1032  0.3472
 5640TIP3    H138335   2.098   0.200  12.905  0.1022  1.3566 -0.4893
 5640TIP3    H238336   2.142   0.097  12.804  0.8833  0.9935  0.2112
 5641TIP3   OH238337   0.844   1.838   6.108 -0.2230  0.1827  0.4475
 5641TIP3    H138338   0.891   1.787   6.042  1.2997 -1.0553  2.3411
 5641TIP3    H238339   0.768   1.785   6.130 -0.7879  0.6454 -0.3480
 5642TIP3   OH238340   2.833   6.693   3.669 -0.2075  0.5825  0.1400
 5642TIP3    H138341   2.890   6.624   3.635 -2.1042  0.0733 -2.3268
 5642TIP3    H238342   2.893   6.756   3.709  1.9110 -0.7435 -0.7516
 5643TIP3   OH238343   1.509   2.389   4.862  0.3236 -0.0301 -0.6875
 5643TIP3    H138344   1.421   2.364   4.890  1.1256 -0.8589  1.2298
 5643TIP3    H238345   1.559   2.395   4.942  1.9750  0.6905 -1.7262
 5644TIP3   OH238346   2.848   4.820   3.925  0.4833 -0.7602 -0.1541
 5644TIP3    H138347   2.939   4.843   3.912  0.2004 -0.1783 -1.1686
 5644TIP3    H238348   2.850   4.752   3.992  1.7667 -1.7083 -1.1149
 5645TIP3   OH238349   4.517   4.503  12.680 -0.0426 -0.0127  0.1561
 5645TIP3    H138350   4.480   4.588  12.704  0.2168 -0.1591  1.0991
 5645TIP3    H238351   4.460   4.439  12.723 -1.0819 -0.3977 -1.6890
 5646TIP3   OH238352   3.539   1.209   1.194 -0.2142  0.1278 -0.0820
 5646TIP3    H138353   3.504   1.297   1.183  0.6538  0.2873 -2.0170
 5646TIP3    H238354   3.634   1.219   1.187 -0.1683 -1.1289 -2.3146
 5647TIP3   OH238355   5.932   5.974   5.227 -0.7353 -0.3723 -0.3409
 5647TIP3    H138356   5.883   5.922   5.290 -0.7985 -0.4860 -0.4829
 5647TIP3    H238357   5.903   6.064   5.241 -2.9763 -0.7015 -2.1830
 5648TIP3   OH238358   3.074   1.667   6.368 -0.2413  0.0822  0.6980
 5648TIP3    H138359   3.123   1.619   6.434  1.7598 -0.3744 -0.9770
 5648TIP3    H238360   3.043   1.600   6.307  1.1929  0.6643 -0.7847
 5649TIP3   OH238361   6.306   0.819  13.987 -0.0729 -0.0856  0.5393
 5649TIP3    H138362   6.230   0.767  13.961  0.1388  0.4305 -1.2334
 5649TIP3    H238363   6.336   0.778  14.068 -0.6843 -1.9188 -0.1113
 5650TIP3   OH238364   2.646   0.323  13.325 -0.0721  0.3271  1.0940
 5650TIP3    H138365   2.737   0.340  13.349 -0.2000  1.3870  0.8818
 5650TIP3    H238366   2.652   0.272  13.244  0.3360 -1.7797  2.3703
 5651TIP3   OH238367   1.343   3.237   1.366 -0.0153 -0.5868  0.6762
 5651TIP3    H138368   1.268   3.228   1.307  0.3602  1.9831 -0.3027
 5651TIP3    H238369   1.419   3.240   1.308  0.4462  0.9729  1.3028
 5652TIP3   OH238370   6.488   3.050   5.826  0.9013 -0.1075  0.2645
 5652TIP3    H138371   6.499   3.004   5.743  1.6504  1.4008 -0.5204
 5652TIP3    H238372   6.510   3.141   5.806 -2.9419  1.2162  1.0969
 5653TIP3   OH238373   4.900   5.444   1.653  0.4501  0.9339 -0.1585
 5653TIP3    H138374   4.971   5.459   1.591  0.7465  3.9522  0.7412
 5653TIP3    H238375   4.944   5.421   1.735  0.1997 -0.1436 -0.3108
 5654TIP3   OH238376   3.785   2.901  14.355 -0.0944  0.1944  0.2756
 5654TIP3    H138377   3.754   2.947  14.277 -0.0939  0.3463  0.3631
 5654TIP3    H238378   3.795   2.810  14.328  1.6453  0.5524 -0.4082
 5655TIP3   OH238379   2.745   2.434  13.358 -1.2023 -0.2301  0.1114
 5655TIP3    H138380   2.690   2.414  13.282 -1.3607 -1.0525  0.4299
 5655TIP3    H238381   2.701   2.508  13.400 -1.7242 -0.4775  0.0147
 5656TIP3   OH238382   2.337   3.047   2.849  0.6228 -0.0553  0.6567
 5656TIP3    H138383   2.263   3.020   2.794  0.6121 -2.9711  1.9276
 5656TIP3    H238384   2.415   3.024   2.799  0.6965  1.2341  0.1367
 5657TIP3   OH238385   5.852   4.462  14.359  0.2842 -0.3495  0.4818
 5657TIP3    H138386   5.814   4.444  14.273 -0.7267  0.7577  0.6686
 5657TIP3    H238387   5.784   4.512  14.405  0.6167 -1.3065  2.0913
 5658TIP3   OH238388   1.336   0.402   0.151  0.2575 -0.4582  0.3241
 5658TIP3    H138389   1.270   0.346   0.111  0.0997  0.8735 -1.4058
 5658TIP3    H238390   1.301   0.490   0.143  1.8526  0.1945  0.1282
 5659TIP3   OH238391   1.433   0.540   2.812 -0.2768  0.4981 -0.4113
 5659TIP3    H138392   1.360   0.504   2.761 -1.7034 -1.1383  2.5543
 5659TIP3    H238393   1.473   0.464   2.854  2.3032  1.5331 -0.8310
 5660TIP3   OH238394   5.099   1.827   3.544 -0.2968 -0.1615 -0.0453
 5660TIP3    H138395   5.155   1.818   3.467  0.7347  0.5042  0.6100
 5660TIP3    H238396   5.141   1.772   3.610  0.0448  0.9596  0.6934
 5661TIP3   OH238397   0.683   3.116   2.855  0.0221  0.1114  0.1598
 5661TIP3    H138398   0.587   3.114   2.854 -0.0074  0.1493  1.3943
 5661TIP3    H238399   0.709   3.080   2.770 -1.0862  0.3278 -0.2868
 5662TIP3   OH238400   0.740   2.896   2.655 -0.0117  0.6312  0.0601
 5662TIP3    H138401   0.666   2.838   2.667 -0.2615  0.2877 -2.5156
 5662TIP3    H238402   0.806   2.865   2.716 -1.8104  0.7457  2.1907
 5663TIP3   OH238403   2.055   3.234   6.484 -0.5526  0.5430 -0.4622
 5663TIP3    H138404   1.980   3.230   6.543 -1.8340  0.0376 -2.0686
 5663TIP3    H238405   2.128   3.199   6.536 -1.4592  0.7965  1.0401
 5664TIP3   OH238406   0.176   2.876   6.384 -0.8244 -0.7527 -0.2105
 5664TIP3    H138407   0.107   2.920   6.433 -1.0268  1.7347 -2.5127
 5664TIP3    H238408   0.193   2.796   6.434 -0.9302  1.5098  3.8794
 5665TIP3   OH238409   6.044   3.281   0.790 -0.3906 -0.4912  1.1792
 5665TIP3    H138410   5.952   3.295   0.810 -0.8706  1.9346 -1.8249
 5665TIP3    H238411   6.090   3.351   0.837 -0.4816  0.0942  0.4146
 5666TIP3   OH238412   1.820   3.344  16.058  0.2515 -0.1328  0.1024
 5666TIP3    H138413   1.744   3.357  16.114 -0.1950 -0.7429 -0.3367
 5666TIP3    H238414   1.851   3.432  16.037  1.0779  0.1109  2.1320
 5667TIP3   OH238415   3.165   6.375   3.831 -0.3076  0.0906 -0.5469
 5667TIP3    H138416   3.245   6.393   3.782 -1.0138  1.2262 -1.3298
 5667TIP3    H238417   3.115   6.315   3.774  0.0719 -0.8087  0.0456
 5668TIP3   OH238418   5.215   2.662  14.375 -0.1354  0.6872 -0.2033
 5668TIP3    H138419   5.141   2.612  14.409  0.9407  0.8326  2.6356
 5668TIP3    H238420   5.240   2.617  14.294 -0.7293 -1.8845  0.9575
 5669TIP3   OH238421   1.307   3.402  11.792 -0.0035 -0.2063 -0.1757
 5669TIP3    H138422   1.329   3.309  11.801 -0.0989 -0.1710  0.4657
 5669TIP3    H238423   1.387   3.448  11.815 -0.1470 -0.1161  0.1393
 5670TIP3   OH238424   4.485   1.897  11.791 -0.1118 -0.0353 -0.2143
 5670TIP3    H138425   4.516   1.837  11.723 -0.8034 -0.4358 -0.1848
 5670TIP3    H238426   4.436   1.841  11.852  2.3089 -0.1216  1.8388
 5671TIP3   OH238427   5.649   5.696   4.180  0.3402 -0.0821  0.2509
 5671TIP3    H138428   5.687   5.775   4.140 -0.9465  0.7825  0.6669
 5671TIP3    H238429   5.694   5.687   4.264 -0.2243  0.8344  0.6664
 5672TIP3   OH238430   4.698   5.332  11.947 -0.0311  0.0959 -0.1865
 5672TIP3    H138431   4.765   5.356  12.011 -0.8564  1.0450  0.3542
 5672TIP3    H238432   4.747   5.320  11.865  0.7532  1.2612  0.0764
 5673TIP3   OH238433   2.322   5.847  16.336 -0.3662  0.4511 -0.1815
 5673TIP3    H138434   2.347   5.843  16.428 -0.6997 -0.8158 -0.1231
 5673TIP3    H238435   2.234   5.885  16.337 -1.3151 -1.5785  0.2699
 5674TIP3   OH238436   2.829   5.930   3.527  0.3723 -0.2555  0.3450
 5674TIP3    H138437   2.905   5.910   3.473 -0.5441 -0.2231 -0.9978
 5674TIP3    H238438   2.782   5.847   3.535  1.0733 -0.5157  2.0554
 5675TIP3   OH238439   0.960   4.398   5.531  0.3744  0.3366 -0.5068
 5675TIP3    H138440   0.958   4.411   5.625 -1.8762  1.1963 -0.6009
 5675TIP3    H238441   0.988   4.308   5.519  2.2533  0.6754  0.8680
 5676TIP3   OH238442   4.211   3.646   4.113 -0.1880 -0.4713 -0.0211
 5676TIP3    H138443   4.119   3.674   4.117 -0.3100 -0.7544 -0.7274
 5676TIP3    H238444   4.215   3.568   4.168 -0.4126 -0.5641 -0.1359
 5677TIP3   OH238445   4.003   4.875   0.839 -0.1246  0.5798 -0.3519
 5677TIP3    H138446   3.958   4.853   0.757  0.9596  1.4184 -1.2058
 5677TIP3    H238447   3.935   4.913   0.894 -0.3986  2.3896 -1.8339
 5678TIP3   OH238448   1.426   2.256  11.293 -0.0426  0.3416  0.2687
 5678TIP3    H138449   1.373   2.268  11.214 -0.2413 -0.1461  0.3242
 5678TIP3    H238450   1.411   2.165  11.318 -1.1700  0.8843  1.7224
 5679TIP3   OH238451   0.614   1.970   3.482  0.4973  0.2367 -0.1068
 5679TIP3    H138452   0.599   2.018   3.401 -0.8068 -0.4171 -0.2862
 5679TIP3    H238453   0.660   2.031   3.539 -0.4171  1.4265 -0.6029
 5680TIP3   OH238454   5.235   0.545  13.829  0.3280  0.4644 -0.0717
 5680TIP3    H138455   5.221   0.509  13.741 -0.4561 -0.9449  0.6144
 5680TIP3    H238456   5.330   0.548  13.838  0.4274  0.8244 -1.0319
 5681TIP3   OH238457   6.255   6.442   4.781 -0.3053  0.8376  0.4878
 5681TIP3    H138458   6.266   6.527   4.824  0.6473  1.7584 -1.4178
 5681TIP3    H238459   6.214   6.462   4.697  1.5846 -0.3031 -0.7976
 5682TIP3   OH238460   3.092   1.308  15.756 -0.1838 -0.1421  0.1842
 5682TIP3    H138461   3.150   1.373  15.797  1.3173 -0.0862 -1.8883
 5682TIP3    H238462   3.051   1.264  15.830  0.0777  1.9659  1.6962
 5683TIP3   OH238463   4.806   4.936  13.638 -0.5120  0.5600  0.2425
 5683TIP3    H138464   4.863   4.935  13.561  0.6201 -0.3260  1.0499
 5683TIP3    H238465   4.724   4.973  13.607  0.1200  0.7792 -1.2446
 5684TIP3   OH238466   0.701   1.713  11.887  0.1917  0.3377 -0.5099
 5684TIP3    H138467   0.738   1.801  11.888 -0.1803  0.5034 -0.7490
 5684TIP3    H238468   0.675   1.697  11.977  1.4503 -0.0546 -0.2007
 5685TIP3   OH238469   1.451   3.959   5.661 -0.2696  0.0064 -0.3214
 5685TIP3    H138470   1.381   3.985   5.601 -0.6613 -1.6139 -0.6018
 5685TIP3    H238471   1.523   3.933   5.604 -0.0188  0.1187 -0.0556
 5686TIP3   OH238472   4.920   3.334  16.678 -0.0431  0.1404  0.1960
 5686TIP3    H138473   4.962   3.361  16.597 -0.2884 -0.1838 -0.0424
 5686TIP3    H238474   4.850   3.398  16.693  0.7899  0.9192  0.8113
 5687TIP3   OH238475   1.950   5.667  13.988 -0.0269  0.5629 -0.0243
 5687TIP3    H138476   1.923   5.714  14.067 -3.4327  1.4501 -1.5080
 5687TIP3    H238477   1.954   5.575  14.014  0.6740  0.9981  1.5315
 5688TIP3   OH238478   0.288   5.647   0.079 -0.6086 -0.5156  0.0281
 5688TIP3    H138479   0.378   5.671   0.058 -0.0475 -0.1182  2.5771
 5688TIP3    H238480   0.235   5.697   0.017  0.8727 -0.1514 -1.0130
 5689TIP3   OH238481   3.208   3.606  15.589  0.2989  0.1539 -0.5082
 5689TIP3    H138482   3.232   3.552  15.514  0.7744  0.3076 -0.4677
 5689TIP3    H238483   3.262   3.572  15.661 -1.5111 -1.2713  0.2576
 5690TIP3   OH238484   4.642   3.861   3.104  0.1733 -0.3587 -0.2869
 5690TIP3    H138485   4.680   3.869   3.016  2.0818 -0.1518  0.5051
 5690TIP3    H238486   4.562   3.811   3.091 -0.7604  1.4938 -2.4368
 5691TIP3   OH238487   5.892   6.000   2.359  0.2920 -0.4337  0.7690
 5691TIP3    H138488   5.917   6.055   2.434  1.8635 -0.3615  0.2268
 5691TIP3    H238489   5.834   6.056   2.308  3.2596  1.5724 -0.7239
 5692TIP3   OH238490   4.079   4.796   1.444 -0.0152  0.7768 -0.4018
 5692TIP3    H138491   4.166   4.833   1.459  0.4771 -0.4562 -0.0440
 5692TIP3    H238492   4.083   4.759   1.356  0.3687 -0.6739  0.2015
 5693TIP3   OH238493   4.625   4.066   5.599 -0.0514 -0.5227 -0.3340
 5693TIP3    H138494   4.697   4.125   5.621 -1.6970  0.9503  1.5973
 5693TIP3    H238495   4.662   3.978   5.606  1.5897  0.1814  0.4746
 5694TIP3   OH238496   3.514   5.784   6.856  0.1606 -0.0265  0.1724
 5694TIP3    H138497   3.481   5.713   6.799  0.1377 -0.6329  0.9305
 5694TIP3    H238498   3.568   5.838   6.798  0.9731 -1.2115 -0.2037
 5695TIP3   OH238499   1.079   3.810  12.667  0.2093 -0.0631  0.4919
 5695TIP3    H138500   1.175   3.812  12.671  0.1856 -0.6448  2.4756
 5695TIP3    H238501   1.059   3.794  12.575  1.9738  1.2865 -0.1848
 5696TIP3   OH238502   2.948   1.937  15.843  0.3116  0.3678  0.0117
 5696TIP3    H138503   2.982   1.987  15.770 -0.7784 -1.1439 -1.6079
 5696TIP3    H238504   3.025   1.892  15.879  1.1672  2.5026  1.0289
 5697TIP3   OH238505   6.442   0.528  14.785 -0.1873 -0.3029 -0.0572
 5697TIP3    H138506   6.396   0.603  14.748  1.3253  0.3921 -0.6185
 5697TIP3    H238507   6.443   0.545  14.880 -0.7358 -0.1481 -0.0774
 5698TIP3   OH238508   2.415   0.532  17.099  0.2530 -0.0778  0.1984
 5698TIP3    H138509   2.366   0.584  17.035  0.5099 -0.7630 -0.5668
 5698TIP3    H238510   2.473   0.595  17.142 -0.8816  0.6460  0.7277
 5699TIP3   OH238511   0.091   1.517   4.282  0.9370 -0.2475 -0.2693
 5699TIP3    H138512   0.057   1.562   4.360 -0.0895 -2.6240  0.7539
 5699TIP3    H238513   0.113   1.430   4.313  0.2037 -1.3843 -2.7257
 5700TIP3   OH238514   4.554   4.160  13.351  0.0724  0.3041 -0.2760
 5700TIP3    H138515   4.505   4.176  13.270  0.2715 -2.0684 -0.9395
 5700TIP3    H238516   4.500   4.097  13.400  0.9568  0.0783  0.4393
 5701TIP3   OH238517   0.213   3.452   0.266 -0.6350  0.0840 -0.4846
 5701TIP3    H138518   0.255   3.418   0.188 -0.7850  1.7833 -1.3594
 5701TIP3    H238519   0.286   3.471   0.326 -0.4813 -0.7044 -0.4117
 5702TIP3   OH238520   0.807   5.378  15.882  0.1254  0.6556 -0.2911
 5702TIP3    H138521   0.753   5.453  15.854  0.2935  0.6945 -0.5117
 5702TIP3    H238522   0.751   5.330  15.944 -0.2885  0.5068 -0.7802
 5703TIP3   OH238523   2.728   6.543   2.797  0.0536 -0.8298 -0.0702
 5703TIP3    H138524   2.652   6.523   2.852 -0.2660 -0.7044 -0.4596
 5703TIP3    H238525   2.694   6.604   2.732  0.8044  0.3362  0.5909
 5704TIP3   OH238526   3.330   4.791   3.805  0.4530 -0.0341 -0.1586
 5704TIP3    H138527   3.356   4.782   3.713  0.5845  0.6551 -0.1988
 5704TIP3    H238528   3.384   4.727   3.851  0.7222 -0.0630 -0.5068
 5705TIP3   OH238529   1.943   5.285   0.150 -0.5097 -0.1448  0.4172
 5705TIP3    H138530   1.860   5.251   0.185 -0.0412 -2.6162 -0.6504
 5705TIP3    H238531   1.918   5.364   0.103 -2.7156 -1.9236 -1.6701
 5706TIP3   OH238532   2.501   5.435   0.126 -0.5509  0.3346  0.3191
 5706TIP3    H138533   2.511   5.372   0.054 -0.5424 -0.8712  1.3347
 5706TIP3    H238534   2.562   5.505   0.105 -0.8154  0.1959 -1.0301
 5707TIP3   OH238535   5.351   3.525  15.572 -0.1478 -0.0159 -0.2369
 5707TIP3    H138536   5.420   3.536  15.507 -1.1521 -1.4377 -1.5978
 5707TIP3    H238537   5.357   3.604  15.626  1.3103  0.7667 -1.4644
 5708TIP3   OH238538   1.849   0.195   5.251 -0.4039  0.5514  0.0351
 5708TIP3    H138539   1.905   0.272   5.258 -1.0327  0.9880  0.2807
 5708TIP3    H238540   1.795   0.211   5.173  0.8974 -0.5951 -1.1733
 5709TIP3   OH238541   2.002   6.506  15.105  0.2613 -0.4966  0.5065
 5709TIP3    H138542   1.955   6.585  15.130  2.2928  0.9347  0.0721
 5709TIP3    H238543   2.072   6.498  15.170  1.6576 -0.4085 -0.9084
 5710TIP3   OH238544   2.549   5.263  13.629  0.1330  0.5370  0.7048
 5710TIP3    H138545   2.627   5.316  13.621  0.1578  0.3650 -0.2695
 5710TIP3    H238546   2.560   5.193  13.564 -1.2832  1.1027 -0.1911
 5711TIP3   OH238547   3.224   0.952   5.372  0.0303 -0.4734  0.0196
 5711TIP3    H138548   3.144   0.997   5.342  1.2559  2.7578  1.1006
 5711TIP3    H238549   3.285   1.023   5.392  2.3514 -2.7341  1.6078
 5712TIP3   OH238550   4.197   1.790   3.480  0.0174  0.4674 -0.4233
 5712TIP3    H138551   4.231   1.810   3.393  0.0368  1.0137 -0.2890
 5712TIP3    H238552   4.221   1.698   3.494  0.8432  0.6565 -0.6024
 5713TIP3   OH238553   3.694   3.008  12.752  0.3045  0.4188  0.5451
 5713TIP3    H138554   3.600   3.028  12.746 -0.5747 -3.3541 -1.4369
 5713TIP3    H238555   3.699   2.943  12.823  1.3874  0.4835  0.5326
 5714TIP3   OH238556   2.941   1.671  16.488 -0.4029  0.0084  0.6998
 5714TIP3    H138557   2.979   1.590  16.521  1.8350  0.5111 -0.4367
 5714TIP3    H238558   3.009   1.709  16.432 -2.2498  1.5157 -0.6801
 5715TIP3   OH238559   3.585   2.317  13.604  0.2463  0.4005  0.4932
 5715TIP3    H138560   3.634   2.325  13.686  0.0802  0.6466  0.5677
 5715TIP3    H238561   3.572   2.407  13.574  0.0648  0.3227  0.3381
 5716TIP3   OH238562   4.092   4.556  16.201  0.4421 -0.4028  0.1915
 5716TIP3    H138563   4.101   4.469  16.163 -2.2175 -1.3618  1.4750
 5716TIP3    H238564   4.038   4.604  16.138  0.6945 -0.1745  0.1509
 5717TIP3   OH238565   6.677   5.654   0.176  0.3506 -0.0251 -0.2315
 5717TIP3    H138566   6.583   5.670   0.186 -0.0039 -0.0405 -2.8576
 5717TIP3    H238567   6.706   5.718   0.111  1.8662 -0.9503 -0.5312
 5718TIP3   OH238568   1.523   2.034   3.833 -0.3188  0.0228  0.1828
 5718TIP3    H138569   1.450   2.095   3.824  1.0484  2.1522  2.1680
 5718TIP3    H238570   1.498   1.976   3.906  0.6831  2.1383  2.3687
 5719TIP3   OH238571   1.851   2.122   4.986  0.2485 -0.3076  0.0955
 5719TIP3    H138572   1.849   2.065   4.909  2.0554 -0.8669  0.4204
 5719TIP3    H238573   1.860   2.062   5.060 -2.0803  0.1853  0.8587
 5720TIP3   OH238574   2.582   0.819   1.549  0.0952  0.5638  0.8166
 5720TIP3    H138575   2.661   0.773   1.520  1.3169  1.5984  2.3589
 5720TIP3    H238576   2.581   0.900   1.499 -1.8127 -0.7849 -1.5657
 5721TIP3   OH238577   1.650   6.010   5.892 -0.2055 -0.0787 -0.0421
 5721TIP3    H138578   1.577   5.949   5.894  0.3955 -0.8618 -0.9572
 5721TIP3    H238579   1.728   5.954   5.895  0.4384  0.7859  2.9432
 5722TIP3   OH238580   3.259   6.615   3.512 -0.2517 -0.0545 -0.1885
 5722TIP3    H138581   3.301   6.660   3.586 -0.7006  1.0069 -0.5558
 5722TIP3    H238582   3.267   6.677   3.439 -2.0261 -0.0212 -0.3878
 5723TIP3   OH238583   3.731   5.760  16.219  0.9040 -0.5883 -0.4295
 5723TIP3    H138584   3.718   5.680  16.169  0.2599  0.0968 -1.3864
 5723TIP3    H238585   3.825   5.773  16.221  1.0436 -1.5784  0.0963
 5724TIP3   OH238586   5.614   0.640  16.292 -0.0599  0.3592  0.0731
 5724TIP3    H138587   5.590   0.628  16.200  0.2598  0.6855 -0.0584
 5724TIP3    H238588   5.710   0.637  16.292  0.0199 -4.7678  1.0921
 5725TIP3   OH238589   4.244   1.066  14.625 -0.2406  0.3719  0.2671
 5725TIP3    H138590   4.266   1.148  14.669  0.0263 -0.0396  0.9202
 5725TIP3    H238591   4.256   0.999  14.692 -3.6594  0.0931  0.7760
 5726TIP3   OH238592   4.063   0.783  11.515  0.0144 -0.0531  0.0133
 5726TIP3    H138593   4.145   0.742  11.489  1.4541  0.2460  3.5528
 5726TIP3    H238594   3.998   0.744  11.456  2.6223 -0.0380 -3.1708
 5727TIP3   OH238595   4.281   3.798  15.802  0.1392 -0.5619  0.4953
 5727TIP3    H138596   4.266   3.842  15.885 -0.3876 -0.2311  0.2286
 5727TIP3    H238597   4.313   3.867  15.743 -2.2205 -0.1278 -0.3907
 5728TIP3   OH238598   3.683   1.113   5.661 -0.3994 -0.5204  0.1424
 5728TIP3    H138599   3.678   1.198   5.704  0.1589  0.0464 -0.8746
 5728TIP3    H238600   3.750   1.065   5.710  1.3146  0.6512 -0.9079
 5729TIP3   OH238601   4.791   1.996  13.906  0.3109 -0.5903  0.1740
 5729TIP3    H138602   4.786   1.927  13.971 -0.1196  0.8513  1.7341
 5729TIP3    H238603   4.841   2.066  13.948 -0.3002  0.5346 -0.8926
 5730TIP3   OH238604   5.076   0.184  16.348 -0.0651 -0.0262  0.4096
 5730TIP3    H138605   5.139   0.218  16.412  1.2068 -2.8229  0.7821
 5730TIP3    H238606   5.044   0.102  16.386 -1.0911 -0.5748 -1.4828
 5731TIP3   OH238607   3.737   1.052   0.803 -0.2037 -0.9150 -0.7532
 5731TIP3    H138608   3.646   1.024   0.793 -0.1587 -0.8262 -1.5080
 5731TIP3    H238609   3.785   1.002   0.737  0.0085  0.3302 -1.5856
 5732TIP3   OH238610   5.875   1.301   4.606  0.2997  0.0600 -0.0048
 5732TIP3    H138611   5.952   1.357   4.608 -1.5125  2.8084 -0.7903
 5732TIP3    H238612   5.871   1.269   4.516  0.0982  0.6642 -0.2225
 5733TIP3   OH238613   3.566   5.035   0.224  0.3977  0.1117  0.6390
 5733TIP3    H138614   3.544   4.968   0.289  0.6919 -0.2292  0.3932
 5733TIP3    H238615   3.508   5.016   0.150  0.1614  0.4115  0.7488
 5734TIP3   OH238616   0.513   2.557   4.465 -0.4293  0.0039  1.0445
 5734TIP3    H138617   0.546   2.643   4.490  1.7367 -1.1772  2.6356
 5734TIP3    H238618   0.585   2.517   4.417 -0.8040 -1.4495  1.6361
 5735TIP3   OH238619   4.484   5.633   6.464 -0.5950  0.7691 -0.3813
 5735TIP3    H138620   4.494   5.550   6.417 -0.5897  1.0342 -0.8513
 5735TIP3    H238621   4.519   5.699   6.405  0.8961  0.9417  0.6234
 5736TIP3   OH238622   6.556   2.871   3.178 -0.2127  0.2510 -0.3601
 5736TIP3    H138623   6.524   2.920   3.102 -4.3480 -0.6609  0.5487
 5736TIP3    H238624   6.524   2.782   3.165  1.0266 -0.5166  1.3672
 5737TIP3   OH238625   2.128   2.428  12.991 -0.1397 -0.0062  0.4489
 5737TIP3    H138626   2.129   2.372  13.068 -1.1621  0.3875  0.7642
 5737TIP3    H238627   2.122   2.517  13.026 -0.5141  0.1804 -0.0771
 5738TIP3   OH238628   0.539   3.725  16.471 -0.9258 -0.1110  0.3133
 5738TIP3    H138629   0.611   3.687  16.422 -1.4182  0.1265 -0.6134
 5738TIP3    H238630   0.464   3.668  16.453 -1.6905  1.2757 -1.1407
 5739TIP3   OH238631   1.275   1.884   1.992 -0.1740 -0.5365 -0.2011
 5739TIP3    H138632   1.301   1.855   2.079 -0.3843 -0.8438 -0.2395
 5739TIP3    H238633   1.184   1.913   2.003  0.2476  0.7825 -0.0081
 5740TIP3   OH238634   5.900   4.368   1.812  0.5483  0.8595  0.0111
 5740TIP3    H138635   5.842   4.415   1.752 -0.2912  1.4171  1.2309
 5740TIP3    H238636   5.852   4.287   1.831  1.0481  0.4477 -0.4540
 5741TIP3   OH238637   2.427   2.916  11.669 -0.2798 -0.2110  0.3039
 5741TIP3    H138638   2.484   2.967  11.612  0.5815 -1.9533 -0.4483
 5741TIP3    H238639   2.394   2.980  11.733  1.8597  1.0069  0.2820
 5742TIP3   OH238640   0.326   4.411  15.857  0.2301  0.0873 -0.3708
 5742TIP3    H138641   0.377   4.477  15.903  1.8107 -0.9999 -0.4743
 5742TIP3    H238642   0.318   4.339  15.920 -0.3788 -0.1327 -0.6903
 5743TIP3   OH238643   5.836   3.464   5.114 -0.2463  0.1743  0.6269
 5743TIP3    H138644   5.877   3.520   5.180  0.7313  0.0009  0.1848
 5743TIP3    H238645   5.801   3.390   5.163  0.0074  0.3067  1.0037
 5744TIP3   OH238646   4.084   2.328   4.374 -0.2818  0.8623  0.2918
 5744TIP3    H138647   4.143   2.384   4.424 -3.1025  1.8815  2.8362
 5744TIP3    H238648   4.088   2.363   4.285  1.6989  1.8715  0.7077
 5745TIP3   OH238649   2.384   1.813   2.990  0.0505 -0.2122  0.2422
 5745TIP3    H138650   2.429   1.818   2.906  2.7411  0.7553  1.6061
 5745TIP3    H238651   2.391   1.721   3.016  2.8276  0.1601  1.1167
 5746TIP3   OH238652   0.002   6.293   2.389  0.1999 -0.4429  0.2973
 5746TIP3    H138653  -0.090   6.278   2.366  0.7195 -0.8549 -1.7794
 5746TIP3    H238654   0.018   6.385   2.367  0.0572 -0.0994  1.5813
 5747TIP3   OH238655   0.146   3.049   1.317 -0.3614 -0.2184  0.6386
 5747TIP3    H138656   0.095   3.104   1.377 -0.4127 -0.2634  0.6368
 5747TIP3    H238657   0.201   2.996   1.374 -1.2650 -1.1099  0.7056
 5748TIP3   OH238658   2.535   0.400   0.109 -0.5656  0.3665 -0.2010
 5748TIP3    H138659   2.449   0.379   0.071 -0.1196 -2.5917  0.1857
 5748TIP3    H238660   2.596   0.391   0.036 -0.4443  1.3940 -0.2355
 5749TIP3   OH238661   1.831   3.888  12.854  0.2585  0.2452  0.0003
 5749TIP3    H138662   1.910   3.864  12.902  0.1017 -2.0885 -0.7878
 5749TIP3    H238663   1.862   3.904  12.764  0.1424  1.7109  0.1984
 5750TIP3   OH238664   3.518   6.342   5.580 -0.3205  0.0489 -1.0090
 5750TIP3    H138665   3.530   6.423   5.630  0.9359 -1.7469  1.8722
 5750TIP3    H238666   3.423   6.336   5.568 -0.4001  2.2333 -1.9193
 5751TIP3   OH238667   4.142   1.375  13.263  0.2553 -0.1672  0.1941
 5751TIP3    H138668   4.048   1.383  13.278  0.5266  4.3553  0.6351
 5751TIP3    H238669   4.176   1.337  13.344 -0.8802  1.3495  1.4291
 5752TIP3   OH238670   6.518   1.500   3.847  0.5372 -0.5897 -0.4999
 5752TIP3    H138671   6.609   1.526   3.864  1.0304 -0.7342 -2.6111
 5752TIP3    H238672   6.515   1.407   3.870  0.0969  0.0337  2.3076
 5753TIP3   OH238673   6.458   1.244   1.979  0.4849  0.1496  0.7783
 5753TIP3    H138674   6.406   1.323   1.994 -0.3732 -0.2508  0.0291
 5753TIP3    H238675   6.500   1.226   2.063  0.4633  1.2348  1.0346
 5754TIP3   OH238676   0.526   4.355   5.278  0.0004  0.2436 -0.4664
 5754TIP3    H138677   0.577   4.395   5.348 -2.4122 -0.3753  1.7990
 5754TIP3    H238678   0.442   4.334   5.319 -1.9244  0.7549 -3.8173
 5755TIP3   OH238679   0.833   3.793   6.734 -0.1439  0.0903  0.1505
 5755TIP3    H138680   0.839   3.699   6.714  0.7521 -0.3021  2.0749
 5755TIP3    H238681   0.739   3.812   6.730 -0.2028 -0.4174 -2.1111
 5756TIP3   OH238682   4.931   6.614   4.569  0.3485  0.5847 -0.1177
 5756TIP3    H138683   4.934   6.646   4.659  2.2669 -1.0924  0.5044
 5756TIP3    H238684   4.974   6.683   4.518  1.3941  0.5306  0.6526
 5757TIP3   OH238685   3.009   6.466   3.547 -0.4945 -0.4080 -0.2277
 5757TIP3    H138686   3.094   6.502   3.570 -0.0361 -1.4738 -0.2239
 5757TIP3    H238687   3.004   6.476   3.452 -0.2289 -0.6181 -0.2659
 5758TIP3   OH238688   2.077   6.032   2.418  0.4672  0.3440 -0.4494
 5758TIP3    H138689   2.044   6.100   2.359 -0.2361 -0.8518 -1.4792
 5758TIP3    H238690   2.156   5.999   2.375  0.1855 -0.2466 -0.5192
 5759TIP3   OH238691   1.367   2.457   5.921  0.3207 -0.3786  0.4228
 5759TIP3    H138692   1.278   2.492   5.915  0.6924  0.9406  1.8934
 5759TIP3    H238693   1.418   2.510   5.860  0.0353 -1.5100 -0.8511
 5760TIP3   OH238694   0.107   0.945   4.904  0.1173 -0.1891  0.1307
 5760TIP3    H138695   0.117   1.033   4.940 -1.9945  0.0595  0.2519
 5760TIP3    H238696   0.143   0.887   4.971 -1.3941  0.4245  1.5559
 5761TIP3   OH238697   5.208   1.186  10.956 -0.3119 -0.3108  0.1629
 5761TIP3    H138698   5.228   1.105  10.910  2.0952  0.8578 -1.0305
 5761TIP3    H238699   5.259   1.181  11.036  0.8364  0.5008 -0.4901
 5762TIP3   OH238700   0.632   3.627  11.656  0.1462  0.0423 -0.1593
 5762TIP3    H138701   0.537   3.633  11.671 -0.2970 -1.3021 -2.0176
 5762TIP3    H238702   0.651   3.534  11.660  1.6031  0.3617  1.0585
 5763TIP3   OH238703   0.078   3.468   4.047  0.1856  0.3429  0.0117
 5763TIP3    H138704   0.167   3.432   4.051  0.4592  0.7730 -1.5677
 5763TIP3    H238705   0.021   3.394   4.067  0.8585 -0.2086 -0.0817
 5764TIP3   OH238706   4.541   3.764   2.675 -0.1456 -0.4228  0.0267
 5764TIP3    H138707   4.456   3.770   2.718 -0.0590  0.3069  0.1012
 5764TIP3    H238708   4.572   3.675   2.695 -1.2901 -1.0189 -0.7732
 5765TIP3   OH238709   1.812   2.831  16.455  0.3297  0.0635  0.5781
 5765TIP3    H138710   1.874   2.896  16.422 -0.7046  1.1433  0.6962
 5765TIP3    H238711   1.780   2.787  16.376  0.7514 -0.0446  0.4646
 5766TIP3   OH238712   4.658   2.412   4.496  0.1090  0.4164  0.3196
 5766TIP3    H138713   4.721   2.346   4.526 -1.5343 -1.2228  0.4089
 5766TIP3    H238714   4.606   2.432   4.574  0.1225  1.2863  0.1140
 5767TIP3   OH238715   1.024   4.112  14.176  0.0390  0.2925 -0.2845
 5767TIP3    H138716   0.949   4.166  14.201  0.5336  0.2337  1.4694
 5767TIP3    H238717   0.993   4.063  14.100 -0.9318  1.8973 -1.0032
 5768TIP3   OH238718   6.500   1.358  13.647  0.1877 -0.8278 -0.4206
 5768TIP3    H138719   6.416   1.312  13.654 -0.5130  0.5186  0.6696
 5768TIP3    H238720   6.535   1.332  13.562 -2.6480  0.5725 -2.1862
 5769TIP3   OH238721   2.474   2.173  15.245  0.4176 -0.2233  0.2121
 5769TIP3    H138722   2.463   2.258  15.201 -0.4193 -1.3469 -1.9374
 5769TIP3    H238723   2.556   2.138  15.210  0.4944 -0.5262  0.6874
 5770TIP3   OH238724   1.141   4.017  14.411 -0.2257 -0.2212  0.1137
 5770TIP3    H138725   1.094   4.057  14.337 -0.1087 -0.6501 -0.1978
 5770TIP3    H238726   1.188   4.089  14.452  0.8720 -0.2022 -1.1101
 5771TIP3   OH238727   0.791   4.471   3.336  0.3207 -0.2645 -0.5951
 5771TIP3    H138728   0.791   4.567   3.343 -0.4687 -0.3427  0.9941
 5771TIP3    H238729   0.775   4.441   3.426 -0.5294 -1.8689 -1.2493
 5772TIP3   OH238730   2.985   4.967  13.684  0.6735  0.5273  0.5626
 5772TIP3    H138731   2.938   5.051  13.677  0.1403  0.1649 -0.4173
 5772TIP3    H238732   2.946   4.913  13.615 -0.8223 -1.4238  2.7787
 5773TIP3   OH238733   4.606   1.000   5.319  0.4273  0.2053 -0.1484
 5773TIP3    H138734   4.677   1.032   5.264 -1.0095  0.1285 -2.1847
 5773TIP3    H238735   4.533   1.060   5.302 -1.2108 -1.9542 -1.2808
 5774TIP3   OH238736   6.507   3.850   2.769 -0.2621 -0.2374 -0.6330
 5774TIP3    H138737   6.468   3.897   2.695 -0.0366  0.3361 -0.3927
 5774TIP3    H238738   6.479   3.759   2.757 -1.3868  0.0987 -0.6405
 5775TIP3   OH238739   3.167   3.413  14.297 -0.5286  0.4822  0.2509
 5775TIP3    H138740   3.131   3.336  14.254 -0.2882  0.3476  0.2884
 5775TIP3    H238741   3.118   3.421  14.379  1.4250 -1.3879  1.7087
 5776TIP3   OH238742   1.832   1.976   0.392 -0.2686  0.1677 -0.0416
 5776TIP3    H138743   1.922   1.962   0.421 -0.1700 -0.1862 -0.5041
 5776TIP3    H238744   1.779   1.924   0.453 -0.0616 -0.5894 -0.4947
 5777TIP3   OH238745   0.039   5.458  14.354  0.3646 -0.1522 -0.4488
 5777TIP3    H138746  -0.050   5.448  14.388  0.4779 -1.3563 -0.4390
 5777TIP3    H238747   0.031   5.446  14.260  0.2993  1.4164 -0.6649
 5778TIP3   OH238748   2.481   0.019  13.731 -0.4130  0.4569  0.1833
 5778TIP3    H138749   2.402   0.060  13.697 -1.3531 -2.9953 -2.4270
 5778TIP3    H238750   2.512  -0.036  13.659  2.1753 -1.2785  2.4119
 5779TIP3   OH238751   4.653   4.859   2.680 -0.4363 -0.7735  0.0187
 5779TIP3    H138752   4.650   4.851   2.584  0.9924  0.7686 -0.1849
 5779TIP3    H238753   4.642   4.769   2.711  3.7214 -2.1183 -1.7339
 5780TIP3   OH238754   1.230   0.855   0.901  0.0286  0.4184 -0.0628
 5780TIP3    H138755   1.265   0.800   0.831  0.9341 -0.4097  0.9906
 5780TIP3    H238756   1.138   0.829   0.907  0.3966 -0.9274  0.3047
 5781TIP3   OH238757   4.446   5.802   0.956 -0.0751  0.0206  0.6737
 5781TIP3    H138758   4.471   5.877   0.901 -0.2533 -0.9581 -0.8050
 5781TIP3    H238759   4.380   5.837   1.016  0.9570  1.3973  1.0777
 5782TIP3   OH238760   3.229   4.623  14.497 -0.4047 -0.1474  0.3272
 5782TIP3    H138761   3.176   4.647  14.421 -0.1321  0.5870  0.3669
 5782TIP3    H238762   3.302   4.574  14.461 -0.1616  0.3856  0.0885
 5783TIP3   OH238763   3.709   5.512   5.385 -0.1559  0.0669  0.3741
 5783TIP3    H138764   3.682   5.578   5.321  0.8407 -0.6952 -0.8709
 5783TIP3    H238765   3.632   5.499   5.440 -1.6724 -0.5481 -1.7590
 5784TIP3   OH238766   1.668   3.030  11.735 -0.1413 -0.3517  0.2967
 5784TIP3    H138767   1.667   2.937  11.759 -0.0526 -0.8192 -1.3739
 5784TIP3    H238768   1.662   3.077  11.819  2.0244 -1.8229  1.3745
 5785TIP3   OH238769   3.685   2.485  15.421  1.0066  0.0816 -0.2300
 5785TIP3    H138770   3.723   2.537  15.351  2.2142 -1.7931 -1.0534
 5785TIP3    H238771   3.611   2.440  15.379 -0.5657  1.7014  0.6880
 5786TIP3   OH238772   3.001   5.216  13.299  0.1787 -0.1833 -0.3902
 5786TIP3    H138773   3.056   5.288  13.331 -0.9345  1.5829 -2.2235
 5786TIP3    H238774   2.912   5.246  13.313 -0.3427 -1.7281 -0.2083
 5787TIP3   OH238775   5.529   5.183  14.386  0.1909  0.3705 -0.1330
 5787TIP3    H138776   5.514   5.092  14.361  0.1527  0.3839 -0.1579
 5787TIP3    H238777   5.624   5.195  14.381  0.1587  0.4612 -0.5700
 5788TIP3   OH238778   5.155   4.396  15.945  0.3037  0.0028  0.2225
 5788TIP3    H138779   5.104   4.330  15.898  0.4048 -1.5569  2.1627
 5788TIP3    H238780   5.090   4.451  15.988  0.1792 -1.0641  1.4731
 5789TIP3   OH238781   5.696   5.704  13.954  0.1164 -0.2691 -0.2006
 5789TIP3    H138782   5.757   5.775  13.936  0.8790 -0.2349  2.1165
 5789TIP3    H238783   5.719   5.674  14.042 -1.3577 -2.1975 -0.3848
 5790TIP3   OH238784   4.116   4.420  14.126  0.3327  0.5037  0.1999
 5790TIP3    H138785   4.061   4.448  14.053  0.2441  0.6946  0.3404
 5790TIP3    H238786   4.205   4.440  14.097  0.3101  0.4330  0.0793
 5791TIP3   OH238787   4.166   1.116  16.815 -0.0470 -0.3394 -0.6079
 5791TIP3    H138788   4.074   1.101  16.792  0.2711 -3.7881 -0.1340
 5791TIP3    H238789   4.204   1.157  16.737 -1.4558 -1.2017 -1.7931
 5792TIP3   OH238790   4.838   1.719   1.264  0.3321  0.3297 -0.1349
 5792TIP3    H138791   4.769   1.660   1.233 -0.2729  1.0134 -0.0994
 5792TIP3    H238792   4.848   1.783   1.194 -2.3258  2.9951  1.7330
 5793TIP3   OH238793   1.634   1.884  17.046  0.1768 -0.5102  0.7597
 5793TIP3    H138794   1.684   1.807  17.073 -0.3403 -1.1982 -0.2171
 5793TIP3    H238795   1.557   1.849  17.002  0.1101  0.5690 -0.0082
 5794TIP3   OH238796   6.735   5.508   4.072 -0.4570  0.2227  0.2507
 5794TIP3    H138797   6.759   5.593   4.109  1.5471 -0.2427  0.1408
 5794TIP3    H238798   6.792   5.498   3.996  0.3456 -1.7987  1.0523
 5795TIP3   OH238799   4.869   4.439  12.437  0.3710 -0.2639  0.3715
 5795TIP3    H138800   4.779   4.446  12.406  0.1113 -1.2795  0.8396
 5795TIP3    H238801   4.861   4.405  12.526  1.2166 -0.2684  0.4581
 5796TIP3   OH238802   3.093   0.296  14.623  0.0632  0.4450  0.2189
 5796TIP3    H138803   3.034   0.261  14.557 -0.6578 -2.1724  2.0781
 5796TIP3    H238804   3.046   0.371  14.661 -0.5782  0.4415 -0.5494
 5797TIP3   OH238805   3.955   0.517  12.051  0.4602 -0.9794 -0.2083
 5797TIP3    H138806   4.006   0.537  11.972  0.9657 -2.6809 -0.3567
 5797TIP3    H238807   3.915   0.433  12.032  0.3188 -1.2558  1.2366
 5798TIP3   OH238808   5.323   2.650  13.712 -0.6209  0.0928  0.2083
 5798TIP3    H138809   5.381   2.705  13.660  0.3942 -0.0406  1.1679
 5798TIP3    H238810   5.314   2.696  13.795 -1.7335  0.0009  0.1588
 5799TIP3   OH238811   3.720   4.701  15.298  0.3004  0.1948  0.5226
 5799TIP3    H138812   3.714   4.610  15.327 -0.7735 -0.0826 -0.5007
 5799TIP3    H238813   3.642   4.744  15.334  0.1120  0.3800 -0.0932
 5800TIP3   OH238814   1.762   0.760   3.636 -0.2392 -0.5843 -0.4681
 5800TIP3    H138815   1.712   0.829   3.677 -0.1235 -1.5143  1.3161
 5800TIP3    H238816   1.699   0.716   3.578 -0.2956  0.9849 -1.6695
 5801TIP3   OH238817   2.859   6.289  16.858  0.3414  0.4001  0.2318
 5801TIP3    H138818   2.819   6.367  16.898  0.8235  0.3986  0.7144
 5801TIP3    H238819   2.785   6.230  16.843  0.2056  0.2020  1.5525
 5802TIP3   OH238820   3.162   5.525   4.240 -0.1772  0.6941  0.2442
 5802TIP3    H138821   3.095   5.521   4.308 -0.6114 -1.8855 -0.2177
 5802TIP3    H238822   3.236   5.476   4.276  0.2078  0.7107 -0.5029
 5803TIP3   OH238823   4.488   4.308  16.707  0.4790 -0.3872  0.6008
 5803TIP3    H138824   4.496   4.215  16.688 -1.4667 -0.6449  0.7926
 5803TIP3    H238825   4.533   4.351  16.634 -0.1521 -1.4674 -0.4708
 5804TIP3   OH238826   0.741   2.542  14.523  0.5262  0.8614  0.2707
 5804TIP3    H138827   0.709   2.517  14.609 -1.4308 -0.2172 -0.6907
 5804TIP3    H238828   0.680   2.499  14.462  2.5256  0.6175 -1.6694
 5805TIP3   OH238829   5.668   2.023   2.062 -0.0088 -0.3728 -0.1746
 5805TIP3    H138830   5.696   2.045   1.974 -0.1069  0.6271  0.0299
 5805TIP3    H238831   5.669   1.927   2.065 -0.4803 -0.4286 -1.4065
 5806TIP3   OH238832   1.658   4.667  13.964  0.2984  0.6871 -0.2897
 5806TIP3    H138833   1.703   4.658  14.048  0.3201  1.6166 -0.1908
 5806TIP3    H238834   1.618   4.581  13.949  0.2279  0.5321  0.7001
 5807TIP3   OH238835   2.141   2.642   0.061  0.2696 -0.2996  0.2658
 5807TIP3    H138836   2.112   2.733   0.052  0.3764 -0.3388 -0.6001
 5807TIP3    H238837   2.092   2.595  -0.007 -0.8412 -1.1527  1.5956
 5808TIP3   OH238838   1.797   3.968  11.662  0.3134  0.0405  1.1209
 5808TIP3    H138839   1.822   3.882  11.631  0.1367  1.1799 -2.6620
 5808TIP3    H238840   1.861   3.989  11.730 -0.1345 -3.2615  2.7749
 5809TIP3   OH238841   0.453   1.917  14.229 -0.3031  0.1658  0.0009
 5809TIP3    H138842   0.391   1.844  14.233 -0.5202  0.3438 -0.1717
 5809TIP3    H238843   0.474   1.935  14.320  0.2886 -0.5760  0.0247
 5810TIP3   OH238844   4.804   5.860  13.824  0.0908 -0.5425 -0.3143
 5810TIP3    H138845   4.727   5.803  13.816 -1.0101  0.1945  3.2067
 5810TIP3    H238846   4.784   5.935  13.766  0.0604 -2.1125 -2.4534
 5811TIP3   OH238847   2.583   0.797  16.184  0.5102  0.6408  0.2171
 5811TIP3    H138848   2.497   0.768  16.153  0.2025  1.5885  0.1472
 5811TIP3    H238849   2.564   0.874  16.238  1.1108 -0.4349  2.0665
 5812TIP3   OH238850   2.955   4.036  12.229  0.5408  0.5661  0.6397
 5812TIP3    H138851   2.941   4.129  12.215  4.5402  1.4815  1.3677
 5812TIP3    H238852   3.014   4.010  12.158 -1.2749 -1.7500 -0.1471
 5813TIP3   OH238853   5.523   0.203   1.990  0.3408 -0.3888  0.5136
 5813TIP3    H138854   5.554   0.207   1.899  0.4794 -2.0920  0.4485
 5813TIP3    H238855   5.451   0.266   1.993  0.1007 -0.5568 -0.8751
 5814TIP3   OH238856   1.326   3.880  13.908 -0.1283  0.2358 -0.1463
 5814TIP3    H138857   1.340   3.822  13.983  0.6185  1.2526  0.5267
 5814TIP3    H238858   1.303   3.965  13.947 -3.4359 -0.0728 -1.1187
 5815TIP3   OH238859   6.445   6.314   0.423 -0.0994  1.0762  0.1758
 5815TIP3    H138860   6.484   6.280   0.343 -1.6316  1.8449 -0.9607
 5815TIP3    H238861   6.353   6.329   0.400 -0.3844  2.1267  1.8287
 5816TIP3   OH238862   2.207   6.097  12.928  0.1282 -0.0576  0.1974
 5816TIP3    H138863   2.188   6.010  12.962  1.2612 -0.1990  0.5043
 5816TIP3    H238864   2.135   6.116  12.868 -1.7607  0.0661  2.3883
 5817TIP3   OH238865   1.433   4.716   1.803 -0.2506 -0.2960  0.6123
 5817TIP3    H138866   1.410   4.633   1.846  1.7932 -0.2449  1.9479
 5817TIP3    H238867   1.447   4.693   1.711  0.3591 -1.4768  0.9745
 5818TIP3   OH238868   6.131   2.558  13.354 -0.3491 -0.5082 -0.0281
 5818TIP3    H138869   6.092   2.646  13.353 -0.6334 -0.6041  1.0476
 5818TIP3    H238870   6.184   2.555  13.275 -0.2349  0.6874 -0.0286
 5819TIP3   OH238871   2.094   0.341   2.735 -0.4990 -0.0260  0.0230
 5819TIP3    H138872   2.137   0.410   2.785 -0.0124 -1.1653  1.2384
 5819TIP3    H238873   2.044   0.388   2.668  0.8092  1.4339  0.0133
 5820TIP3   OH238874   6.629   6.709  11.334  0.2744 -0.1020  0.7359
 5820TIP3    H138875   6.692   6.739  11.400  2.1326 -3.2489  0.5883
 5820TIP3    H238876   6.616   6.617  11.354 -1.4415 -0.4328 -1.5513
 5821TIP3   OH238877   3.768   0.792   5.875 -0.2054  0.1531  0.0162
 5821TIP3    H138878   3.822   0.845   5.816 -0.9094  1.8651  0.8331
 5821TIP3    H238879   3.727   0.856   5.934 -1.8359 -1.2258  0.4702
 5822TIP3   OH238880   1.045   0.608   2.142  0.1072  0.0597 -0.4729
 5822TIP3    H138881   1.050   0.565   2.227  0.5115 -2.1838 -1.5603
 5822TIP3    H238882   1.041   0.702   2.162 -0.1563 -0.4319  1.9949
 5823TIP3   OH238883   1.390   1.009   0.268 -0.8006  0.0505  0.3754
 5823TIP3    H138884   1.338   1.071   0.319 -0.7399  0.0757  0.4066
 5823TIP3    H238885   1.475   1.007   0.312 -0.5703  0.4901 -0.0518
 5824TIP3   OH238886   5.908   2.838   1.251 -0.3132 -0.6902 -0.1431
 5824TIP3    H138887   5.959   2.840   1.332  0.4782  1.2087 -0.6389
 5824TIP3    H238888   5.819   2.859   1.279 -0.1298 -0.4692  0.2880
 5825TIP3   OH238889   0.370   4.098  13.549  0.0861  0.2162  0.7216
 5825TIP3    H138890   0.381   4.004  13.540 -1.5283  0.0926 -0.3324
 5825TIP3    H238891   0.376   4.114  13.643 -0.3394 -1.0328  0.9792
 5826TIP3   OH238892   1.627   6.195   0.124 -0.9676 -0.0360 -0.4408
 5826TIP3    H138893   1.601   6.178   0.033  0.2397 -0.0404 -0.7999
 5826TIP3    H238894   1.546   6.185   0.174 -1.8087  0.7145 -1.5994
 5827TIP3   OH238895   3.280   4.662  13.033  0.4133 -0.5849 -0.0074
 5827TIP3    H138896   3.296   4.756  13.045 -0.1787 -0.4510 -0.2504
 5827TIP3    H238897   3.270   4.628  13.122  0.4300 -0.3809  0.0725
 5828TIP3   OH238898   2.381   4.245  14.063  0.3757  0.1640  0.0536
 5828TIP3    H138899   2.324   4.270  13.990  1.8311 -1.6840 -1.8320
 5828TIP3    H238900   2.469   4.271  14.035  1.0523 -1.1605  0.8628
 5829TIP3   OH238901   0.005   4.383  15.172  0.0899  0.0740 -0.3291
 5829TIP3    H138902  -0.026   4.467  15.139 -0.9675  0.0242  0.4613
 5829TIP3    H238903   0.091   4.371  15.133  1.1776  2.4984  1.1124
 5830TIP3   OH238904   3.447   3.737  14.085  0.1439  0.5020  0.2553
 5830TIP3    H138905   3.425   3.827  14.107  2.9718  0.7298  2.7228
 5830TIP3    H238906   3.524   3.716  14.139  0.4399 -2.9533 -1.2035
 5831TIP3   OH238907   6.347   2.993   4.702  0.0184  0.3836  0.2424
 5831TIP3    H138908   6.303   2.918   4.663 -0.5686  1.1480 -0.5984
 5831TIP3    H238909   6.296   3.013   4.780  1.4953 -1.4688  1.7901
 5832TIP3   OH238910   2.505   5.700  17.325  0.0224  0.4624  0.1258
 5832TIP3    H138911   2.549   5.752  17.393 -0.4419  0.6229  0.3057
 5832TIP3    H238912   2.542   5.612  17.335 -0.1913  0.4325  0.7313
 5833TIP3   OH238913   0.182   1.239   0.309  0.0320 -0.0721 -0.4114
 5833TIP3    H138914   0.163   1.304   0.377  0.4800 -0.4389  0.0661
 5833TIP3    H238915   0.272   1.257   0.282  0.4483 -0.9848  0.2917
 5834TIP3   OH238916   2.307   2.597   3.813  0.3279  0.3997  0.2296
 5834TIP3    H138917   2.287   2.507   3.840  0.1463  0.7874  1.4469
 5834TIP3    H238918   2.247   2.614   3.740 -0.4316 -0.0886  0.7252
 5835TIP3   OH238919   5.020   2.850  13.920 -0.3472 -0.2698 -0.2538
 5835TIP3    H138920   5.100   2.869  13.872 -0.1260 -1.9953 -0.6552
 5835TIP3    H238921   4.954   2.909  13.883  0.4096  0.1745 -0.9028
 5836TIP3   OH238922   2.454   4.542  12.730  0.5789 -0.0811 -0.0805
 5836TIP3    H138923   2.528   4.600  12.708 -0.4568  2.2281  2.0305
 5836TIP3    H238924   2.468   4.519  12.821 -0.5223 -0.8768 -0.0984
 5837TIP3   OH238925   1.573   0.357  15.552  0.1322  0.2119 -0.2771
 5837TIP3    H138926   1.546   0.425  15.614 -0.0877 -1.0889  1.1120
 5837TIP3    H238927   1.511   0.366  15.479 -0.8673  0.5293  0.5769
 5838TIP3   OH238928   3.714   3.401  17.043 -0.3588  0.0517  0.1948
 5838TIP3    H138929   3.680   3.465  17.106  1.8855  0.1640  1.4029
 5838TIP3    H238930   3.637   3.351  17.015 -1.6809  1.1238  1.7291
 5839TIP3   OH238931   6.592   3.295  15.768 -0.1576  0.5547  0.2928
 5839TIP3    H138932   6.577   3.257  15.854  0.9907  2.7615  1.5402
 5839TIP3    H238933   6.510   3.341  15.748 -0.2084  0.5500  0.4862
 5840TIP3   OH238934   6.254   6.544   0.988  0.2457 -0.3853 -0.1699
 5840TIP3    H138935   6.209   6.625   1.012 -0.1823 -1.0596  1.4473
 5840TIP3    H238936   6.338   6.573   0.954 -0.7699  0.8298 -1.7926
 5841TIP3   OH238937   6.446   2.198   2.146  0.0273  0.2529 -0.2369
 5841TIP3    H138938   6.416   2.258   2.078 -2.8482 -1.3280 -0.4946
 5841TIP3    H238939   6.465   2.116   2.099 -0.3998 -0.3544  0.6198
 5842TIP3   OH238940   0.993   3.215   4.279  0.5065 -0.1068  0.7759
 5842TIP3    H138941   1.033   3.175   4.356  2.4768  2.2166  1.0700
 5842TIP3    H238942   0.928   3.276   4.315  1.9290  1.5156  0.7455
 5843TIP3   OH238943   6.527   2.833   2.209  0.3624  0.0143 -0.1031
 5843TIP3    H138944   6.511   2.926   2.224 -1.2836 -0.3668  0.7717
 5843TIP3    H238945   6.483   2.789   2.282  3.5554 -1.3759  1.1890
 5844TIP3   OH238946   1.763   3.667   3.380 -0.3125  0.4840 -0.3715
 5844TIP3    H138947   1.752   3.753   3.420  0.7074  1.1176 -1.3964
 5844TIP3    H238948   1.677   3.647   3.343 -0.3656  1.3956 -0.7583
 5845TIP3   OH238949   0.724   1.332   5.614 -0.4152 -0.1490 -0.7915
 5845TIP3    H138950   0.788   1.369   5.553  0.6235  1.0674  0.9516
 5845TIP3    H238951   0.720   1.394   5.686 -2.6628 -0.8278 -0.2321
 5846TIP3   OH238952   4.171   1.931   2.447 -0.3586 -0.7565  0.1786
 5846TIP3    H138953   4.222   1.919   2.366 -0.4468  1.4384 -0.2534
 5846TIP3    H238954   4.080   1.919   2.419 -0.4668  0.9668 -0.3025
 5847TIP3   OH238955   3.503   0.826  14.997  0.0296  0.1905 -0.4947
 5847TIP3    H138956   3.530   0.873  15.076  0.3882 -0.6328 -0.1184
 5847TIP3    H238957   3.582   0.779  14.969 -0.2225  0.1107 -1.0819
 5848TIP3   OH238958   4.014   5.908  15.564  0.4355 -0.0090  0.6194
 5848TIP3    H138959   4.025   5.845  15.493  0.4503  0.0372  0.5815
 5848TIP3    H238960   4.065   5.984  15.538  1.0405 -0.2735  1.0217
 5849TIP3   OH238961   0.064   0.794  11.296  0.9430 -0.1470 -0.6404
 5849TIP3    H138962   0.027   0.847  11.366 -1.9040 -1.7259 -0.8103
 5849TIP3    H238963   0.155   0.778  11.323  1.4369  3.2806  0.2034
 5850TIP3   OH238964   3.240   2.782   4.320  0.2850  0.7169 -0.6891
 5850TIP3    H138965   3.148   2.764   4.301 -0.0960  1.6130  0.1749
 5850TIP3    H238966   3.240   2.869   4.359  1.2194 -0.1108  1.3329
 5851TIP3   OH238967   2.391   1.641   4.439  0.0492 -0.4643  0.1836
 5851TIP3    H138968   2.451   1.651   4.365  5.2784 -1.4894  3.7845
 5851TIP3    H238969   2.384   1.546   4.452 -0.2826 -0.2953  1.3500
 5852TIP3   OH238970   0.628   6.620  16.371  0.1070  0.8459  0.0064
 5852TIP3    H138971   0.656   6.603  16.281  0.4389 -1.5992  0.4840
 5852TIP3    H238972   0.707   6.650  16.416  0.0875  1.4792 -0.3853
 5853TIP3   OH238973   3.757   1.835   0.381  0.3060 -0.0678  0.1634
 5853TIP3    H138974   3.811   1.864   0.454  0.5451  0.4421 -0.2066
 5853TIP3    H238975   3.801   1.870   0.303 -0.1425 -0.2881 -0.1967
 5854TIP3   OH238976   3.428   2.415  17.382 -0.2027  0.3737  0.1450
 5854TIP3    H138977   3.333   2.432  17.387 -1.2148 -4.2772  1.1790
 5854TIP3    H238978   3.446   2.405  17.289 -0.9691  0.3253 -0.0049
 5855TIP3   OH238979   6.113   1.593   2.645 -0.0061 -0.8226 -0.1802
 5855TIP3    H138980   6.171   1.642   2.586  1.5805 -2.7550 -0.3144
 5855TIP3    H238981   6.121   1.639   2.729  1.4835 -0.8564 -0.2814
 5856TIP3   OH238982   5.923   1.304   5.437 -0.2592 -0.5782 -0.1432
 5856TIP3    H138983   5.912   1.371   5.504 -0.2398 -0.0261 -0.6884
 5856TIP3    H238984   6.003   1.328   5.391  0.2247 -1.4660  0.2070
 5857TIP3   OH238985   1.639   5.917  11.474  0.1577  0.0520  0.0972
 5857TIP3    H138986   1.699   5.977  11.518  0.1274 -0.1671  0.4383
 5857TIP3    H238987   1.614   5.963  11.394  0.6201  0.2297  0.0533
 5858TIP3   OH238988   0.310   5.708   5.167  0.0291 -0.0375 -0.1174
 5858TIP3    H138989   0.268   5.726   5.083  0.2445 -0.0448 -0.2282
 5858TIP3    H238990   0.238   5.703   5.229 -0.3048 -1.8968 -0.6067
 5859TIP3   OH238991   0.020   4.065  10.469  0.4292  0.4017 -0.2932
 5859TIP3    H138992  -0.063   4.087  10.512  1.4420  2.8843  0.6320
 5859TIP3    H238993   0.072   4.023  10.537  1.3995  2.7477  0.5204
 5860TIP3   OH238994   5.467   1.803   0.871  0.4000 -0.0617  0.0315
 5860TIP3    H138995   5.400   1.848   0.923  1.0966  0.9112  0.1368
 5860TIP3    H238996   5.474   1.855   0.791  0.0424 -0.9701 -0.5951
 5861TIP3   OH238997   0.993   3.609  14.491 -0.1150  0.4335  0.5219
 5861TIP3    H138998   0.995   3.549  14.566  0.5994 -0.7336 -0.4074
 5861TIP3    H238999   0.901   3.635  14.484 -0.1618  0.7695  1.9392
 5862TIP3   OH239000   4.903   4.415   1.602  0.6220 -0.0681 -0.8118
 5862TIP3    H139001   4.976   4.353   1.596  0.4295 -0.1947 -2.7549
 5862TIP3    H239002   4.825   4.360   1.604  0.4976  0.0792 -1.3735
 5863TIP3   OH239003   4.309   0.988   5.183  0.6706 -0.1408  0.8501
 5863TIP3    H139004   4.342   0.991   5.273  3.4201 -0.4389 -0.0361
 5863TIP3    H239005   4.386   1.009   5.129 -0.7819 -0.3949 -1.4593
 5864TIP3   OH239006   0.972   0.080   0.682 -0.1334 -0.2339 -0.4778
 5864TIP3    H139007   1.056   0.098   0.639  0.2075 -2.1565 -0.6853
 5864TIP3    H239008   0.906   0.110   0.620  0.3813  0.1430 -0.8481
 5865TIP3   OH239009   4.836   4.188   0.327  0.3871  0.3356 -0.3835
 5865TIP3    H139010   4.786   4.122   0.375  0.2694  1.7918  1.6862
 5865TIP3    H239011   4.897   4.138   0.272 -1.4738 -1.4576 -0.9172
 5866TIP3   OH239012   4.151   3.002   5.737 -0.0573  0.4808  0.3917
 5866TIP3    H139013   4.197   2.920   5.720 -1.3106 -0.2081  0.1318
 5866TIP3    H239014   4.201   3.068   5.689  0.7157 -0.2057  0.2256
 5867TIP3   OH239015   1.195   1.617  13.006 -0.0168  0.2267  0.2340
 5867TIP3    H139016   1.209   1.659  12.921  0.0377  0.4931  0.3729
 5867TIP3    H239017   1.198   1.523  12.988  1.8099  0.2511  0.2212
 5868TIP3   OH239018   3.205   3.704   1.701 -0.0676 -0.0130 -0.1923
 5868TIP3    H139019   3.188   3.629   1.644  0.4361  0.3260 -0.8046
 5868TIP3    H239020   3.232   3.774   1.641  1.8868 -0.0596  0.5504
 5869TIP3   OH239021   5.870   2.605  15.075 -0.1412 -0.3524 -0.4017
 5869TIP3    H139022   5.965   2.617  15.079 -0.0614 -0.7738 -1.0090
 5869TIP3    H239023   5.836   2.673  15.133  0.5919 -1.1401  1.0079
 5870TIP3   OH239024   4.776   1.532  14.980 -0.3881 -0.1020  0.5936
 5870TIP3    H139025   4.764   1.623  15.006 -0.2216 -0.4873  2.1324
 5870TIP3    H239026   4.698   1.487  15.012  0.4214 -0.8317  1.5859
 5871TIP3   OH239027   6.209   4.253   2.371  0.5633  0.2054  0.2232
 5871TIP3    H139028   6.262   4.174   2.374 -0.3202 -0.4348 -0.5729
 5871TIP3    H239029   6.231   4.295   2.288  0.8036  0.6515  0.5036
 5872TIP3   OH239030   4.112   3.829  13.527 -0.5092  0.0291  0.2942
 5872TIP3    H139031   4.151   3.872  13.603  3.4123 -0.4993 -1.1778
 5872TIP3    H239032   4.031   3.877  13.511  0.6664  2.9312  2.2846
 5873TIP3   OH239033   6.587   5.502  12.267 -0.1135  0.1505  0.2341
 5873TIP3    H139034   6.546   5.418  12.289 -0.6380  0.4311  0.3514
 5873TIP3    H239035   6.527   5.542  12.203  1.3337 -0.6153 -1.7195
 5874TIP3   OH239036   6.469   0.585  13.240  0.3197  0.1223 -0.4668
 5874TIP3    H139037   6.536   0.654  13.234 -0.9115  1.3818 -0.3999
 5874TIP3    H239038   6.486   0.528  13.165  1.7871  0.1119 -0.1407
 5875TIP3   OH239039   0.326   1.312   3.077 -0.5863 -0.0740 -0.1252
 5875TIP3    H139040   0.241   1.298   3.118  0.7895 -0.6304  2.7884
 5875TIP3    H239041   0.376   1.363   3.141  1.3253  0.1691 -1.7024
 5876TIP3   OH239042   0.678   0.976  15.582 -0.0209 -0.2724 -0.0420
 5876TIP3    H139043   0.628   0.912  15.632  0.3363 -0.8394 -0.4070
 5876TIP3    H239044   0.726   1.026  15.648 -0.3550 -0.3289  0.2468
 5877TIP3   OH239045   1.735   6.278   4.586  0.0712  0.2572  0.0243
 5877TIP3    H139046   1.754   6.233   4.669  1.8613  0.5424 -0.1956
 5877TIP3    H239047   1.641   6.264   4.572  0.2954 -2.3565  0.6038
 5878TIP3   OH239048   3.325   4.944  13.421  0.1724 -0.0403  0.1874
 5878TIP3    H139049   3.236   4.921  13.395  0.4111 -0.6939 -0.0764
 5878TIP3    H239050   3.361   4.991  13.346 -0.0572  0.5232  0.4253
 5879TIP3   OH239051   6.212   0.421   4.622  0.4323 -0.1979 -0.3279
 5879TIP3    H139052   6.120   0.432   4.598  0.4289  0.4530 -0.0406
 5879TIP3    H239053   6.211   0.415   4.718  0.6372 -0.7502 -0.3591
 5880TIP3   OH239054   6.122   0.502  14.042  0.2734  0.3774  0.3479
 5880TIP3    H139055   6.205   0.456  14.047  1.8856  3.0269 -0.0323
 5880TIP3    H239056   6.058   0.439  14.074  2.2190 -2.1602 -0.4362
 5881TIP3   OH239057   5.182   3.825  14.784 -0.4490 -0.1746 -0.3242
 5881TIP3    H139058   5.183   3.837  14.879  1.2361 -1.0448 -0.1816
 5881TIP3    H239059   5.217   3.737  14.771  2.2261  0.9906 -1.8291
 5882TIP3   OH239060   3.208   4.827  11.491 -0.3168  0.0156  0.0859
 5882TIP3    H139061   3.149   4.772  11.439 -0.2127 -2.1580  2.0719
 5882TIP3    H239062   3.283   4.843  11.433 -0.9999 -0.7357 -1.0537
 5883TIP3   OH239063   3.297   6.246  12.947 -0.4548 -0.2395 -0.2091
 5883TIP3    H139064   3.353   6.181  12.990 -0.6183  0.1392  0.5871
 5883TIP3    H239065   3.357   6.294  12.890 -0.2248 -0.7119 -0.3758
 5884TIP3   OH239066   1.419   6.151   0.498 -0.1874  0.0565 -0.2516
 5884TIP3    H139067   1.415   6.203   0.579  2.3695  1.0474 -0.6700
 5884TIP3    H239068   1.434   6.062   0.528 -1.7370 -0.0207  0.3952
 5885TIP3   OH239069   3.864   5.736   4.493  0.2391  0.3617  0.1899
 5885TIP3    H139070   3.906   5.810   4.535  0.5060  0.1351  0.3240
 5885TIP3    H239071   3.771   5.761   4.488  0.3898  0.8661 -0.1226
 5886TIP3   OH239072   6.497   2.993  15.462 -0.1422 -0.2237 -0.2547
 5886TIP3    H139073   6.493   3.046  15.383 -1.0564 -1.7122 -1.2725
 5886TIP3    H239074   6.581   3.015  15.502 -0.8883  2.6313 -0.0980
 5887TIP3   OH239075   3.388   3.531  14.392  0.2154  0.0004  0.7159
 5887TIP3    H139076   3.310   3.483  14.365  0.1855  1.0105 -1.1557
 5887TIP3    H239077   3.354   3.614  14.427  0.3762 -0.3893  1.8378
 5888TIP3   OH239078   4.146   2.574   0.195 -0.1436 -0.7331 -0.2841
 5888TIP3    H139079   4.112   2.486   0.208  0.7783 -1.0626 -0.0187
 5888TIP3    H239080   4.207   2.588   0.267  1.2559 -0.6642 -1.4265
 5889TIP3   OH239081   3.502   4.642   0.258 -0.5989  0.0321  0.1265
 5889TIP3    H139082   3.573   4.601   0.208 -0.8472 -1.6765  1.1167
 5889TIP3    H239083   3.425   4.588   0.238 -1.5721  1.6349 -0.6358
 5890TIP3   OH239084   1.143   0.036  12.014  0.3357  0.3164  0.1656
 5890TIP3    H139085   1.084   0.104  11.981  0.8554  0.0667 -1.3876
 5890TIP3    H239086   1.231   0.074  12.004  0.5570 -0.1084  0.4663
 5891TIP3   OH239087   3.493   4.557  15.780  0.1695 -0.9348  0.1685
 5891TIP3    H139088   3.473   4.500  15.854 -1.1811 -1.2674 -0.4325
 5891TIP3    H239089   3.584   4.537  15.758  1.0117  0.0757  2.5101
 5892TIP3   OH239090   2.768   5.308   5.797 -0.2761 -0.2122  0.4699
 5892TIP3    H139091   2.806   5.248   5.734  0.0667  0.4962 -0.0058
 5892TIP3    H239092   2.841   5.362   5.827 -0.2466 -1.0867  2.1371
 5893TIP3   OH239093   3.156   5.642   1.127 -0.6860 -0.3254 -0.6226
 5893TIP3    H139094   3.078   5.637   1.072 -1.0133  0.7856 -0.2809
 5893TIP3    H239095   3.170   5.552   1.156 -2.2103 -0.4597 -0.1882
 5894TIP3   OH239096   4.364   2.789  13.644  0.2245  0.0521 -0.3942
 5894TIP3    H139097   4.387   2.734  13.569  1.3480  0.9846 -0.7572
 5894TIP3    H239098   4.407   2.872  13.627 -0.4406  0.6504  0.7480
 5895TIP3   OH239099   3.357   1.842  12.657  0.2385  0.2386  0.2547
 5895TIP3    H139100   3.330   1.808  12.743 -0.0278  0.4451  0.2560
 5895TIP3    H239101   3.379   1.934  12.673  0.0588  0.3141  0.0802
 5896TIP3   OH239102   4.561   3.822  15.923 -0.1270 -0.1070 -0.2948
 5896TIP3    H139103   4.573   3.839  16.017 -0.6800 -0.8249 -0.0884
 5896TIP3    H239104   4.582   3.906  15.882  1.2317 -0.0869  0.3683
 5897TIP3   OH239105   0.407   0.091   0.325 -0.3073  0.1421 -0.1030
 5897TIP3    H139106   0.476   0.025   0.320  1.6804  2.1883 -1.7558
 5897TIP3    H239107   0.442   0.157   0.386 -0.8703  1.1057 -0.7918
 5898TIP3   OH239108   0.129   4.612   5.606 -0.0356 -0.0760 -0.3616
 5898TIP3    H139109   0.054   4.642   5.657  0.0591  2.5453 -1.5878
 5898TIP3    H239110   0.202   4.666   5.637  1.0874 -1.6692 -0.1077
 5899TIP3   OH239111   5.534   2.216  13.013  0.1690  0.6711  0.7266
 5899TIP3    H139112   5.571   2.255  13.092  0.2098  2.1296  0.0213
 5899TIP3    H239113   5.442   2.244  13.014 -0.3072 -0.8299  1.1748
 5900TIP3   OH239114   2.743   6.466   1.667  0.1450  0.3530 -0.2221
 5900TIP3    H139115   2.686   6.430   1.599  0.8053 -0.4709 -0.3424
 5900TIP3    H239116   2.792   6.391   1.700 -0.1356  0.7436  1.1469
 5901TIP3   OH239117   4.090   2.456   4.130 -0.3007 -0.0063  0.4123
 5901TIP3    H139118   4.060   2.547   4.129 -0.3490 -0.0249 -0.4097
 5901TIP3    H239119   4.052   2.417   4.051 -0.6810 -0.8741  1.0049
 5902TIP3   OH239120   5.753   3.234  17.205 -0.2426  0.1301  0.1835
 5902TIP3    H139121   5.753   3.181  17.285 -2.4121 -1.1659 -0.5943
 5902TIP3    H239122   5.797   3.180  17.140 -2.8182 -1.0253 -0.7199
 5903TIP3   OH239123   3.351   5.858   5.808  0.4415  0.1611  0.6415
 5903TIP3    H139124   3.355   5.933   5.867  0.1245  1.1380 -0.5260
 5903TIP3    H239125   3.275   5.808   5.837  0.5480  0.3889  1.3253
 5904TIP3   OH239126   2.517   2.908   6.127  0.5941 -0.0736 -0.3846
 5904TIP3    H139127   2.452   2.864   6.182 -1.6763 -0.5473 -3.2176
 5904TIP3    H239128   2.467   2.974   6.079  2.7315  1.2657 -0.9085
 5905TIP3   OH239129   2.277   1.919  12.011  0.2283 -0.1736  0.4370
 5905TIP3    H139130   2.213   1.849  12.000  0.8893 -1.0228  1.7307
 5905TIP3    H239131   2.358   1.884  11.975  0.0748  0.7875 -0.9269
 5906TIP3   OH239132   3.836   0.005   0.375  0.1573 -0.3265 -0.3259
 5906TIP3    H139133   3.913  -0.023   0.326 -1.1144  0.7952 -3.1661
 5906TIP3    H239134   3.776  -0.070   0.373 -0.3272  0.0777 -1.5001
 5907TIP3   OH239135   3.947   0.729  16.499  0.0163  0.4026 -0.1498
 5907TIP3    H139136   3.945   0.658  16.435  0.4360 -0.4658  0.7650
 5907TIP3    H239137   4.031   0.772  16.486  0.3049 -0.0712  0.1199
 5908TIP3   OH239138   1.640   2.710  17.390 -0.2989 -0.0422 -0.2835
 5908TIP3    H139139   1.551   2.693  17.421 -0.3630  0.0264 -0.4299
 5908TIP3    H239140   1.634   2.708  17.295  0.2290 -1.9462 -0.3047
 5909TIP3   OH239141   1.747   1.876   2.700 -0.5950  0.3999  0.5571
 5909TIP3    H139142   1.663   1.840   2.729 -0.7290 -1.0962 -1.4622
 5909TIP3    H239143   1.724   1.953   2.648 -0.8247 -0.3701 -0.5305
 5910TIP3   OH239144   1.821   2.506  12.988 -0.2250  0.5236 -0.1721
 5910TIP3    H139145   1.840   2.538  12.901  1.7362  0.2069  0.0844
 5910TIP3    H239146   1.890   2.542  13.043  0.6283 -2.0309  0.5776
 5911TIP3   OH239147   0.989   2.453  14.515  0.4184 -0.2265  0.2776
 5911TIP3    H139148   1.028   2.537  14.492  0.3792 -0.3118 -0.1070
 5911TIP3    H239149   0.895   2.470  14.517  0.4506 -0.0723  0.9964
 5912TIP3   OH239150   1.121   2.385   0.417 -0.8592 -0.8524 -0.6650
 5912TIP3    H139151   1.190   2.430   0.467 -2.3542  1.1882 -0.3140
 5912TIP3    H239152   1.105   2.304   0.465  0.3205 -0.6946  0.0239
 5913TIP3   OH239153   1.224   5.996   5.548 -0.0165 -0.0508 -0.1853
 5913TIP3    H139154   1.188   5.916   5.587  1.1663  0.3547  1.9225
 5913TIP3    H239155   1.306   5.968   5.507  0.5743  0.0998  0.8577
 5914TIP3   OH239156   1.988   6.694   3.991 -0.7348  0.0422 -0.4188
 5914TIP3    H139157   1.996   6.783   4.025 -1.2829  0.9378 -2.4797
 5914TIP3    H239158   1.907   6.661   4.029 -1.0471  0.7896 -0.4206
 5915TIP3   OH239159   3.460   3.118   3.062  0.3841 -0.9018 -0.2906
 5915TIP3    H139160   3.546   3.157   3.048 -0.9125  1.9954 -1.0218
 5915TIP3    H239161   3.472   3.056   3.134  2.6029  1.3025  1.3887
 5916TIP3   OH239162   5.764   1.875  17.303  0.2148 -0.0070 -0.9446
 5916TIP3    H139163   5.808   1.812  17.360 -2.4315 -0.1184  1.2203
 5916TIP3    H239164   5.681   1.833  17.281 -1.8226  2.6966  0.8618
 5917TIP3   OH239165   5.653   3.884  13.111  0.0025 -0.0806 -0.0100
 5917TIP3    H139166   5.642   3.867  13.017 -2.4117  1.6853 -0.1512
 5917TIP3    H239167   5.620   3.805  13.154 -2.1994  0.4205 -0.6771
 5918TIP3   OH239168   5.902   4.938  15.728  0.3739 -0.3234 -0.4059
 5918TIP3    H139169   5.814   4.966  15.703  0.4391  0.0107 -0.2703
 5918TIP3    H239170   5.892   4.847  15.756  0.0453 -0.2387 -0.2459
 5919TIP3   OH239171   2.989   3.309   3.865  0.3654 -0.2809 -0.7344
 5919TIP3    H139172   2.906   3.275   3.831  0.2944 -1.8292  0.8593
 5919TIP3    H239173   2.975   3.404   3.874 -1.0044 -0.4376 -1.0905
 5920TIP3   OH239174   1.307   3.890  15.504 -0.1556  0.0695  0.3936
 5920TIP3    H139175   1.309   3.796  15.485  1.3372  0.0538  0.5783
 5920TIP3    H239176   1.228   3.921  15.460 -0.9404 -1.3505  0.7392
 5921TIP3   OH239177   4.935   2.822  16.473  0.4677  0.3154  0.3048
 5921TIP3    H139178   4.907   2.731  16.483  0.3754 -0.2634 -3.5050
 5921TIP3    H239179   4.869   2.874  16.518 -0.2798 -1.4415  1.3127
 5922TIP3   OH239180   4.097   0.242  15.409 -0.0162 -0.2996  0.5498
 5922TIP3    H139181   4.175   0.209  15.366 -0.4249  1.2416 -1.5336
 5922TIP3    H239182   4.130   0.285  15.488  1.5454  1.8694 -1.1543
 5923TIP3   OH239183   5.481   4.351   0.105 -0.2329 -0.6311  0.2274
 5923TIP3    H139184   5.574   4.338   0.087 -0.3469 -0.4904 -0.4780
 5923TIP3    H239185   5.454   4.421   0.046 -0.9862 -1.2796 -0.2162
 5924TIP3   OH239186   0.296   4.125   3.092  0.2566  0.1608 -0.0347
 5924TIP3    H139187   0.333   4.156   3.010 -0.0785 -0.0277 -0.2569
 5924TIP3    H239188   0.208   4.162   3.095 -0.9523 -2.3281 -1.2808
 5925TIP3   OH239189   3.403   3.072   3.877  0.1307  0.0823  0.1568
 5925TIP3    H139190   3.401   3.085   3.972  3.3982 -0.6126  0.4548
 5925TIP3    H239191   3.391   2.978   3.866  0.9172 -0.0054  0.0013
 5926TIP3   OH239192   5.139   0.511  16.462 -0.0187 -0.1904  0.2360
 5926TIP3    H139193   5.207   0.450  16.434  0.1011  0.2719 -0.5109
 5926TIP3    H239194   5.173   0.550  16.542  1.9436  2.1471 -1.6039
 5927TIP3   OH239195   2.264   6.739  14.289  0.0005 -0.1277  0.2530
 5927TIP3    H139196   2.172   6.763  14.283  0.1344  0.3028 -0.2209
 5927TIP3    H239197   2.277   6.675  14.219 -0.0756 -0.6710  0.7251
 5928TIP3   OH239198   1.553   3.337  11.908  0.7806  0.5730 -0.1342
 5928TIP3    H139199   1.570   3.258  11.959  0.4393  0.4418 -0.2203
 5928TIP3    H239200   1.601   3.406  11.953  0.7622  0.3917  0.1644
 5929TIP3   OH239201   1.732   2.789   0.771 -0.5250  0.2612  0.1888
 5929TIP3    H139202   1.740   2.866   0.828  1.6837  0.2359  0.0000
 5929TIP3    H239203   1.775   2.816   0.689  1.0359 -1.4007  0.3948
 5930TIP3   OH239204   3.252   3.532   4.656  0.5702 -0.2093 -0.2058
 5930TIP3    H139205   3.312   3.486   4.715 -0.4166  0.5027  1.4461
 5930TIP3    H239206   3.177   3.554   4.712 -0.2360  0.8793 -1.6549
 5931TIP3   OH239207   4.329   1.926  11.475 -0.0326  0.5178 -0.2030
 5931TIP3    H139208   4.309   1.934  11.568 -0.8084 -0.4832 -0.2698
 5931TIP3    H239209   4.244   1.931  11.431 -0.4271 -4.0570 -0.4764
 5932TIP3   OH239210   5.932   0.552   3.607 -0.1424  0.5039 -0.2225
 5932TIP3    H139211   5.976   0.480   3.562 -0.7124 -0.7933  1.1855
 5932TIP3    H239212   5.850   0.564   3.559  0.9602  1.8216 -1.8601
 5933TIP3   OH239213   5.693   4.068  11.675  0.2184  0.9490 -0.1676
 5933TIP3    H139214   5.679   4.006  11.747  0.3832  1.5341  0.3692
 5933TIP3    H239215   5.661   4.152  11.708  0.2007  1.2031 -0.8148
 5934TIP3   OH239216   0.547   1.402   0.954  0.0996 -0.3037  0.6010
 5934TIP3    H139217   0.453   1.383   0.960 -0.0772  0.7078  1.1200
 5934TIP3    H239218   0.580   1.383   1.042  0.8030 -2.7006 -0.0953
 5935TIP3   OH239219   3.530   6.087   3.044  0.1949  0.1533 -0.9455
 5935TIP3    H139220   3.527   6.006   3.095 -1.3271  0.5917 -0.2655
 5935TIP3    H239221   3.512   6.059   2.954 -0.5564 -0.2550 -0.6784
 5936TIP3   OH239222   0.832   3.036  17.238  0.3959  0.3399  0.2389
 5936TIP3    H139223   0.753   2.995  17.203  1.5872 -1.6018 -0.3650
 5936TIP3    H239224   0.801   3.113  17.285 -1.7401  0.2137 -0.8393
 5937TIP3   OH239225   2.252   3.421   4.050  0.2474 -0.4851 -0.5927
 5937TIP3    H139226   2.168   3.397   4.089 -1.5292  4.2431 -0.8991
 5937TIP3    H239227   2.246   3.389   3.960 -0.0582 -2.3610  0.0408
 5938TIP3   OH239228   5.192   3.428  16.157 -0.2111 -0.1277 -0.2842
 5938TIP3    H139229   5.109   3.469  16.133 -0.7750 -0.8215  0.4089
 5938TIP3    H239230   5.169   3.337  16.174  0.1997  0.1709  2.3033
 5939TIP3   OH239231   0.553   1.201  16.655  0.1562 -0.4177 -0.3519
 5939TIP3    H139232   0.607   1.268  16.612 -0.4490 -0.1256 -0.6718
 5939TIP3    H239233   0.616   1.138  16.689  0.7003 -0.0913 -0.7329
 5940TIP3   OH239234   1.012   2.221   6.119 -0.4848 -0.3237  0.0251
 5940TIP3    H139235   1.011   2.225   6.024  0.5359  0.7504  0.0278
 5940TIP3    H239236   1.051   2.304   6.146 -2.1982  0.0765  1.4450
 5941TIP3   OH239237   0.319   3.307  12.918  0.7053  0.2828  0.8638
 5941TIP3    H139238   0.291   3.228  12.873  0.6163  0.8591 -0.1189
 5941TIP3    H239239   0.290   3.295  13.008  2.5377 -1.7221  1.2503
 5942TIP3   OH239240   4.346   0.856  16.641  0.3640 -0.4843 -0.0230
 5942TIP3    H139241   4.374   0.945  16.664  0.7587 -0.4783 -0.5244
 5942TIP3    H239242   4.304   0.865  16.556  1.4602 -0.9605 -0.6250
 5943TIP3   OH239243   5.756   0.340  16.778  0.7091 -0.0153 -0.3566
 5943TIP3    H139244   5.840   0.312  16.742  0.3690 -1.9494  0.2231
 5943TIP3    H239245   5.701   0.261  16.776 -0.4165  0.6595  1.2002
 5944TIP3   OH239246   1.031   0.877  16.013  0.0823 -0.0913 -0.1457
 5944TIP3    H139247   0.978   0.930  15.954 -1.6335 -1.1450  0.3767
 5944TIP3    H239248   0.970   0.849  16.081  1.5708 -0.4765  1.0936
 5945TIP3   OH239249   0.135   2.139   2.702  0.3886 -0.5613  1.0038
 5945TIP3    H139250   0.122   2.046   2.687  1.5790 -0.6614  0.4617
 5945TIP3    H239251   0.134   2.178   2.614  1.9883 -0.3787  1.0429
 5946TIP3   OH239252   0.520   0.327   3.909 -0.5043 -0.0876 -0.3824
 5946TIP3    H139253   0.606   0.362   3.884 -0.4063 -0.4227 -0.5235
 5946TIP3    H239254   0.498   0.372   3.990 -1.4265  2.0390 -1.7155
 5947TIP3   OH239255   0.601   1.133   3.950  0.3946 -0.3709  0.0804
 5947TIP3    H139256   0.610   1.186   3.871  0.4909  2.2036  1.7059
 5947TIP3    H239257   0.553   1.189   4.011  1.1382 -1.8901  2.1619
 5948TIP3   OH239258   1.523   4.327   0.719  0.5043  0.2331  0.0488
 5948TIP3    H139259   1.477   4.409   0.740  0.5841  0.5137 -0.8284
 5948TIP3    H239260   1.606   4.334   0.766  0.8417  1.0233 -0.6396
 5949TIP3   OH239261   1.432   6.410   5.031 -0.1550 -0.0968 -0.2883
 5949TIP3    H139262   1.384   6.399   5.113 -0.3573  3.6433  0.2751
 5949TIP3    H239263   1.524   6.410   5.057 -0.0506 -1.5344 -0.5388
 5950TIP3   OH239264   3.826   5.950   0.589  0.4729  0.2677  0.3542
 5950TIP3    H139265   3.826   5.919   0.498  0.4873  1.9710 -0.2592
 5950TIP3    H239266   3.917   5.974   0.606  0.8797 -1.7805  1.5031
 5951TIP3   OH239267   0.762   1.130  16.375 -0.0050 -0.1821  0.2238
 5951TIP3    H139268   0.692   1.071  16.404  1.5259 -2.2504  0.0064
 5951TIP3    H239269   0.738   1.155  16.286 -0.0287 -1.6662 -0.2165
 5952TIP3   OH239270   4.542   0.767  11.516 -0.4835  0.0730 -0.2438
 5952TIP3    H139271   4.564   0.823  11.590  2.4700  0.3914 -1.2330
 5952TIP3    H239272   4.565   0.818  11.439  3.2902 -2.5617 -1.1921
 5953TIP3   OH239273   5.903   4.331  13.290  0.5585  0.0896  0.2904
 5953TIP3    H139274   5.902   4.412  13.340  1.2703  0.1884  0.1442
 5953TIP3    H239275   5.849   4.349  13.213 -0.3693  0.0016  0.8980
 5954TIP3   OH239276   4.467   6.368  16.359 -0.0894  0.0886 -0.2691
 5954TIP3    H139277   4.376   6.392  16.340 -0.5255 -1.3038 -0.0585
 5954TIP3    H239278   4.461   6.279  16.393  1.3277  0.1252  0.1265
 5955TIP3   OH239279   0.050   5.078  14.198  0.3058 -0.1544  0.0043
 5955TIP3    H139280   0.129   5.104  14.151  1.2021 -1.1198  0.9267
 5955TIP3    H239281   0.009   5.160  14.225  0.4906  0.3800 -1.2659
 5956TIP3   OH239282   3.202   2.128   5.136  0.3010  0.5839  0.0449
 5956TIP3    H139283   3.128   2.187   5.148  0.8810  1.0903  1.2371
 5956TIP3    H239284   3.250   2.131   5.219 -0.1374 -2.2474  0.5191
 5957TIP3   OH239285   4.361   6.203   1.338 -0.2027 -0.0326 -0.7094
 5957TIP3    H139286   4.353   6.248   1.423 -2.2320 -0.6333 -0.5354
 5957TIP3    H239287   4.274   6.213   1.298  0.8088  0.5095 -2.8797
 5958TIP3   OH239288   5.273   1.142  14.280 -0.7344  0.1088 -0.1857
 5958TIP3    H139289   5.278   1.224  14.328 -0.3068  0.0303 -0.0948
 5958TIP3    H239290   5.353   1.139  14.228 -0.2148 -0.7428  0.6146
 5959TIP3   OH239291   1.938   3.022  17.080  0.4915  0.3347 -0.4540
 5959TIP3    H139292   1.923   3.005  16.987 -0.9604  1.7886 -0.5387
 5959TIP3    H239293   1.940   2.935  17.120 -1.0977 -0.2570 -1.5444
 5960TIP3   OH239294   2.355   1.239  11.380  0.0428 -0.5860  0.5308
 5960TIP3    H139295   2.269   1.237  11.338 -0.0878 -0.2986  0.7764
 5960TIP3    H239296   2.340   1.285  11.463  0.3641 -0.8425  0.7357
 5961TIP3   OH239297   0.603   2.898  14.536 -0.1337  0.1053  0.0322
 5961TIP3    H139298   0.663   2.972  14.534  0.0868 -0.0762 -1.4880
 5961TIP3    H239299   0.520   2.933  14.504 -0.5322  0.0805  0.9931
 5962TIP3   OH239300   3.331   4.864  11.004  0.1035 -0.8654 -0.5921
 5962TIP3    H139301   3.267   4.793  11.006  0.3936 -1.1684 -1.5414
 5962TIP3    H239302   3.393   4.839  10.936  1.2109 -0.5510  0.2781
 5963TIP3   OH239303   3.331   4.757   5.150  0.1978  0.0203 -0.1213
 5963TIP3    H139304   3.410   4.805   5.175  0.9452 -1.4208  0.4252
 5963TIP3    H239305   3.296   4.723   5.232 -1.0347  0.6636 -0.3562
 5964TIP3   OH239306   4.691   5.065  14.231  0.1907  1.3323  0.2752
 5964TIP3    H139307   4.641   5.139  14.266  0.1434  1.0887  0.7298
 5964TIP3    H239308   4.662   4.990  14.283  0.4615  1.0474  0.0176
 5965TIP3   OH239309   5.473   5.706   0.004  0.1349 -0.3575  0.0893
 5965TIP3    H139310   5.415   5.643   0.048  0.0348 -0.0354  0.4189
 5965TIP3    H239311   5.435   5.791   0.024  0.1801 -0.1955 -0.4954
 5966TIP3   OH239312   5.556   2.578  12.871 -0.3790  0.1053 -0.5654
 5966TIP3    H139313   5.539   2.630  12.792  1.1271  0.7622 -0.5002
 5966TIP3    H239314   5.558   2.488  12.840 -2.0138  0.1313 -0.8625
 5967TIP3   OH239315   5.001   4.909  13.452 -0.3743 -0.1468 -0.1128
 5967TIP3    H139316   5.066   4.864  13.506  0.1691  1.2576  0.4616
 5967TIP3    H239317   5.050   4.979  13.408 -1.4142  0.7357  0.0870
 5968TIP3   OH239318   3.087   6.340   6.403  0.2628  0.6647 -0.6326
 5968TIP3    H139319   3.087   6.346   6.499 -0.6501  0.8898 -0.6367
 5968TIP3    H239320   3.049   6.255   6.384  1.4524  0.1543 -0.7904
 5969TIP3   OH239321   1.776   5.273  14.506 -0.4769  0.3273 -0.2809
 5969TIP3    H139322   1.868   5.255  14.484  0.3449 -0.8298  3.4813
 5969TIP3    H239323   1.727   5.206  14.460  1.2593 -2.9890  2.2942
 5970TIP3   OH239324   3.228   0.454   3.018 -0.8095 -0.2926 -0.2896
 5970TIP3    H139325   3.265   0.512   2.951  0.6640 -0.1904  0.5686
 5970TIP3    H239326   3.164   0.508   3.064 -0.8793  0.0437 -0.7769
 5971TIP3   OH239327   5.545   5.940  11.429  0.0543 -0.5604  0.2987
 5971TIP3    H139328   5.514   6.015  11.378 -1.3817  0.5769  2.6223
 5971TIP3    H239329   5.624   5.971  11.473 -1.6758  0.4975  2.9261
 5972TIP3   OH239330   4.258   1.937   2.831 -0.1308 -0.0064 -0.2939
 5972TIP3    H139331   4.317   1.867   2.859 -1.2157 -1.2930 -1.1021
 5972TIP3    H239332   4.185   1.932   2.893  0.3000  1.1995  0.3491
 5973TIP3   OH239333   3.004   6.620  11.004  0.4430 -0.0488  0.1727
 5973TIP3    H139334   2.935   6.571  10.958  0.2022  0.4671 -0.0309
 5973TIP3    H239335   3.028   6.564  11.077 -0.6451  0.0301  0.6138
 5974TIP3   OH239336   1.025   1.133  15.147  0.1162 -0.3977  0.4794
 5974TIP3    H139337   1.012   1.044  15.114 -2.7565  0.6656 -1.7391
 5974TIP3    H239338   1.104   1.164  15.103  0.5970 -1.5331  0.5175
 5975TIP3   OH239339   4.571   2.085   2.821 -0.5482  0.2494  0.4989
 5975TIP3    H139340   4.606   2.116   2.738 -0.8854  1.4844  0.8062
 5975TIP3    H239341   4.605   2.147   2.886  1.0846 -1.5948  1.5562
 5976TIP3   OH239342   5.170   2.960  16.572  0.4448  0.2710 -0.6077
 5976TIP3    H139343   5.148   2.984  16.662  1.3902 -1.8025  0.2381
 5976TIP3    H239344   5.090   2.920  16.538  0.9067 -1.5247  0.3160
 5977TIP3   OH239345   1.599   6.573   1.369 -0.0316  0.2382  0.3296
 5977TIP3    H139346   1.603   6.668   1.384 -1.0665  0.1614  1.1463
 5977TIP3    H239347   1.542   6.563   1.293  0.2608  0.2750  0.1024
 5978TIP3   OH239348   3.614   2.832   1.211 -0.0785 -0.2752 -0.2803
 5978TIP3    H139349   3.668   2.873   1.143  0.4162  0.6376  0.6473
 5978TIP3    H239350   3.539   2.891   1.222  1.0266  0.8667  1.6110
 5979TIP3   OH239351   2.588   4.390  11.450  0.1909 -0.1499  0.1032
 5979TIP3    H139352   2.511   4.422  11.497  0.1573 -0.7168  0.4501
 5979TIP3    H239353   2.573   4.416  11.359 -1.1872 -1.6032 -0.1490
 5980TIP3   OH239354   4.801   4.255  15.064 -0.2134 -0.0991  0.2901
 5980TIP3    H139355   4.797   4.317  14.991  0.6281 -1.2366 -0.7830
 5980TIP3    H239356   4.722   4.202  15.055 -0.7970  0.6048  1.0489
 5981TIP3   OH239357   3.507   4.103  16.245 -0.2551  0.4103  0.1778
 5981TIP3    H139358   3.420   4.133  16.215 -0.9351 -1.9753 -0.4631
 5981TIP3    H239359   3.562   4.108  16.167 -0.1951  0.5908  0.2318
 5982TIP3   OH239360   4.431   4.432   2.564  0.0430 -0.1924 -0.1849
 5982TIP3    H139361   4.381   4.467   2.491  0.0009  1.0027  0.4060
 5982TIP3    H239362   4.427   4.337   2.552 -2.1840 -0.1387 -0.2750
 5983TIP3   OH239363   1.684   6.664  17.093  0.6300  0.4525 -0.6606
 5983TIP3    H139364   1.769   6.621  17.082 -0.0410 -1.0551 -0.2967
 5983TIP3    H239365   1.642   6.656  17.007  0.2778 -0.1418 -0.4357
 5984TIP3   OH239366   2.493   4.569   0.752  0.2370 -0.0894  0.4101
 5984TIP3    H139367   2.533   4.573   0.839  2.9908  0.8935 -0.7988
 5984TIP3    H239368   2.524   4.487   0.715  0.8207  0.4575 -0.3666
 5985TIP3   OH239369   3.218   0.307  16.861  0.2426 -0.0114 -0.1502
 5985TIP3    H139370   3.153   0.374  16.884  1.5660  1.6740 -1.1090
 5985TIP3    H239371   3.283   0.311  16.931  1.0224  0.6843 -0.8988
 5986TIP3   OH239372   3.461   3.660   0.124 -0.3006 -0.3003  0.2197
 5986TIP3    H139373   3.384   3.606   0.142  0.3970 -2.9148 -3.3552
 5986TIP3    H239374   3.535   3.600   0.135  0.5847  0.0022 -2.9405
 5987TIP3   OH239375   3.709   4.489   4.260 -0.4993  0.0976 -0.1508
 5987TIP3    H139376   3.723   4.565   4.203  0.2921 -1.5337 -2.2647
 5987TIP3    H239377   3.796   4.456   4.279 -0.8598 -0.9382 -0.2267
 5988TIP3   OH239378   6.350   2.135   2.906 -0.6977  0.6775 -0.6164
 5988TIP3    H139379   6.312   2.086   2.833 -0.0005 -1.2361  0.2307
 5988TIP3    H239380   6.441   2.105   2.910 -0.8280  0.4133  1.2769
 5989TIP3   OH239381   0.349   4.407   4.987  0.1506 -0.0098  0.3404
 5989TIP3    H139382   0.389   4.341   5.043 -2.0288 -1.4768  0.3105
 5989TIP3    H239383   0.264   4.425   5.027 -0.7288  0.2332 -1.4964
 5990TIP3   OH239384   3.516   1.791  17.270  0.3330  0.2963 -0.1742
 5990TIP3    H139385   3.428   1.819  17.296  0.2540  0.0635 -0.1915
 5990TIP3    H239386   3.550   1.744  17.345  0.8885  1.3642  0.2646
 5991TIP3   OH239387   4.169   5.605  15.180  0.0944 -0.1135 -0.0030
 5991TIP3    H139388   4.083   5.614  15.141 -0.1045  0.6375  0.5873
 5991TIP3    H239389   4.169   5.518  15.221 -0.2605 -0.2412 -0.2751
 5992TIP3   OH239390   3.355   0.466   2.121 -0.3686 -0.4487 -0.2380
 5992TIP3    H139391   3.328   0.501   2.036 -1.1884  0.8480  0.5238
 5992TIP3    H239392   3.280   0.415   2.151 -1.1204  1.2017  0.8190
 5993TIP3   OH239393   6.644   3.039   2.401  0.1173 -0.4103 -0.0499
 5993TIP3    H139394   6.644   3.013   2.493  1.7791  2.8659  1.0397
 5993TIP3    H239395   6.552   3.053   2.380 -0.1947  0.4385  1.6893
 5994TIP3   OH239396   4.823   4.605  15.729 -0.3659  0.0933  0.4581
 5994TIP3    H139397   4.782   4.621  15.644  1.7896  0.5337 -0.5693
 5994TIP3    H239398   4.831   4.692  15.768 -0.5107 -0.0109  0.7270
 5995TIP3   OH239399   2.355   3.031  17.187 -0.2029 -0.2570 -0.2754
 5995TIP3    H139400   2.354   2.937  17.171 -2.5627 -0.4270  0.5314
 5995TIP3    H239401   2.304   3.068  17.115  0.4407  0.4098 -0.4115
 5996TIP3   OH239402   5.353   5.606  15.902  0.0643 -0.3611  0.1572
 5996TIP3    H139403   5.432   5.637  15.947  1.4711 -1.8326 -1.1568
 5996TIP3    H239404   5.376   5.517  15.873 -1.8492 -0.5650 -0.8620
 5997TIP3   OH239405   1.592   2.785   2.349 -0.4218 -0.1793  0.2188
 5997TIP3    H139406   1.586   2.698   2.309 -1.7839  0.2382 -0.5443
 5997TIP3    H239407   1.621   2.842   2.278  0.2671  0.0296  0.6653
 5998TIP3   OH239408   2.481   0.329   6.349 -0.1253  0.3100 -0.0967
 5998TIP3    H139409   2.407   0.377   6.388 -0.6489 -0.5764  0.0171
 5998TIP3    H239410   2.447   0.241   6.335  1.1576 -0.3255  0.6821
 5999TIP3   OH239411   0.262   1.279  17.028 -0.4717 -0.0565  0.0868
 5999TIP3    H139412   0.252   1.188  17.056 -1.2024 -0.6146 -1.8068
 5999TIP3    H239413   0.193   1.326  17.074  0.1881 -0.3448  1.4255
 6000TIP3   OH239414   2.709   4.489  11.986 -0.1000 -0.1454 -0.2911
 6000TIP3    H139415   2.669   4.504  12.072  0.8265  2.5993 -0.2441
 6000TIP3    H239416   2.803   4.486  12.003  0.0134 -1.7963 -0.9960
 6001TIP3   OH239417   2.695   4.401   3.895 -0.2229  0.8345 -0.0093
 6001TIP3    H139418   2.705   4.311   3.928  0.3398  0.4211 -1.2563
 6001TIP3    H239419   2.654   4.448   3.967  0.3613 -0.1939  1.0279
 6002TIP3   OH239420   1.400   0.016   3.140 -0.1293 -0.3501 -0.4516
 6002TIP3    H139421   1.312   0.046   3.118 -0.5655 -0.6436  0.7821
 6002TIP3    H239422   1.428  -0.036   3.066 -1.1194 -0.4929 -0.7276
 6003TIP3   OH239423   2.352   0.757  16.936 -0.1099  0.4500 -0.9436
 6003TIP3    H139424   2.287   0.819  16.902  1.2153  1.8391 -1.0837
 6003TIP3    H239425   2.408   0.738  16.860  0.2600  0.0997 -0.5858
 6004TIP3   OH239426   6.221   5.522  15.854  0.0923 -0.0055  0.6339
 6004TIP3    H139427   6.213   5.444  15.799 -1.1510  0.5709 -0.0393
 6004TIP3    H239428   6.256   5.489  15.937  0.9947 -1.0486 -0.1283
 6005TIP3   OH239429   5.185   3.899  17.381 -0.0167  0.2068 -0.1845
 6005TIP3    H139430   5.141   3.954  17.316 -0.4404 -0.3448 -0.3735
 6005TIP3    H239431   5.211   3.820  17.332 -0.4983 -0.2905  0.3530
 6006TIP3   OH239432   3.699   2.644  14.400 -0.0561  0.2186  0.2510
 6006TIP3    H139433   3.657   2.592  14.469  0.6450  0.6359  1.0117
 6006TIP3    H239434   3.774   2.591  14.373 -0.5254 -0.0998 -0.4394
 6007TIP3   OH239435   5.598   3.386  15.574  0.6735 -0.2765 -0.3991
 6007TIP3    H139436   5.667   3.412  15.635  0.8082 -0.5546 -0.4298
 6007TIP3    H239437   5.523   3.366  15.630  0.7200 -0.2937 -0.3430
 6008TIP3   OH239438   5.451   1.195  11.127 -0.0674 -0.0321  0.5974
 6008TIP3    H139439   5.414   1.206  11.214 -3.4331  2.2817 -0.9259
 6008TIP3    H239440   5.473   1.284  11.099 -0.9750 -0.4292 -1.6029
 6009TIP3   OH239441   1.879   0.149  13.406  0.5565 -0.7155  1.1210
 6009TIP3    H139442   1.924   0.068  13.383 -0.4416 -1.0737  0.3923
 6009TIP3    H239443   1.914   0.214  13.346 -0.2491 -1.1079  0.2095
 6010TIP3   OH239444   2.260   0.364  15.673  0.1853  0.0299 -0.2874
 6010TIP3    H139445   2.310   0.373  15.755 -0.7130  0.6751  0.2159
 6010TIP3    H239446   2.325   0.344  15.607  0.8886 -0.9452  0.6669
 6011TIP3   OH239447   1.845   6.551  14.779 -0.6781  0.3811 -0.4684
 6011TIP3    H139448   1.819   6.485  14.843 -0.6851 -0.7381 -1.5775
 6011TIP3    H239449   1.912   6.603  14.824 -0.5675 -0.4755  0.3907
 6012TIP3   OH239450   4.752   1.741  14.425  0.0370  0.4587  0.6004
 6012TIP3    H139451   4.688   1.807  14.453 -1.3455 -0.6066  0.0379
 6012TIP3    H239452   4.727   1.662  14.471 -0.4320 -0.5451 -1.2738
 6013TIP3   OH239453   2.859   5.703   5.632 -0.0651 -0.8705 -0.4942
 6013TIP3    H139454   2.853   5.797   5.648  1.6564 -0.6484 -0.9527
 6013TIP3    H239455   2.939   5.676   5.677 -0.5702 -2.1389 -0.3192
 6014TIP3   OH239456   1.671   0.899   5.750 -0.5704  0.5835 -0.0221
 6014TIP3    H139457   1.720   0.889   5.831 -1.0734 -0.3162  0.1785
 6014TIP3    H239458   1.723   0.853   5.684 -0.9344 -0.0436  0.1158
 6015TIP3   OH239459   5.714   2.806  13.636 -0.1469  0.2794  0.2208
 6015TIP3    H139460   5.747   2.788  13.724  1.0799  1.5802  0.0483
 6015TIP3    H239461   5.792   2.813  13.582 -0.9088 -1.5963 -1.2380
 6016TIP3   OH239462   0.723   2.419   6.460 -0.0787 -0.0096  0.3388
 6016TIP3    H139463   0.636   2.448   6.432 -0.1327  2.8953  2.9266
 6016TIP3    H239464   0.708   2.375   6.543  0.9113  0.8950  1.0258
 6017TIP3   OH239465   6.450   3.854  15.364 -0.4415  0.1035  0.3127
 6017TIP3    H139466   6.414   3.928  15.315 -1.1843 -1.8884 -2.3877
 6017TIP3    H239467   6.544   3.871  15.365 -0.4839  0.6001 -1.1927
 6018TIP3   OH239468   3.871   3.652   2.224 -0.3225 -0.2931 -0.6405
 6018TIP3    H139469   3.896   3.573   2.273 -1.2907 -0.7094 -0.7797
 6018TIP3    H239470   3.781   3.669   2.251  0.0733  1.1508 -0.1445
 6019TIP3   OH239471   2.180   4.835  16.683  0.2856  0.0053 -0.4056
 6019TIP3    H139472   2.139   4.895  16.621 -2.5782 -2.0628 -0.7412
 6019TIP3    H239473   2.119   4.831  16.757  0.7559 -1.8379 -0.0570
 6020TIP3   OH239474   6.354   3.619  15.475  0.2786 -0.0180  0.2417
 6020TIP3    H139475   6.270   3.653  15.505  0.7310 -0.8170  2.6912
 6020TIP3    H239476   6.392   3.690  15.423 -0.4865  1.7265  1.9389
 6021TIP3   OH239477   5.135   1.814  16.781  0.1041  0.0992  0.3812
 6021TIP3    H139478   5.204   1.832  16.716 -0.1698 -0.7332 -0.1606
 6021TIP3    H239479   5.124   1.897  16.827 -1.3955  1.5291 -2.2685
 6022TIP3   OH239480   0.138   4.139  15.311  0.2123 -0.3018  0.4627
 6022TIP3    H139481   0.210   4.128  15.374 -0.6379 -0.3819  1.4525
 6022TIP3    H239482   0.161   4.219  15.263  1.1588 -0.5462  0.4756
 6023TIP3   OH239483   6.747   0.389  15.533 -0.0581  0.2522 -0.1498
 6023TIP3    H139484   6.678   0.380  15.598 -0.4396 -0.3717 -0.6320
 6023TIP3    H239485   6.821   0.341  15.570 -0.2084  0.0735 -0.0766
 6024TIP3   OH239486   5.120   1.540  12.542  0.4890  0.1426  0.1687
 6024TIP3    H139487   5.157   1.582  12.619  0.0595  1.1210 -0.1485
 6024TIP3    H239488   5.025   1.552  12.550 -0.0029 -3.3665  1.5796
 6025TIP3   OH239489   2.997   6.380  14.788  0.2596 -0.1889 -0.3633
 6025TIP3    H139490   3.039   6.328  14.856 -1.3787 -1.7157 -0.4447
 6025TIP3    H239491   3.005   6.326  14.709  0.0107  0.4616 -0.8441
 6026TIP3   OH239492   3.522   0.470   3.435 -0.3886 -0.2592 -0.2258
 6026TIP3    H139493   3.542   0.467   3.529 -0.2709  0.8552 -0.1996
 6026TIP3    H239494   3.478   0.387   3.417 -2.2108  0.3179  1.2471
 6027TIP3   OH239495   3.975   0.572   5.743 -0.4248 -0.0059 -0.1883
 6027TIP3    H139496   3.983   0.647   5.801  1.0005  0.7920 -1.3759
 6027TIP3    H239497   4.055   0.521   5.757 -0.0847  0.1647 -1.3859
 6028TIP3   OH239498   4.110   1.091   2.867  0.0281 -0.0752 -0.3520
 6028TIP3    H139499   4.086   1.158   2.804  0.4940  0.9943  0.5774
 6028TIP3    H239500   4.144   1.019   2.814 -4.6107 -1.5896 -1.7647
 6029TIP3   OH239501   3.553   6.438  14.264 -0.4598 -0.0998  0.1670
 6029TIP3    H139502   3.606   6.498  14.318  1.2040 -1.0872 -0.2964
 6029TIP3    H239503   3.463   6.457  14.290  0.1152  1.3852  1.2860
 6030TIP3   OH239504   2.607   4.655   2.553 -0.6248  0.2989  0.7874
 6030TIP3    H139505   2.631   4.614   2.636 -1.2882  0.8749  1.2771
 6030TIP3    H239506   2.536   4.715   2.576  1.5425  3.2004  0.4650
 6031TIP3   OH239507   1.002   3.482   4.375  0.1360  0.4784  0.0016
 6031TIP3    H139508   0.918   3.442   4.399  0.0928  1.2604  1.2415
 6031TIP3    H239509   0.978   3.564   4.331  0.2501  0.2599 -0.4740
 6032TIP3   OH239510   0.006   6.140   5.542  0.2149  0.3666  0.4164
 6032TIP3    H139511   0.091   6.129   5.499  0.5128 -0.4426  1.1857
 6032TIP3    H239512  -0.015   6.052   5.574 -2.3621 -0.2063 -2.4188
 6033TIP3   OH239513   4.074   3.751   1.397  0.3291  0.4545 -0.0607
 6033TIP3    H139514   4.110   3.755   1.486 -2.4298  1.6545  1.1027
 6033TIP3    H239515   3.991   3.706   1.406  0.1268  0.3094 -2.1196
 6034TIP3   OH239516   4.570   3.818   4.622 -0.0770  0.2875  0.1907
 6034TIP3    H139517   4.561   3.821   4.527  1.0291  3.5197  0.0406
 6034TIP3    H239518   4.495   3.867   4.655 -0.0316 -0.1278  0.9422
 6035TIP3   OH239519   4.618   1.000  11.690 -0.1904 -0.0350  0.3385
 6035TIP3    H139520   4.638   1.039  11.605 -1.8740 -1.1195 -0.6114
 6035TIP3    H239521   4.699   0.958  11.717  0.4821  0.6651 -0.5310
 6036TIP3   OH239522   3.853   0.826   4.374 -0.7843  0.1224  0.7420
 6036TIP3    H139523   3.815   0.834   4.462 -0.2314  1.3709  0.8823
 6036TIP3    H239524   3.941   0.862   4.383 -1.0581  1.1785 -0.5503
 6037TIP3   OH239525   0.783   1.386   2.791 -0.5243  0.1189  0.0757
 6037TIP3    H139526   0.798   1.327   2.865 -0.5986  0.6055  0.4815
 6037TIP3    H239527   0.706   1.351   2.747 -0.6659  0.0115  0.4122
 6038TIP3   OH239528   4.633   0.085   3.791 -0.0600 -0.3227 -0.0508
 6038TIP3    H139529   4.546   0.091   3.830 -0.1817  0.3170 -0.3928
 6038TIP3    H239530   4.627   0.140   3.713 -0.0474 -2.1217 -1.3839
 6039TIP3   OH239531   4.404   4.227  14.032 -0.5219  0.0394  0.1406
 6039TIP3    H139532   4.491   4.252  14.001 -0.9693  0.3295 -0.9548
 6039TIP3    H239533   4.414   4.138  14.065 -0.2144 -0.7348 -1.8957
 6040TIP3   OH239534   6.449   0.982  13.414 -0.4289 -0.7992  0.2507
 6040TIP3    H139535   6.505   1.058  13.403  0.2239 -1.2885  0.1416
 6040TIP3    H239536   6.509   0.908  13.423 -0.9556 -1.0497  2.5245
 6041TIP3   OH239537   5.977   3.904   1.976 -0.6796 -0.1143 -0.5260
 6041TIP3    H139538   6.028   3.845   2.032 -0.6406 -0.8437 -1.3018
 6041TIP3    H239539   6.028   3.985   1.974 -1.0256  0.1589  1.0147
 6042TIP3   OH239540   4.967   1.646  13.882 -0.5858  0.2522 -0.0716
 6042TIP3    H139541   4.937   1.696  13.806 -1.3426  1.1476  0.7932
 6042TIP3    H239542   4.972   1.555  13.850 -2.0015  0.4278 -0.8789
 6043TIP3   OH239543   6.486   3.583   3.583 -0.1607  0.5060 -0.1364
 6043TIP3    H139544   6.461   3.549   3.497 -0.4837  1.1981 -0.3215
 6043TIP3    H239545   6.408   3.628   3.616  0.0521  0.5018  0.3930
 6044TIP3   OH239546   4.017   2.126   2.586 -0.1366  1.0323  0.4264
 6044TIP3    H139547   4.007   2.054   2.523  1.3330  2.2786 -1.3134
 6044TIP3    H239548   4.099   2.107   2.631  1.2473  2.4886 -1.3424
 6045TIP3   OH239549   5.028   5.403   1.897 -0.2840 -0.1794 -0.5754
 6045TIP3    H139550   5.118   5.435   1.901 -1.0683  2.0561  0.7755
 6045TIP3    H239551   5.028   5.322   1.948  0.9472 -0.2419 -0.6558
 6046TIP3   OH239552   2.880   0.161   0.029 -0.0660 -0.1539  0.2457
 6046TIP3    H139553   2.889   0.240  -0.024  1.0563 -0.3920  0.0557
 6046TIP3    H239554   2.954   0.106   0.003 -0.8187 -1.2639  0.3864
 6047TIP3   OH239555   2.781   5.862   1.643 -0.6206 -0.5782 -0.6320
 6047TIP3    H139556   2.714   5.834   1.705 -2.8427  3.5754 -0.8395
 6047TIP3    H239557   2.733   5.877   1.561  1.0215  0.3296 -1.4800
 6048TIP3   OH239558   1.565   0.579   5.023  0.5958  0.1959  0.2517
 6048TIP3    H139559   1.486   0.556   5.072 -0.0316  1.6078 -0.0540
 6048TIP3    H239560   1.533   0.602   4.936  1.6355 -1.7462 -0.7102
 6049TIP3   OH239561   5.075   0.260  14.583  0.4057 -0.6228  0.0055
 6049TIP3    H139562   5.013   0.325  14.548 -1.0629 -1.3624  1.1097
 6049TIP3    H239563   5.083   0.282  14.675 -0.7370 -2.4120  0.5845
 6050TIP3   OH239564   4.605   1.916   3.665 -0.3812  0.3213 -0.0912
 6050TIP3    H139565   4.664   1.886   3.597 -2.2949 -3.2238 -0.3972
 6050TIP3    H239566   4.649   1.992   3.703  1.9560  0.8752 -3.4864
 6051TIP3   OH239567   6.434   4.289  15.157 -0.0690  0.0161 -0.4956
 6051TIP3    H139568   6.376   4.356  15.194  0.8643  0.2248  0.6359
 6051TIP3    H239569   6.516   4.298  15.205  0.7431 -0.6351 -1.6958
 6052TIP3   OH239570   0.371   2.193  17.365  0.2789  0.6603  0.5332
 6052TIP3    H139571   0.441   2.253  17.389 -0.4253  1.6566  0.1444
 6052TIP3    H239572   0.299   2.216  17.424 -0.5419  1.3010 -0.6930
 6053TIP3   OH239573   3.373   2.699  10.682 -0.3544  0.2867  0.5777
 6053TIP3    H139574   3.378   2.755  10.760 -1.5452 -0.2690  1.0840
 6053TIP3    H239575   3.301   2.734  10.631  1.2051  1.4096 -0.9448
 6054TIP3   OH239576   2.318   1.281   5.374 -0.1564 -0.6370 -0.1640
 6054TIP3    H139577   2.257   1.233   5.431  0.8939 -2.1175 -0.2294
 6054TIP3    H239578   2.361   1.213   5.323 -0.1073  0.5636 -1.8033
 6055TIP3   OH239579   2.593   6.302   1.192 -0.6736  0.3831 -0.0752
 6055TIP3    H139580   2.626   6.287   1.104 -2.1296 -0.7240 -0.4731
 6055TIP3    H239581   2.500   6.322   1.181 -1.9893 -3.8214  1.3091
 6056TIP3   OH239582   5.900   6.707   2.525  0.5207 -0.3536 -0.1802
 6056TIP3    H139583   5.860   6.700   2.438  0.9930 -0.7981 -0.3692
 6056TIP3    H239584   5.829   6.738   2.582  0.3166  0.3558 -0.8045
 6057TIP3   OH239585   4.812   6.693   4.138  0.2317 -0.3031  0.6141
 6057TIP3    H139586   4.873   6.753   4.180 -1.7191  0.9079  1.8345
 6057TIP3    H239587   4.745   6.749   4.100 -0.1078 -1.5903 -0.8090
 6058TIP3   OH239588   5.277   4.648   4.446 -0.2515 -0.1479  0.4074
 6058TIP3    H139589   5.369   4.622   4.453 -0.5542 -1.0482  1.3636
 6058TIP3    H239590   5.275   4.710   4.374  1.4529  1.5076  1.6956
 6059TIP3   OH239591   6.518   1.587  13.261 -0.4615 -0.4815 -0.2208
 6059TIP3    H139592   6.498   1.497  13.286 -0.3286 -0.4156  0.1306
 6059TIP3    H239593   6.437   1.619  13.221 -0.7445 -0.5294  0.3015
 6060TIP3   OH239594   6.516   1.053  16.725 -0.5524  0.4206  0.0597
 6060TIP3    H139595   6.560   1.131  16.691 -1.6143  0.7852 -0.5199
 6060TIP3    H239596   6.549   0.981  16.671 -0.2099  0.5914  0.0379
 6061TIP3   OH239597   2.640   5.086  16.444 -0.0021 -0.4058  0.2148
 6061TIP3    H139598   2.735   5.092  16.452  0.0626  4.1657 -1.1191
 6061TIP3    H239599   2.606   5.127  16.523 -0.8727 -1.0973  0.2186
 6062TIP3   OH239600   5.972   0.328   1.007  0.3109 -0.5444 -0.2232
 6062TIP3    H139601   5.972   0.343   0.912 -1.8084 -0.7089 -0.2976
 6062TIP3    H239602   5.905   0.261   1.020  1.2643 -1.2459  1.3095
 6063TIP3   OH239603   1.056   1.577   2.643 -0.5902  0.1380 -0.5734
 6063TIP3    H139604   1.113   1.531   2.705 -1.5002  1.0089  0.9578
 6063TIP3    H239605   1.032   1.658   2.688 -3.0719 -0.2069 -1.1223
 6064TIP3   OH239606   3.138   0.362   1.147  0.0702 -0.0621 -0.2930
 6064TIP3    H139607   3.229   0.387   1.165 -0.5279  1.3149  1.0804
 6064TIP3    H239608   3.094   0.444   1.126 -1.0800 -0.5558  0.0837
 6065TIP3   OH239609   1.606   0.719  14.583 -0.0122  0.3760  0.0395
 6065TIP3    H139610   1.565   0.700  14.668 -1.6372  1.2205 -0.5231
 6065TIP3    H239611   1.555   0.668  14.520  0.5475  0.5361 -0.5513
 6066TIP3   OH239612   4.853   0.770   0.037  0.2926  0.1912  0.0278
 6066TIP3    H139613   4.825   0.679   0.028  1.5211 -0.3890  1.5331
 6066TIP3    H239614   4.918   0.782  -0.032  1.0779 -0.5144  0.6172
 6067TIP3   OH239615   2.970   2.845  12.713 -0.1090 -0.0267  0.1752
 6067TIP3    H139616   2.976   2.780  12.784 -0.8044 -0.9220 -0.5582
 6067TIP3    H239617   2.906   2.909  12.745 -0.1084 -0.1977  0.5266
 6068TIP3   OH239618   6.094   2.498  16.791  0.2171  0.2906 -0.3533
 6068TIP3    H139619   6.074   2.517  16.883  0.7864  1.7343 -0.5067
 6068TIP3    H239620   6.036   2.425  16.769 -3.1673  2.6761 -0.1226
 6069TIP3   OH239621   1.557   4.057   6.084  0.0787  0.1814  0.1680
 6069TIP3    H139622   1.605   4.053   6.167  3.3908 -0.0248 -1.6198
 6069TIP3    H239623   1.561   3.968   6.049  1.7087  0.9139 -1.7008
 6070TIP3   OH239624   0.061   3.955  14.594  0.5132  0.4589 -0.6820
 6070TIP3    H139625   0.044   4.021  14.527  1.0435  0.9785 -0.3151
 6070TIP3    H239626   0.129   3.994  14.649  3.1633 -1.6111 -2.2695
 6071TIP3   OH239627   1.076   0.532  12.081 -0.5001 -0.1309  0.3231
 6071TIP3    H139628   1.050   0.552  11.991 -0.0369 -0.7598  0.0428
 6071TIP3    H239629   1.172   0.527  12.077 -0.4246  0.6000  1.0155
 6072TIP3   OH239630   4.665   4.368  17.181 -0.3477  0.3750 -0.1619
 6072TIP3    H139631   4.608   4.431  17.225 -0.8461 -1.5412  2.1587
 6072TIP3    H239632   4.613   4.336  17.107 -1.4235  0.2318  0.6389
 6073TIP3   OH239633   2.255   4.358  15.110  0.7899  0.3865 -0.3798
 6073TIP3    H139634   2.277   4.269  15.082  0.8288  0.4402 -0.5157
 6073TIP3    H239635   2.203   4.345  15.190 -1.4106  0.1255 -1.7516
 6074TIP3   OH239636   6.039   4.286  14.375 -0.3729  0.1152  0.0373
 6074TIP3    H139637   6.060   4.276  14.468 -0.4444  0.3391  0.0796
 6074TIP3    H239638   5.955   4.331  14.374 -0.1349  0.5708 -0.1323
 6075TIP3   OH239639   3.315   5.040   5.967  0.6590  0.1534 -0.2836
 6075TIP3    H139640   3.381   5.029   5.897 -0.9286  0.8101 -1.9680
 6075TIP3    H239641   3.232   5.044   5.920 -0.5545 -0.1319  1.7554
 6076TIP3   OH239642   1.645   3.057   5.985  0.6227  0.2734 -0.5835
 6076TIP3    H139643   1.609   3.074   6.073  1.5371 -1.1280  0.0945
 6076TIP3    H239644   1.739   3.045   5.999  0.9805  1.2667 -1.9517
 6077TIP3   OH239645   3.680   5.165  13.063 -0.1538 -0.5871 -0.3947
 6077TIP3    H139646   3.738   5.207  13.000 -0.7680 -2.4419 -2.3172
 6077TIP3    H239647   3.715   5.077  13.074 -0.7332 -0.6765  1.0030
 6078TIP3   OH239648   0.715   2.270   5.630  0.3166  0.7867 -0.0197
 6078TIP3    H139649   0.794   2.324   5.623 -0.2570  1.5004 -1.5708
 6078TIP3    H239650   0.643   2.334   5.631 -0.3123  0.0968 -0.2518
 6079TIP3   OH239651   2.288   1.574  12.333 -0.7118  0.0228  0.0774
 6079TIP3    H139652   2.351   1.618  12.276 -0.3751 -1.0072 -0.3562
 6079TIP3    H239653   2.330   1.573  12.419 -0.6091  0.3052  0.0311
 6080TIP3   OH239654   1.279   1.396   4.150  0.2046 -0.1237  0.2474
 6080TIP3    H139655   1.261   1.415   4.242  0.9753 -0.0365  0.3872
 6080TIP3    H239656   1.196   1.413   4.106 -0.1130  0.0529  0.8937
 6081TIP3   OH239657   5.653   2.424   5.567  0.5394 -0.2659 -0.0332
 6081TIP3    H139658   5.722   2.485   5.592 -0.2851  0.0973  1.4759
 6081TIP3    H239659   5.678   2.394   5.479 -0.0136  3.6624 -1.7388
 6082TIP3   OH239660   0.024   1.258   0.800 -0.2412  0.2150  0.0831
 6082TIP3    H139661   0.019   1.174   0.753 -2.5928  1.0420 -1.2979
 6082TIP3    H239662  -0.033   1.246   0.876 -0.6466  0.5825 -0.1621
 6083TIP3   OH239663   4.483   5.874   5.943 -0.0675 -0.1135  0.4856
 6083TIP3    H139664   4.545   5.804   5.964  0.9977  0.3035 -1.0293
 6083TIP3    H239665   4.524   5.953   5.978  0.5997  0.2498 -1.0223
 6084TIP3   OH239666   3.360   1.709   4.483  0.4290 -0.3791  0.8576
 6084TIP3    H139667   3.439   1.752   4.517  0.8418  0.8751 -1.4832
 6084TIP3    H239668   3.384   1.617   4.478  2.2835  0.1386 -1.0306
 6085TIP3   OH239669   0.588   6.048  11.425  0.0902  0.6220  0.0703
 6085TIP3    H139670   0.612   6.097  11.347 -0.0190  0.6728  0.0686
 6085TIP3    H239671   0.669   6.006  11.453 -0.2451 -0.8214 -1.0666
 6086TIP3   OH239672   5.970   6.269   1.745 -0.4891 -0.4171 -0.2589
 6086TIP3    H139673   5.968   6.343   1.685 -1.2441 -0.7922 -0.7206
 6086TIP3    H239674   5.899   6.212   1.715 -1.5081 -0.1971  1.5352
 6087TIP3   OH239675   6.136   3.742   1.544 -0.2219 -0.9075  0.6305
 6087TIP3    H139676   6.196   3.683   1.498 -0.4365 -0.9328  0.3785
 6087TIP3    H239677   6.134   3.821   1.489  0.5369 -0.4238  1.2775
 6088TIP3   OH239678   6.314   5.004  14.213 -0.6807  0.4256  0.4000
 6088TIP3    H139679   6.228   4.969  14.190 -1.2750  0.5606  2.2523
 6088TIP3    H239680   6.294   5.088  14.255  0.6441  2.8837 -3.3419
 6089TIP3   OH239681   5.802   4.968   5.721 -0.4180  0.0200 -0.1163
 6089TIP3    H139682   5.824   4.941   5.632  0.8790  0.7721 -0.0419
 6089TIP3    H239683   5.822   4.891   5.774 -0.4983 -0.1880 -0.3843
 6090TIP3   OH239684   2.864   2.641  14.835  0.5600 -0.5228 -0.5885
 6090TIP3    H139685   2.825   2.704  14.775  2.0574 -1.3870 -2.5937
 6090TIP3    H239686   2.938   2.686  14.874 -0.7293  0.2168  1.0987
 6091TIP3   OH239687   6.115   0.516  13.020 -0.6384  0.0289  0.6030
 6091TIP3    H139688   6.106   0.608  13.044 -0.1772  0.1239  0.4070
 6091TIP3    H239689   6.153   0.475  13.098 -2.9290 -0.4434  1.5784
 6092TIP3   OH239690   3.547   2.391   1.177  0.6390 -0.1152  0.1665
 6092TIP3    H139691   3.544   2.433   1.263 -0.0393  1.1460 -0.4289
 6092TIP3    H239692   3.610   2.444   1.127 -0.7927  0.7270 -0.8317
 6093TIP3   OH239693   6.436   5.737  15.191  0.3966  0.0725 -0.2325
 6093TIP3    H139694   6.436   5.643  15.209 -0.6687  0.0517 -0.2705
 6093TIP3    H239695   6.455   5.778  15.276 -0.6363 -0.1386  0.1101
 6094TIP3   OH239696   0.824   3.413   0.441 -0.5570  0.0459 -0.3371
 6094TIP3    H139697   0.821   3.483   0.507  0.0010 -0.6040  0.4056
 6094TIP3    H239698   0.739   3.417   0.398 -0.0411  2.0706 -1.2684
 6095TIP3   OH239699   3.704   4.347   0.756  0.6654  0.2311 -0.4148
 6095TIP3    H139700   3.668   4.396   0.683  0.1008 -1.8261 -1.5958
 6095TIP3    H239701   3.629   4.304   0.796  1.1377  0.2719  0.5548
 6096TIP3   OH239702   3.513   6.646  17.366 -0.0674  0.4709 -0.1710
 6096TIP3    H139703   3.594   6.684  17.400 -0.7354  1.8365 -0.0279
 6096TIP3    H239704   3.521   6.655  17.271  1.3955 -2.5065 -0.4289
 6097TIP3   OH239705   3.409   2.468   2.324 -0.1965  0.3007  0.1210
 6097TIP3    H139706   3.449   2.478   2.410 -0.8203 -0.9023  0.5723
 6097TIP3    H239707   3.483   2.450   2.266 -0.0281 -2.6338  1.0680
 6098TIP3   OH239708   1.142   5.998   2.696 -0.4030 -0.1962 -0.0140
 6098TIP3    H139709   1.058   6.014   2.654 -1.0322 -1.3621  0.7561
 6098TIP3    H239710   1.199   5.969   2.625 -0.1933  1.9260 -0.8081
 6099TIP3   OH239711   3.710   0.930  15.415  0.7300 -0.4720  0.1214
 6099TIP3    H139712   3.646   0.994  15.384  0.6332 -1.9409 -3.1528
 6099TIP3    H239713   3.782   0.982  15.450 -1.4891  1.2583  2.4577
 6100TIP3   OH239714   1.975   2.399  16.314 -0.0515  1.0894  0.5418
 6100TIP3    H139715   1.920   2.454  16.371 -2.0113 -0.4840  0.2949
 6100TIP3    H239716   1.912   2.343  16.269  1.6600  0.6168 -1.3564
 6101TIP3   OH239717   5.817   5.094  10.790 -0.2070 -0.2135 -0.2907
 6101TIP3    H139718   5.904   5.061  10.810 -0.2181 -1.1815 -1.7090
 6101TIP3    H239719   5.787   5.042  10.715 -2.3741 -0.5495  0.7150
 6102TIP3   OH239720   3.592   6.265  12.818  0.2158  0.3798 -0.2213
 6102TIP3    H139721   3.677   6.230  12.844 -0.1404 -0.6867 -0.4376
 6102TIP3    H239722   3.605   6.294  12.728  0.3095  0.0554 -0.3140
 6103TIP3   OH239723   5.015   1.142  12.269 -0.2848  0.4593 -0.8163
 6103TIP3    H139724   5.094   1.195  12.274  0.2355 -0.3648  0.2318
 6103TIP3    H239725   5.020   1.099  12.184  0.0538  0.9329 -1.0383
 6104TIP3   OH239726   1.052   2.100  13.955 -0.1943  0.0349  0.2577
 6104TIP3    H139727   0.961   2.128  13.962  0.3003  2.3262 -1.1581
 6104TIP3    H239728   1.048   2.005  13.948 -2.4666  0.0772  0.3098
 6105TIP3   OH239729   2.092   5.411   2.409 -0.4805 -0.0740  0.0564
 6105TIP3    H139730   2.077   5.458   2.327  0.6370 -0.5805 -0.4731
 6105TIP3    H239731   2.090   5.478   2.477 -0.6439  0.4696 -0.4826
 6106TIP3   OH239732   4.210   5.364   0.332 -0.2118 -0.1694  0.1916
 6106TIP3    H139733   4.289   5.402   0.294 -0.6101  0.4822 -0.0195
 6106TIP3    H239734   4.241   5.297   0.392  0.4477 -1.2528 -1.3160
 6107TIP3   OH239735   6.685   1.148   0.237  0.4521  0.0126  0.1904
 6107TIP3    H139736   6.659   1.165   0.146  1.7281 -5.7899 -1.6802
 6107TIP3    H239737   6.775   1.180   0.242 -0.1834  1.9682  0.1261
 6108TIP3   OH239738   2.741   2.732   3.964 -0.1965  0.1160  0.2217
 6108TIP3    H139739   2.706   2.753   3.877 -1.1070  1.9777  0.9680
 6108TIP3    H239740   2.671   2.756   4.024  0.5029 -0.9233  1.4978
 6109TIP3   OH239741   2.350   4.724   5.769 -0.2394  0.0126 -0.5215
 6109TIP3    H139742   2.310   4.652   5.817 -0.7197  1.1693  0.8807
 6109TIP3    H239743   2.421   4.683   5.719 -0.4909 -1.4176  0.2535
 6110TIP3   OH239744   4.628   3.336   2.203 -0.2962  0.0043  0.6779
 6110TIP3    H139745   4.564   3.319   2.272 -1.0539  1.7030  0.4203
 6110TIP3    H239746   4.576   3.357   2.126  0.5624 -0.3440 -0.0176
 6111TIP3   OH239747   5.654   6.081  12.220  0.1866  0.1226  0.2110
 6111TIP3    H139748   5.613   6.012  12.167 -0.2900  0.5512  0.0153
 6111TIP3    H239749   5.581   6.127  12.260  0.5246  0.1857  0.7719
 6112TIP3   OH239750   0.986   3.842   5.161  0.1413  0.1299  0.1882
 6112TIP3    H139751   1.025   3.929   5.168 -0.6108  0.3785  1.8444
 6112TIP3    H239752   0.924   3.850   5.089 -0.3292  1.1606  0.6820
 6113TIP3   OH239753   1.436   2.071   2.648  0.3211  0.4804  0.2400
 6113TIP3    H139754   1.371   2.047   2.581  0.4357 -0.3201  0.4014
 6113TIP3    H239755   1.427   2.003   2.715  0.4068  1.1116  0.9054
 6114TIP3   OH239756   3.550   3.746  10.758  0.9591  0.1104  0.4210
 6114TIP3    H139757   3.510   3.825  10.796 -0.7828 -0.2148 -0.6416
 6114TIP3    H239758   3.488   3.718  10.690  0.3098 -3.5033  2.2617
 6115TIP3   OH239759   0.339   0.393   4.459  0.4816  0.3378  0.5157
 6115TIP3    H139760   0.410   0.427   4.405  0.6390  0.9664  1.1080
 6115TIP3    H239761   0.282   0.469   4.473  0.4744  0.1958  1.2786
 6116TIP3   OH239762   1.730   1.452  15.057  0.4562 -0.1906 -0.4287
 6116TIP3    H139763   1.782   1.412  14.987  0.5159  1.1298 -1.1764
 6116TIP3    H239764   1.661   1.388  15.075  0.6394 -0.7090 -1.4716
 6117TIP3   OH239765   4.780   1.798   6.273  0.1839 -0.8134 -0.1988
 6117TIP3    H139766   4.768   1.892   6.285 -0.7441 -0.3173 -3.8650
 6117TIP3    H239767   4.701   1.759   6.309 -0.2370 -0.0175 -0.2352
 6118TIP3   OH239768   2.227   5.052  14.297 -0.4616  0.0210  0.2012
 6118TIP3    H139769   2.306   5.032  14.346  0.3733  0.2349 -1.0160
 6118TIP3    H239770   2.258   5.097  14.218 -1.9360  1.9886  0.6737
 6119TIP3   OH239771   5.622   6.160  13.461  0.0404  0.1176  0.6699
 6119TIP3    H139772   5.714   6.137  13.477  0.1406  0.3753  0.4741
 6119TIP3    H239773   5.621   6.192  13.371 -0.4320 -0.8676  0.3155
 6120TIP3   OH239774   2.992   3.687   0.627 -0.7536  0.0579  0.3164
 6120TIP3    H139775   2.992   3.781   0.643 -1.0002 -0.1792  1.7993
 6120TIP3    H239776   3.025   3.648   0.707  0.4055 -1.0790 -0.6621
 6121TIP3   OH239777   0.989   5.843  15.953 -0.0250  0.4464  0.5718
 6121TIP3    H139778   1.080   5.820  15.977 -0.1766 -1.6323 -0.5751
 6121TIP3    H239779   0.994   5.866  15.861 -0.9233 -1.9677 -0.1638
 6122TIP3   OH239780   6.495   1.672  16.820 -0.0215  0.6728 -0.2522
 6122TIP3    H139781   6.545   1.730  16.877  1.5266  0.7273 -1.5937
 6122TIP3    H239782   6.427   1.728  16.783 -0.5375  0.8260  0.8887
 6123TIP3   OH239783   4.143   6.690   2.818 -0.2324 -0.0829  0.4357
 6123TIP3    H139784   4.092   6.618   2.781  2.8625 -2.9087  1.1494
 6123TIP3    H239785   4.207   6.648   2.875  2.9036  3.0396 -0.3499
 6124TIP3   OH239786   5.165   0.630  12.964  0.6829  0.3557 -0.0118
 6124TIP3    H139787   5.192   0.698  12.902 -0.0753  0.5576 -0.1255
 6124TIP3    H239788   5.125   0.678  13.036 -1.2543 -0.0309 -0.7853
 6125TIP3   OH239789   6.688   2.450   3.468 -0.0691  0.1277 -0.0672
 6125TIP3    H139790   6.628   2.491   3.531  1.2655  0.1716  1.2328
 6125TIP3    H239791   6.651   2.363   3.453 -1.3241  0.7231 -0.5631
 6126TIP3   OH239792   0.822   0.987   4.056  0.6519  0.1502 -0.4240
 6126TIP3    H139793   0.737   1.020   4.027  0.9673  0.8348 -0.5652
 6126TIP3    H239794   0.805   0.895   4.078 -0.4673  0.6485  0.9879
 6127TIP3   OH239795   1.276   3.098  11.878  0.3953 -0.1163  0.5313
 6127TIP3    H139796   1.224   3.087  11.958 -0.2995 -2.5901 -0.1842
 6127TIP3    H239797   1.319   3.013  11.866  1.8185  0.7588 -0.8283
 6128TIP3   OH239798   1.067   0.939  13.231  0.2904 -0.3746  1.1135
 6128TIP3    H139799   0.980   0.956  13.267  1.2731  0.2804  3.3807
 6128TIP3    H239800   1.076   0.844  13.235 -0.3212 -0.4501  0.8403
 6129TIP3   OH239801   4.757   5.015   0.891 -0.1658  0.6134 -0.1095
 6129TIP3    H139802   4.825   4.962   0.933  0.0792  1.9148  1.2100
 6129TIP3    H239803   4.776   5.008   0.798  2.4263  1.7167  0.2473
 6130TIP3   OH239804   4.346   5.082  16.823 -0.4069  0.4375 -0.1827
 6130TIP3    H139805   4.314   5.000  16.859  0.0477  0.8518  1.2160
 6130TIP3    H239806   4.267   5.130  16.800 -0.6940 -0.0445 -0.2100
 6131TIP3   OH239807   2.882   1.138  16.915 -0.4228  0.1821  0.1066
 6131TIP3    H139808   2.906   1.060  16.866  0.1019 -0.6495  1.6263
 6131TIP3    H239809   2.858   1.106  17.002 -2.7085  1.4521  0.0218
 6132TIP3   OH239810   3.955   5.548  16.538  0.2033 -0.0178  0.0369
 6132TIP3    H139811   3.958   5.639  16.569  0.7713 -0.0823  0.1661
 6132TIP3    H239812   4.010   5.499  16.599 -0.6538 -0.5818  0.3773
 6133TIP3   OH239813   5.100   2.673   0.943 -0.0540 -0.0725 -0.1210
 6133TIP3    H139814   5.055   2.741   0.994  1.8661  1.3401 -0.1983
 6133TIP3    H239815   5.192   2.679   0.971  0.3205 -2.1375 -0.7141
 6134TIP3   OH239816   4.250   3.461   0.692 -0.5972 -0.6945 -0.5757
 6134TIP3    H139817   4.247   3.556   0.691  0.4851 -0.4890  3.1416
 6134TIP3    H239818   4.159   3.433   0.695 -0.9115  0.1794 -1.4454
 6135TIP3   OH239819   0.453   5.952   3.126  0.1102  0.2682  0.3605
 6135TIP3    H139820   0.403   6.033   3.124  1.5432  1.1881 -0.5716
 6135TIP3    H239821   0.532   5.974   3.176  0.8817 -0.2966 -0.5663
 6136TIP3   OH239822   0.093   3.892  16.059 -0.2007  0.0161  0.0254
 6136TIP3    H139823   0.016   3.834  16.058 -1.3940  1.5127  0.3362
 6136TIP3    H239824   0.077   3.954  15.988  1.2813 -0.2905 -0.6090
 6137TIP3   OH239825   2.855   6.215   2.216 -0.1146 -0.4956  0.4493
 6137TIP3    H139826   2.948   6.238   2.210  0.3275 -2.4133 -1.4346
 6137TIP3    H239827   2.811   6.278   2.158  0.1946 -0.3871  0.3278
 6138TIP3   OH239828   3.825   2.018  13.172 -0.3514  0.0099 -0.2334
 6138TIP3    H139829   3.890   1.972  13.224 -0.3718 -1.2957 -1.3074
 6138TIP3    H239830   3.755   1.954  13.159 -1.1440  0.8839 -0.3990
 6139TIP3   OH239831   5.974   3.848  17.343  0.6792 -0.7581 -0.4561
 6139TIP3    H139832   6.004   3.762  17.313  0.8215 -1.1140  0.6644
 6139TIP3    H239833   6.054   3.893  17.370  0.4474 -0.9169  0.5396
 6140TIP3   OH239834   6.257   5.938  15.046 -0.2829  0.2606  0.0219
 6140TIP3    H139835   6.301   6.023  15.042 -0.6851  0.4186 -1.8769
 6140TIP3    H239836   6.265   5.911  15.138  1.6783  1.3611  0.2233
 6141TIP3   OH239837   3.087   1.335   3.582  0.6229  0.6522  0.0460
 6141TIP3    H139838   3.100   1.414   3.529 -2.0695  1.0712 -0.1353
 6141TIP3    H239839   3.049   1.368   3.664  0.7446 -0.3544  0.5258
 6142TIP3   OH239840   0.705   1.692   5.385  0.5700  0.3830 -0.0054
 6142TIP3    H139841   0.627   1.664   5.434  1.1335 -0.1765  0.5804
 6142TIP3    H239842   0.671   1.720   5.300 -0.2123 -0.3794  0.0447
 6143TIP3   OH239843   4.225   5.360  12.141 -0.7553  0.2330 -0.8395
 6143TIP3    H139844   4.293   5.298  12.116  1.0485  1.6470  0.2953
 6143TIP3    H239845   4.170   5.313  12.203  0.9971 -0.0833  0.5571
 6144TIP3   OH239846   3.189   6.547   4.593  0.4587  0.3191 -0.5257
 6144TIP3    H139847   3.117   6.484   4.598  1.1908 -0.4567  1.0445
 6144TIP3    H239848   3.229   6.544   4.680  0.2292  3.3580 -0.2110
 6145TIP3   OH239849   3.808   5.594   5.659 -0.1831 -0.1634 -0.1651
 6145TIP3    H139850   3.782   5.603   5.567 -3.2245 -3.1435  0.2005
 6145TIP3    H239851   3.733   5.627   5.708  0.0776 -1.4500  1.1666
 6146TIP3   OH239852   3.310   0.053  16.780 -0.0338 -0.1861  0.4643
 6146TIP3    H139853   3.272   0.131  16.819 -1.1466 -0.3310 -0.2937
 6146TIP3    H239854   3.235  -0.002  16.756  0.5049  0.1568 -2.3700
 6147TIP3   OH239855   0.429   5.938   5.627  0.3338  0.4365 -0.2849
 6147TIP3    H139856   0.334   5.926   5.625  0.4176 -0.1654 -1.7818
 6147TIP3    H239857   0.444   5.993   5.704 -0.9419 -1.6779  1.5959
 6148TIP3   OH239858   1.293   4.627  13.429 -0.0465 -0.3169  0.5725
 6148TIP3    H139859   1.348   4.699  13.399 -2.1151  0.4573 -1.6819
 6148TIP3    H239860   1.215   4.669  13.464 -1.2043 -1.4079 -0.5929
 6149TIP3   OH239861   2.266   6.254   0.744 -0.5289  0.2246 -0.0653
 6149TIP3    H139862   2.266   6.163   0.772 -1.2036  0.2116 -0.0969
 6149TIP3    H239863   2.174   6.274   0.727 -0.7314  1.6732  2.4049
 6150TIP3   OH239864   1.057   2.246   6.956  0.4283  0.0947 -0.6384
 6150TIP3    H139865   1.075   2.178   6.890  1.2832  0.8070 -1.1585
 6150TIP3    H239866   1.007   2.200   7.023 -0.9628 -0.5340 -2.0188
 6151TIP3   OH239867   1.828   4.718   5.631  0.3847  0.2455  0.8949
 6151TIP3    H139868   1.763   4.758   5.573 -0.3479 -0.7573  0.9845
 6151TIP3    H239869   1.890   4.675   5.572 -1.5348 -2.6216  0.7498
 6152TIP3   OH239870   4.307   4.065  16.578  0.4958 -0.6466  0.0280
 6152TIP3    H139871   4.382   4.044  16.634  0.0457 -0.2201  0.8162
 6152TIP3    H239872   4.233   4.069  16.639 -0.5017 -2.8032 -0.9549
 6153TIP3   OH239873   1.100   0.303   3.285  0.2435 -0.2043  0.0423
 6153TIP3    H139874   1.010   0.327   3.264  0.3209 -0.5714 -0.7201
 6153TIP3    H239875   1.144   0.298   3.201  0.3447 -2.6012  0.1819
 6154TIP3   OH239876   3.801   0.307  11.059 -0.0677 -0.3495  0.1673
 6154TIP3    H139877   3.852   0.251  11.118  1.4979 -1.2151 -1.8922
 6154TIP3    H239878   3.729   0.251  11.031  0.5545 -0.7853 -0.5922
 6155TIP3   OH239879   1.881   4.311  15.701 -0.2872 -0.0181 -0.1226
 6155TIP3    H139880   1.800   4.271  15.734  1.2065 -1.8590  1.5745
 6155TIP3    H239881   1.900   4.262  15.620 -1.0255  0.6619 -0.7206
 6156TIP3   OH239882   3.238   0.831   4.870 -0.4601  0.3422 -0.7143
 6156TIP3    H139883   3.303   0.767   4.840 -0.9036  0.1391 -1.2698
 6156TIP3    H239884   3.257   0.844   4.962  1.3334  1.4362 -1.2068
 6157TIP3   OH239885   2.562   4.074  11.993 -0.4896 -0.3199  0.1198
 6157TIP3    H139886   2.603   4.144  11.942 -0.7834 -0.8138 -0.8155
 6157TIP3    H239887   2.623   4.000  11.985 -0.0155 -0.1008  1.3753
 6158TIP3   OH239888   0.547   5.380  17.114  0.3373  0.4458 -0.0555
 6158TIP3    H139889   0.567   5.473  17.113 -0.1125  0.5463  0.0588
 6158TIP3    H239890   0.453   5.376  17.135  0.5917 -0.0649  1.0159
 6159TIP3   OH239891   0.555   4.859   4.985  0.4032  0.5492 -0.0003
 6159TIP3    H139892   0.626   4.850   5.048 -0.1667  0.6730  0.6814
 6159TIP3    H239893   0.589   4.917   4.917  0.8024  0.9759  0.5550
 6160TIP3   OH239894   4.826   0.415  12.606 -0.0468 -0.0474  0.3198
 6160TIP3    H139895   4.742   0.453  12.629 -0.3418 -0.3089 -0.2907
 6160TIP3    H239896   4.844   0.447  12.517  0.9203  0.7088  0.7663
 6161TIP3   OH239897   2.163   0.709   5.558  0.3901 -0.0166 -0.2492
 6161TIP3    H139898   2.135   0.629   5.603 -2.6656  1.2901  0.4635
 6161TIP3    H239899   2.170   0.684   5.466 -0.1749 -1.2103  0.0068
 6162TIP3   OH239900   5.052   3.486  10.893  0.8249  0.0151 -0.1967
 6162TIP3    H139901   4.968   3.511  10.932  1.0072  0.0967  0.1449
 6162TIP3    H239902   5.042   3.394  10.871  0.3301  0.2451 -0.9822
 6163TIP3   OH239903   6.684   4.592  12.298 -0.1912 -0.4022  0.2184
 6163TIP3    H139904   6.632   4.544  12.234 -1.1644  1.4068 -0.3940
 6163TIP3    H239905   6.739   4.650  12.246  1.4115 -1.1902  0.9268
 6164TIP3   OH239906   2.144   3.757   4.222 -0.5170 -0.2080  0.3624
 6164TIP3    H139907   2.088   3.821   4.179 -0.6319 -0.5709 -0.0415
 6164TIP3    H239908   2.173   3.800   4.302  1.0293  1.1230 -0.8322
 6165TIP3   OH239909   0.298   3.955  15.796  0.2912 -0.0340 -0.3100
 6165TIP3    H139910   0.245   3.891  15.748  1.4642 -0.4472 -1.0717
 6165TIP3    H239911   0.248   4.037  15.790  0.0582 -0.2547 -1.5848
 6166TIP3   OH239912   5.195   2.781   2.907  0.6425 -0.0399  0.2329
 6166TIP3    H139913   5.245   2.734   2.841 -0.4763 -0.2421 -0.4906
 6166TIP3    H239914   5.258   2.841   2.947  1.4218 -0.1963 -0.7443
 6167TIP3   OH239915   6.669   3.581  17.291 -0.4902 -0.0015  0.4370
 6167TIP3    H139916   6.623   3.500  17.270  0.0801 -0.4816  0.9913
 6167TIP3    H239917   6.688   3.621  17.206 -1.9997  0.2581  0.2072
 6168TIP3   OH239918   2.961   1.856   0.608  0.4696  0.4916 -0.1095
 6168TIP3    H139919   3.001   1.777   0.644 -0.8555  0.2858  1.0255
 6168TIP3    H239920   3.018   1.882   0.536  0.9330 -1.5099 -0.5183
 6169TIP3   OH239921   6.081   0.848  12.963 -0.9013  0.2654 -0.4976
 6169TIP3    H139922   6.086   0.823  12.871 -0.8357 -0.4595 -0.3081
 6169TIP3    H239923   6.079   0.943  12.963  2.0168  0.4066 -1.1301
 6170TIP3   OH239924   5.279   0.437  14.999 -0.0280  0.0249  0.1461
 6170TIP3    H139925   5.289   0.533  15.004 -2.3548  0.3001  0.3009
 6170TIP3    H239926   5.240   0.412  15.082 -2.1683 -0.6389 -1.0009
 6171TIP3   OH239927   0.572   3.998   2.907 -0.3868  0.2304  0.0939
 6171TIP3    H139928   0.486   4.005   2.865 -0.2622  0.4893 -0.1217
 6171TIP3    H239929   0.634   4.002   2.835 -0.1538  1.1535  0.3287
 6172TIP3   OH239930   0.495   1.503  13.163  0.4925 -0.5267  0.4610
 6172TIP3    H139931   0.416   1.527  13.213  1.2282  2.2914  0.4560
 6172TIP3    H239932   0.490   1.557  13.084  2.7950  0.4125  0.8722
 6173TIP3   OH239933   3.358   2.219  13.456 -0.5641 -0.0716  0.3709
 6173TIP3    H139934   3.441   2.252  13.491 -0.1727 -1.5609  0.9369
 6173TIP3    H239935   3.292   2.277  13.493  0.0233 -0.3241  1.8970
 6174TIP3   OH239936   4.799   0.484  14.049 -0.1427  0.3550  0.1507
 6174TIP3    H139937   4.748   0.557  14.085 -1.0101 -0.0501 -0.2258
 6174TIP3    H239938   4.890   0.507  14.067 -0.5091  0.2336  2.5115
 6175TIP3   OH239939   0.701   3.840   5.153 -0.3375  0.0181 -0.0396
 6175TIP3    H139940   0.624   3.894   5.171 -0.8363 -0.7582  0.1772
 6175TIP3    H239941   0.758   3.854   5.229 -1.4871 -1.5543  1.1777
 6176TIP3   OH239942   5.035   4.128  16.977  0.4558  0.3850  0.3190
 6176TIP3    H139943   4.966   4.171  16.927 -2.4969 -1.5334  2.4544
 6176TIP3    H239944   5.061   4.053  16.923 -1.4261 -0.6615  0.7963
 6177TIP3   OH239945   6.723   1.374   2.902 -0.2645 -0.2252  0.3411
 6177TIP3    H139946   6.732   1.300   2.842  0.2120  0.3557 -0.3164
 6177TIP3    H239947   6.650   1.425   2.866 -0.6126 -0.3887  0.8096
 6178TIP3   OH239948   1.226   1.670   3.369  0.1577 -0.3395  0.7396
 6178TIP3    H139949   1.142   1.644   3.332  0.3737 -0.8098  0.5720
 6178TIP3    H239950   1.244   1.756   3.330 -1.4168  0.9589  2.6742
 6179TIP3   OH239951   5.296   6.559   2.372 -0.1177  0.2491  0.2452
 6179TIP3    H139952   5.212   6.530   2.336  0.2974 -0.6890 -0.0018
 6179TIP3    H239953   5.272   6.614   2.447 -0.9927  2.1238 -1.3239
 6180TIP3   OH239954   0.850   2.877   3.089  0.3727  0.5201  0.0122
 6180TIP3    H139955   0.787   2.947   3.106  0.1683  0.3619 -0.0858
 6180TIP3    H239956   0.927   2.901   3.140  0.0768  0.4973  0.4783
 6181TIP3   OH239957   0.714   2.803  14.307  0.2918  0.0180 -0.3409
 6181TIP3    H139958   0.728   2.709  14.296  0.5619  0.0021  0.1035
 6181TIP3    H239959   0.724   2.818  14.401  0.0198  0.4553 -0.3777
 6182TIP3   OH239960   2.046   5.848   1.852 -0.2748 -0.0159  0.9020
 6182TIP3    H139961   2.111   5.875   1.916  1.2358 -0.9437 -0.1770
 6182TIP3    H239962   2.091   5.785   1.796 -1.9777 -0.3793 -0.1615
 6183TIP3   OH239963   1.900   2.762  12.296  0.7122 -0.5959 -0.1101
 6183TIP3    H139964   1.853   2.796  12.372  2.8810  0.4513  0.8540
 6183TIP3    H239965   1.841   2.696  12.259 -2.5959  2.3471 -0.5714
 6184TIP3   OH239966   3.800   0.894  13.804  0.5030  0.0482  0.3973
 6184TIP3    H139967   3.730   0.896  13.739  0.6836  0.4653  0.2130
 6184TIP3    H239968   3.770   0.956  13.872  0.8178  0.4372  0.1855
 6185TIP3   OH239969   0.243   1.799   1.922  0.1200 -0.0588  0.7020
 6185TIP3    H139970   0.310   1.814   1.856 -0.0907  0.6686  0.6512
 6185TIP3    H239971   0.171   1.756   1.875 -0.5238  1.5278  0.1828
 6186TIP3   OH239972   1.472   0.681  12.833 -0.5079  0.6290  0.0587
 6186TIP3    H139973   1.385   0.644  12.818  0.1441 -1.3259  0.8212
 6186TIP3    H239974   1.514   0.676  12.747 -0.8220  0.7504 -0.1082
 6187TIP3   OH239975   2.748   2.194  10.942  0.3595 -0.1477 -0.4467
 6187TIP3    H139976   2.792   2.272  10.908  1.2061  0.0205  0.9704
 6187TIP3    H239977   2.747   2.207  11.037  0.7585 -1.9976 -0.1664
 6188TIP3   OH239978   4.193   1.330  12.988  0.8414  0.2622 -0.0553
 6188TIP3    H139979   4.183   1.422  12.966  1.5966  0.2309 -0.5998
 6188TIP3    H239980   4.178   1.325  13.082  0.8074  0.9441 -0.0223
 6189TIP3   OH239981   2.065   4.189  14.028  0.3475  0.0509 -0.2799
 6189TIP3    H139982   2.111   4.117  14.072 -0.4692 -0.7285 -0.6709
 6189TIP3    H239983   1.994   4.212  14.087 -0.9135 -1.1733 -1.2307
 6190TIP3   OH239984   1.698   1.720  14.826  0.3655 -0.2590 -0.1043
 6190TIP3    H139985   1.690   1.702  14.920 -0.0806 -1.1318 -0.2994
 6190TIP3    H239986   1.767   1.661  14.797  0.5710  0.0830 -0.3103
 6191TIP3   OH239987   0.984   5.759  11.056  0.7334 -0.4282  0.3539
 6191TIP3    H139988   1.034   5.801  10.986  0.7607 -2.0403 -0.6458
 6191TIP3    H239989   0.922   5.702  11.011 -0.1311 -0.5574  1.6328
 6192TIP3   OH239990   2.376   0.263   5.282 -0.1368 -0.0816 -0.4422
 6192TIP3    H139991   2.353   0.305   5.199  0.2714 -0.1067 -0.5687
 6192TIP3    H239992   2.460   0.220   5.265  0.5540  0.9298  0.3191
 6193TIP3   OH239993   4.507   3.499  12.824  0.0817 -0.5892 -0.2816
 6193TIP3    H139994   4.414   3.507  12.846 -0.0490  1.2930 -1.3902
 6193TIP3    H239995   4.534   3.418  12.868 -1.2705  0.4691  2.8519
 6194TIP3   OH239996   4.241   1.663   1.415 -0.1627  0.0787 -0.2311
 6194TIP3    H139997   4.191   1.586   1.389  1.3210 -0.9567 -0.1433
 6194TIP3    H239998   4.176   1.733   1.424 -1.5537 -1.1911 -0.1702
 6195TIP3   OH239999   4.422   3.793   5.356 -0.1865  0.1493 -0.1026
 6195TIP3    H140000   4.450   3.707   5.388  2.6711  0.9198 -0.2821
 6195TIP3    H240001   4.504   3.841   5.340 -1.6639  2.9399  0.0569
 6196TIP3   OH240002   5.198   1.629  17.021 -0.1295 -0.2733  0.7091
 6196TIP3    H140003   5.149   1.658  16.944 -0.5057  1.1468  1.4542
 6196TIP3    H240004   5.224   1.539  17.000 -0.1857  0.0825 -1.0909
 6197TIP3   OH240005   1.100   2.236   0.717 -1.0654  1.0298 -0.1801
 6197TIP3    H140006   1.028   2.282   0.760 -2.2843 -0.4514 -0.5344
 6197TIP3    H240007   1.086   2.144   0.739  1.4162  0.7963  0.6969
 6198TIP3   OH240008   4.441   1.095  13.802  0.0490  0.7996  0.0187
 6198TIP3    H140009   4.467   1.176  13.759  1.2479 -0.6380 -2.1912
 6198TIP3    H240010   4.502   1.086  13.876 -0.2674  2.0110  0.4338
 6199TIP3   OH240011   5.379   0.240  14.759 -0.8468  0.2221 -0.3179
 6199TIP3    H140012   5.391   0.284  14.675  2.1604 -1.7309 -1.0371
 6199TIP3    H240013   5.414   0.301  14.823  2.1114 -0.4455 -1.1730
 6200TIP3   OH240014   0.206   4.657   1.371  0.3204 -0.0949 -0.3413
 6200TIP3    H140015   0.209   4.637   1.465 -0.7358  0.5188 -0.1669
 6200TIP3    H240016   0.228   4.574   1.329 -2.4004 -1.2747  0.3951
 6201TIP3   OH240017   5.988   5.469  11.400 -0.0607 -0.2276 -0.1485
 6201TIP3    H140018   5.989   5.425  11.315  1.9920 -1.1648  0.2836
 6201TIP3    H240019   5.980   5.562  11.379  2.5388 -0.2184 -1.5790
 6202TIP3   OH240020   3.574   0.060  14.927 -0.3984 -0.5211  0.6647
 6202TIP3    H140021   3.604  -0.031  14.930  0.2607 -0.3271  0.2850
 6202TIP3    H240022   3.565   0.085  15.018 -1.3664 -1.2089  0.7733
 6203TIP3   OH240023   1.650   3.594  12.652  0.2169 -0.3345 -0.2600
 6203TIP3    H140024   1.589   3.638  12.593  3.3676  1.9539 -2.1342
 6203TIP3    H240025   1.659   3.655  12.726  0.4630 -0.5150 -0.1394
 6204TIP3   OH240026   6.718   5.005   4.273  0.0653  0.5028 -0.0171
 6204TIP3    H140027   6.805   4.966   4.268 -0.3651 -0.3619 -1.3112
 6204TIP3    H240028   6.699   5.010   4.367  0.2447 -2.2310  0.2482
 6205TIP3   OH240029   4.559   1.686   6.445  0.3463 -0.4548 -0.3482
 6205TIP3    H140030   4.531   1.623   6.512 -0.8607  0.7050  0.2970
 6205TIP3    H240031   4.477   1.721   6.410  0.9841 -0.0091 -1.4320
 6206TIP3   OH240032   3.810   2.631   2.948  0.1763  0.0158  0.2266
 6206TIP3    H140033   3.791   2.717   2.987  0.7770 -0.4848  1.6836
 6206TIP3    H240034   3.726   2.586   2.949 -0.7726  1.4666 -3.0103
 6207TIP3   OH240035   1.972   1.719  12.875 -0.3443 -0.6563  0.7131
 6207TIP3    H140036   1.941   1.643  12.825 -0.4264 -0.9229  1.1575
 6207TIP3    H240037   2.029   1.766  12.815  1.8177 -2.4563  1.1820
 6208TIP3   OH240038   2.022   4.380   4.452  0.1254 -0.1781 -0.0991
 6208TIP3    H140039   2.057   4.469   4.460  0.2298 -0.1142 -1.0913
 6208TIP3    H240040   1.927   4.392   4.452  0.1348 -0.0967  0.0213
 6209TIP3   OH240041   3.288   4.362   2.786  0.3665 -0.3049  0.5997
 6209TIP3    H140042   3.210   4.317   2.819  0.2556 -0.3496  0.2774
 6209TIP3    H240043   3.360   4.327   2.839  0.3739 -1.3276 -0.0587
 6210TIP3   OH240044   6.515   4.778  13.867  0.2058 -0.7884 -0.0644
 6210TIP3    H140045   6.514   4.683  13.873  2.2157 -0.7815  1.6989
 6210TIP3    H240046   6.480   4.809  13.950  0.1717  0.0015 -0.3579
 6211TIP3   OH240047   1.863   5.284   5.778 -0.4023  0.0376  0.6549
 6211TIP3    H140048   1.844   5.311   5.688 -0.9917  1.3139  1.1277
 6211TIP3    H240049   1.861   5.189   5.776  0.1611  0.0411 -0.7945
 6212TIP3   OH240050   5.768   2.665  11.536  0.3571 -0.4292 -0.0028
 6212TIP3    H140051   5.695   2.604  11.526 -0.4926  0.6655 -0.7683
 6212TIP3    H240052   5.755   2.729  11.466  1.3949  0.4473  0.5787
 6213TIP3   OH240053   5.818   2.265   2.768 -0.3807  0.1453  0.2009
 6213TIP3    H140054   5.729   2.293   2.790  0.3738  2.2966  0.7131
 6213TIP3    H240055   5.818   2.171   2.784 -2.5914  0.0757  0.0666
 6214TIP3   OH240056   0.032   6.046  13.068  0.0227  0.3070  0.4191
 6214TIP3    H140057   0.080   5.971  13.034  0.8750  1.1939 -0.4241
 6214TIP3    H240058  -0.053   6.041  13.025 -0.8659 -1.5222  2.2528
 6215TIP3   OH240059   3.946   1.144  16.674 -0.2488  0.0393  0.0113
 6215TIP3    H140060   3.857   1.161  16.706 -0.9394 -0.8407 -1.3197
 6215TIP3    H240061   3.936   1.068  16.616  1.5004 -0.4975  0.3545
 6216TIP3   OH240062   5.981   2.510  11.429 -0.4411 -0.4229  0.2521
 6216TIP3    H140063   5.908   2.457  11.399  0.0118  0.1924 -2.1893
 6216TIP3    H240064   5.941   2.592  11.458 -0.8702 -0.8090  0.7548
 6217TIP3   OH240065   4.262   4.698  16.352  0.0355 -0.0781 -0.0307
 6217TIP3    H140066   4.180   4.661  16.320 -0.5137  0.3690  0.8333
 6217TIP3    H240067   4.297   4.631  16.411 -0.1316  0.0744  0.2454
 6218TIP3   OH240068   5.215   6.670   4.051 -0.1109 -0.2604  0.0900
 6218TIP3    H140069   5.175   6.720   3.980 -1.4285 -0.4120  0.7000
 6218TIP3    H240070   5.299   6.713   4.066 -0.8269  1.2302  0.0058
 6219TIP3   OH240071   1.094   4.582  15.065  0.1416 -0.1698  0.3367
 6219TIP3    H140072   1.053   4.496  15.071  1.1558 -0.5761  2.1136
 6219TIP3    H240073   1.150   4.587  15.142  0.9599  1.6476 -0.3290
 6220TIP3   OH240074   4.387   5.877   3.037  0.7343  0.0142  0.2413
 6220TIP3    H140075   4.462   5.818   3.035  0.5949 -0.2301  1.4294
 6220TIP3    H240076   4.319   5.832   2.986  0.4588 -1.1098  1.5626
 6221TIP3   OH240077   5.627   5.201  14.934 -0.0923 -0.2468 -0.3284
 6221TIP3    H140078   5.618   5.174  14.842 -0.7617 -0.1047 -0.3106
 6221TIP3    H240079   5.537   5.206  14.966  0.1349 -4.2630  1.5018
 6222TIP3   OH240080   5.238   1.124   4.432  0.7371  0.1616  0.9572
 6222TIP3    H140081   5.271   1.206   4.466  1.6796 -0.0649  0.6079
 6222TIP3    H240082   5.261   1.059   4.499  0.4386  0.1025  1.0032
 6223TIP3   OH240083   5.541   5.412   6.228  0.4793 -0.9333 -0.2370
 6223TIP3    H140084   5.467   5.435   6.284  1.3702  0.4707  0.3916
 6223TIP3    H240085   5.500   5.387   6.145 -0.6725  0.9430 -0.2976
 6224TIP3   OH240086   6.657   3.808   5.986 -0.0210  0.1476 -0.1105
 6224TIP3    H140087   6.653   3.713   5.975  0.6063 -0.0478  1.1737
 6224TIP3    H240088   6.590   3.828   6.051 -0.2158  0.6029 -0.4461
 6225TIP3   OH240089   4.531   6.618  15.102  0.1403 -0.1213 -0.0642
 6225TIP3    H140090   4.486   6.698  15.074  0.4742 -0.5017 -1.8437
 6225TIP3    H240091   4.580   6.590  15.024 -0.5017 -2.4339  0.2769
 6226TIP3   OH240092   3.312   3.492   3.999 -0.2833  0.4837 -0.6800
 6226TIP3    H140093   3.273   3.413   4.039  1.0735  0.3044  0.3647
 6226TIP3    H240094   3.338   3.545   4.073  1.3163  0.6573 -1.3422
 6227TIP3   OH240095   6.272   5.125  17.405 -0.0161  0.5368  0.2312
 6227TIP3    H140096   6.365   5.115  17.427  0.2705  2.7153  0.1764
 6227TIP3    H240097   6.243   5.200  17.456 -1.6962  0.0942 -0.0043
 6228TIP3   OH240098   1.842   5.937   0.265  0.5257  0.1743 -0.0241
 6228TIP3    H140099   1.749   5.950   0.281  0.5727 -0.3121  0.7108
 6228TIP3    H240100   1.848   5.915   0.172 -0.3286 -1.7468  0.3142
 6229TIP3   OH240101   2.634   1.150  15.765 -0.2885 -0.0550 -0.5802
 6229TIP3    H140102   2.587   1.068  15.779 -1.4838  0.4986 -1.2070
 6229TIP3    H240103   2.697   1.129  15.695 -1.7281 -0.0499 -1.9419
 6230TIP3   OH240104   3.872   0.550   2.725  0.7003  0.4985 -0.2449
 6230TIP3    H140105   3.921   0.560   2.807  0.1580 -0.0440  0.1496
 6230TIP3    H240106   3.883   0.458   2.702  1.0876  0.7135 -0.9385
 6231TIP3   OH240107   2.897   0.513  14.266 -0.0889 -0.3484  0.0069
 6231TIP3    H140108   2.824   0.475  14.217 -1.2157 -1.6230  2.5090
 6231TIP3    H240109   2.938   0.439  14.309  0.6936  0.7377  1.1846
 6232TIP3   OH240110   2.112   1.887  17.379 -0.7813 -0.2680 -0.5524
 6232TIP3    H140111   2.196   1.888  17.424 -0.8261  2.4292 -0.3591
 6232TIP3    H240112   2.131   1.854  17.292  0.0446 -1.7507  0.1529
 6233TIP3   OH240113   3.225   3.582  11.804 -0.2247 -0.2980 -0.2330
 6233TIP3    H140114   3.144   3.550  11.763  0.3924 -0.6051 -1.2331
 6233TIP3    H240115   3.260   3.646  11.742  0.2143 -0.0391  0.2746
 6234TIP3   OH240116   0.471   3.798  11.184  0.5673 -0.0265  0.1615
 6234TIP3    H140117   0.441   3.885  11.210  1.1644  0.6174 -1.1701
 6234TIP3    H240118   0.535   3.815  11.114  0.8722 -1.5264  0.0423
 6235TIP3   OH240119   3.724   3.152   0.379 -0.2956 -0.2676  0.0076
 6235TIP3    H140120   3.652   3.215   0.381  1.7739  2.2716  0.5392
 6235TIP3    H240121   3.764   3.164   0.293 -0.7261 -2.0337 -0.4929
 6236TIP3   OH240122   5.127   6.392  11.001  0.0025  0.3628 -0.2236
 6236TIP3    H140123   5.129   6.297  11.012 -0.2852  0.3519 -0.2612
 6236TIP3    H240124   5.046   6.420  11.043 -0.3360  0.4966 -0.9409
 6237TIP3   OH240125   4.058   2.780  11.396 -0.1411 -0.3510 -0.3314
 6237TIP3    H140126   3.972   2.761  11.357  0.5981 -1.2912 -1.6032
 6237TIP3    H240127   4.099   2.694  11.404 -0.3021 -0.2267  2.7736
 6238TIP3   OH240128   3.430   5.543  16.222  0.2311  0.1665 -0.4085
 6238TIP3    H140129   3.349   5.497  16.200 -0.2283  1.2213 -0.9744
 6238TIP3    H240130   3.403   5.617  16.276  0.7658  0.7383 -0.9027
 6239TIP3   OH240131   0.060   6.310  11.140  0.2873 -0.4714  0.3264
 6239TIP3    H140132   0.003   6.270  11.074 -1.0418 -2.6786  2.6651
 6239TIP3    H240133   0.141   6.259  11.135  0.6973  0.2185 -0.4188
 6240TIP3   OH240134   5.875   4.869  14.489 -0.1453 -0.5255 -0.3687
 6240TIP3    H140135   5.966   4.841  14.482 -0.0713 -0.3364 -0.1649
 6240TIP3    H240136   5.848   4.843  14.577  0.4424  1.5247  0.4806
 6241TIP3   OH240137   5.471   4.552  14.716  0.5306  0.0373 -0.6998
 6241TIP3    H140138   5.505   4.568  14.804  0.8201 -1.5651 -0.4903
 6241TIP3    H240139   5.510   4.469  14.689 -3.2477 -2.0787 -0.3552
 6242TIP3   OH240140   2.627   2.333  13.156  0.4348 -0.2212  0.3539
 6242TIP3    H140141   2.685   2.290  13.094  0.9851  1.4273 -0.3225
 6242TIP3    H240142   2.548   2.353  13.106  1.4242  2.4074 -0.3401
 6243TIP3   OH240143   4.064   4.680   2.880  0.3596 -0.1888 -0.7150
 6243TIP3    H140144   4.152   4.715   2.865 -0.0706  2.3694  1.8010
 6243TIP3    H240145   4.068   4.642   2.968 -0.5478 -2.1324 -1.4507
 6244TIP3   OH240146   3.930   6.412   3.817 -0.2769 -0.4954 -0.3232
 6244TIP3    H140147   3.922   6.408   3.912 -1.0072  0.7177 -0.3197
 6244TIP3    H240148   4.021   6.385   3.800  0.0761 -0.0545  0.7672
 6245TIP3   OH240149   6.596   1.028  15.930  0.5952 -0.2116  0.2588
 6245TIP3    H140150   6.509   1.033  15.890  0.1876 -1.0684  1.0176
 6245TIP3    H240151   6.580   1.003  16.021  1.6392 -0.3715  0.4142
 6246TIP3   OH240152   2.646   3.836  11.227  0.3478 -0.4674 -0.1167
 6246TIP3    H140153   2.581   3.770  11.253  0.8731 -1.3133 -0.9054
 6246TIP3    H240154   2.701   3.792  11.163  0.9345  0.6402 -0.4002
 6247TIP3   OH240155   0.986   1.322   4.060  0.1293  0.3570  0.1277
 6247TIP3    H140156   0.932   1.244   4.059 -1.4580  1.3905 -2.0052
 6247TIP3    H240157   1.076   1.289   4.071 -0.7014 -1.5291  1.8048
 6248TIP3   OH240158   3.109   4.139   5.007 -0.3443  0.0515 -0.1491
 6248TIP3    H140159   3.046   4.163   4.940 -0.8697 -1.4805 -0.2416
 6248TIP3    H240160   3.105   4.044   5.010  0.4658  0.0420  1.2960
 6249TIP3   OH240161   5.845   4.981  12.438 -0.0776 -0.7415 -1.0256
 6249TIP3    H140162   5.782   4.982  12.366 -1.5969 -2.2254  0.2041
 6249TIP3    H240163   5.875   4.890  12.442 -0.2408 -0.7469  0.3750
 6250TIP3   OH240164   4.274   3.447   1.173  0.1414  0.1552  0.3501
 6250TIP3    H140165   4.344   3.512   1.171 -0.9814  1.4071 -0.1054
 6250TIP3    H240166   4.319   3.363   1.167  1.7061  0.8173  1.8902
 6251TIP3   OH240167   3.533   6.218  14.951  0.3668  0.5941  0.4711
 6251TIP3    H140168   3.617   6.174  14.932  0.8166  1.5134  0.2737
 6251TIP3    H240169   3.475   6.147  14.978  0.5289 -0.3996 -1.5987
 6252TIP3   OH240170   6.519   1.536   3.544  0.0406  0.7662  0.4809
 6252TIP3    H140171   6.495   1.524   3.636  0.9713 -0.8848  0.5628
 6252TIP3    H240172   6.509   1.448   3.506  0.4343  1.2623 -0.8049
 6253TIP3   OH240173   2.511   0.518  11.169 -0.3100  0.0768 -0.4622
 6253TIP3    H140174   2.585   0.498  11.112  0.3267  0.7322  0.1149
 6253TIP3    H240175   2.458   0.438  11.169 -1.0472  0.4869 -3.0221
 6254TIP3   OH240176   2.938   6.012  12.261 -0.5040  0.1116  0.4602
 6254TIP3    H140177   2.867   5.959  12.227 -0.4150  0.0430  0.3838
 6254TIP3    H240178   3.016   5.984  12.213 -0.1486 -0.8076  1.5188
 6255TIP3   OH240179   5.798   3.450  12.828 -0.2219 -0.2386 -0.0153
 6255TIP3    H140180   5.872   3.457  12.768 -0.2844 -0.5496 -0.1311
 6255TIP3    H240181   5.722   3.446  12.771 -0.2394 -1.1187  0.0584
 6256TIP3   OH240182   6.561   4.182  14.533  0.2441  0.0712  0.0947
 6256TIP3    H140183   6.535   4.134  14.611  3.3928 -0.7419  0.7586
 6256TIP3    H240184   6.608   4.118  14.480  0.9470  1.4131 -0.9595
 6257TIP3   OH240185   5.062   5.979  11.233 -0.7454 -0.1079  0.2502
 6257TIP3    H140186   5.095   6.053  11.182  1.0543 -0.5487  0.6741
 6257TIP3    H240187   4.999   5.936  11.175  1.0152 -0.4408 -1.5722
 6258TIP3   OH240188   5.737   6.427   3.170 -0.0956 -0.3499  0.0314
 6258TIP3    H140189   5.647   6.458   3.156  0.2649  0.2222 -1.1110
 6258TIP3    H240190   5.727   6.338   3.205 -1.1019 -1.1616 -2.1655
 6259TIP3   OH240191   0.595   5.998  17.011 -0.5522 -0.4995 -0.5331
 6259TIP3    H140192   0.675   5.962  16.972 -0.8155  1.2870 -2.9517
 6259TIP3    H240193   0.525   5.965  16.956 -1.4489 -1.3693  1.0695
 6260TIP3   OH240194   1.256   4.371  16.836 -0.8661 -0.2989 -0.5153
 6260TIP3    H140195   1.253   4.347  16.928  0.4407  1.8119  0.1472
 6260TIP3    H240196   1.346   4.356  16.809 -0.7302  0.9768 -0.8630
 6261TIP3   OH240197   5.145   4.628  13.452 -0.1279 -0.1017  0.1446
 6261TIP3    H140198   5.089   4.555  13.425  0.4403 -0.1908 -0.8321
 6261TIP3    H240199   5.127   4.638  13.545 -2.2987  0.3200 -0.2493
 6262TIP3   OH240200   0.461   6.582   6.057 -0.0219  0.4106 -0.0545
 6262TIP3    H140201   0.484   6.647   6.123  1.4017 -0.7610  0.6491
 6262TIP3    H240202   0.367   6.597   6.041  0.3766  3.0714 -0.4524
 6263TIP3   OH240203   0.581   6.368  16.470  0.3603 -0.2209  0.4954
 6263TIP3    H140204   0.556   6.451  16.431  0.3212 -0.1613  0.6439
 6263TIP3    H240205   0.534   6.302  16.420 -2.8230  0.0345  2.7983
 6264TIP3   OH240206   2.933   0.199  14.431 -0.7333 -0.1285 -0.1070
 6264TIP3    H140207   2.992   0.196  14.356 -0.3212 -2.4768  0.2285
 6264TIP3    H240208   2.855   0.244  14.400 -0.5077 -0.9153 -1.9091
 6265TIP3   OH240209   4.309   5.791  15.703  0.3925  0.0276 -0.3092
 6265TIP3    H140210   4.311   5.790  15.607  0.1750 -0.9667 -0.3103
 6265TIP3    H240211   4.386   5.740  15.729 -0.3727 -0.9821  0.0249
 6266TIP3   OH240212   3.052   3.866  15.483  0.1618  0.2725 -0.3064
 6266TIP3    H140213   3.119   3.807  15.516  1.3465  0.6338 -1.9580
 6266TIP3    H240214   2.990   3.875  15.556  1.6011 -0.4941  1.0636
 6267TIP3   OH240215   5.469   6.192  13.692 -0.0882  0.7496 -0.2949
 6267TIP3    H140216   5.522   6.200  13.613  2.4499  2.3087  1.4279
 6267TIP3    H240217   5.430   6.105  13.687  1.3091  0.1800 -2.4613
 6268TIP3   OH240218   2.488   4.913  11.905  0.6449  0.0793 -0.0841
 6268TIP3    H140219   2.559   4.856  11.873 -0.2567 -1.1122 -0.0238
 6268TIP3    H240220   2.498   4.994  11.854  1.5579 -0.3621 -0.6410
 6269TIP3   OH240221   0.699   4.407   1.976 -0.4320 -0.0747 -0.0413
 6269TIP3    H140222   0.709   4.372   1.888 -0.5000  2.0612 -0.9689
 6269TIP3    H240223   0.765   4.362   2.028  1.6618  0.6847 -1.8745
 6270TIP3   OH240224   1.841   6.259  14.229  0.3943 -0.3934  0.5681
 6270TIP3    H140225   1.884   6.196  14.285  1.0593 -0.7137 -0.2774
 6270TIP3    H240226   1.849   6.223  14.141  0.6985  0.8045  0.0764
 6271TIP3   OH240227   4.350   0.666   1.574  0.0206  0.4571  0.2422
 6271TIP3    H140228   4.438   0.628   1.571 -0.6777 -1.2178 -2.7703
 6271TIP3    H240229   4.291   0.590   1.582 -1.2178  1.3796  0.2107
 6272TIP3   OH240230   3.790   2.317   6.446  0.7673  0.0606  0.4782
 6272TIP3    H140231   3.739   2.396   6.466 -0.2331 -0.4751  0.1102
 6272TIP3    H240232   3.880   2.341   6.467  0.2204  0.6147  2.4295
 6273TIP3   OH240233   0.244   2.797  16.291  0.0801 -0.7134  0.5332
 6273TIP3    H140234   0.318   2.837  16.245 -0.5031  1.9919  1.7990
 6273TIP3    H240235   0.171   2.804  16.231 -0.2594  1.1673  1.1201
 6274TIP3   OH240236   0.476   3.619  16.999  0.4658 -0.0124 -0.1795
 6274TIP3    H140237   0.407   3.674  17.036  1.4787  0.2601  1.3841
 6274TIP3    H240238   0.429   3.559  16.941 -1.1124  0.0644  0.9367
 6275TIP3   OH240239   0.707   0.303  16.287  0.3919 -0.1927 -0.2066
 6275TIP3    H140240   0.715   0.373  16.351  0.1572 -0.8842  0.5940
 6275TIP3    H240241   0.723   0.346  16.203 -1.9939  1.2752  0.0145
 6276TIP3   OH240242   4.486   2.247   6.315 -0.0583  0.0432  0.3406
 6276TIP3    H140243   4.489   2.321   6.375 -2.1862  0.9762 -0.6047
 6276TIP3    H240244   4.418   2.190   6.350  0.9586 -1.0639  0.5760
 6277TIP3   OH240245   3.364   1.332  14.301 -0.1488  0.3212  0.8114
 6277TIP3    H140246   3.445   1.373  14.271 -0.2469 -1.0281 -1.6027
 6277TIP3    H240247   3.392   1.252  14.346 -0.0650 -0.6902 -0.9216
 6278TIP3   OH240248   2.875   6.011   0.471 -0.2923  0.2672 -0.3262
 6278TIP3    H140249   2.884   6.105   0.489  0.1768 -0.3078  3.1105
 6278TIP3    H240250   2.786   5.989   0.498 -0.2314 -0.4010 -0.6406
 6279TIP3   OH240251   4.078   0.267  15.824  0.2162 -0.0699  0.0103
 6279TIP3    H140252   4.037   0.190  15.784 -1.3868  0.7205  0.0635
 6279TIP3    H240253   4.115   0.315  15.749 -0.2553 -0.0459 -0.2114
 6280TIP3   OH240254   0.388   4.387   4.456  0.0792 -0.0571 -0.1970
 6280TIP3    H140255   0.478   4.355   4.462 -0.8020 -2.9601 -0.5069
 6280TIP3    H240256   0.373   4.434   4.538  1.1995 -1.5780  0.9348
 6281TIP3   OH240257   3.159   0.173   6.430  0.5809  0.1351  0.4349
 6281TIP3    H140258   3.107   0.095   6.449 -0.6036  0.7060 -0.3767
 6281TIP3    H240259   3.247   0.139   6.410  0.8496 -0.7780  2.8102
 6282TIP3   OH240260   3.872   5.957  14.898  0.8444  0.4366 -0.1523
 6282TIP3    H140261   3.835   5.945  14.986  1.7576  0.7437  0.2883
 6282TIP3    H240262   3.870   6.052  14.885 -1.5510  0.2905 -1.4944
 6283TIP3   OH240263   3.397   5.193   5.244 -0.4395  0.0029  0.5401
 6283TIP3    H140264   3.357   5.142   5.174  1.0236  0.3321 -0.5675
 6283TIP3    H240265   3.402   5.282   5.209  2.2328 -0.2241  0.1636
 6284TIP3   OH240266   2.274   1.462   5.610  0.4003  0.4535 -0.0983
 6284TIP3    H140267   2.186   1.498   5.604  0.6200  0.8930 -0.8560
 6284TIP3    H240268   2.267   1.391   5.673 -0.2844  1.1102  0.5829
 6285TIP3   OH240269   4.541   6.659  11.855  0.1666  0.2265  0.0081
 6285TIP3    H140270   4.566   6.658  11.947 -1.9841 -0.1812  0.6513
 6285TIP3    H240271   4.483   6.583  11.845  2.4054 -1.3578 -2.3544
 6286TIP3   OH240272   5.985   4.691  16.967 -0.1442  0.3227 -0.2298
 6286TIP3    H140273   5.994   4.683  17.062  0.7849 -1.3627 -0.4288
 6286TIP3    H240274   5.932   4.770  16.955 -3.1939 -1.2018  1.8166
 6287TIP3   OH240275   3.149   0.760  15.764  0.6099  0.4665 -0.3679
 6287TIP3    H140276   3.184   0.690  15.820 -0.7686  0.8149  1.0085
 6287TIP3    H240277   3.096   0.714  15.699  1.6028  0.0960 -0.9257
 6288TIP3   OH240278   5.532   2.917   4.195  0.4569  0.0596  0.2496
 6288TIP3    H140279   5.586   2.848   4.155 -0.8388 -0.6476 -0.3625
 6288TIP3    H240280   5.443   2.882   4.191 -0.7215  2.8283 -2.6199
 6289TIP3   OH240281   6.318   6.702   2.786  0.0220  0.5863  0.2926
 6289TIP3    H140282   6.357   6.775   2.738  0.8500 -1.3735 -2.2334
 6289TIP3    H240283   6.392   6.652   2.819 -0.5376  1.0909  2.4592
 6290TIP3   OH240284   4.189   3.977   4.757  0.5131  0.3763 -0.3787
 6290TIP3    H140285   4.205   3.997   4.665  0.6523 -0.5823 -0.5719
 6290TIP3    H240286   4.276   3.967   4.795  0.4426 -0.7134 -0.4860
 6291TIP3   OH240287   1.614   0.794   1.398 -0.4065 -0.1721 -0.8520
 6291TIP3    H140288   1.644   0.797   1.307  7.1750  1.3098  1.0469
 6291TIP3    H240289   1.605   0.885   1.424 -0.0795 -0.4930  0.4675
 6292TIP3   OH240290   1.832   4.308  13.101  0.0923  0.1943  1.0030
 6292TIP3    H140291   1.772   4.369  13.144 -0.5348  0.3613 -0.0848
 6292TIP3    H240292   1.775   4.237  13.071  0.6760 -0.4310  1.3595
 6293TIP3   OH240293   4.860   6.143  14.217  0.5805 -0.1419 -0.4436
 6293TIP3    H140294   4.928   6.210  14.217  2.0079 -1.5438 -0.7762
 6293TIP3    H240295   4.898   6.069  14.171 -1.5089 -0.6682 -1.4544
 6294TIP3   OH240296   5.117   4.905   6.184 -0.0357  0.3185  0.3038
 6294TIP3    H140297   5.033   4.861   6.172  0.6522 -0.6554 -1.3179
 6294TIP3    H240298   5.180   4.850   6.136  1.5146  1.0714  1.3869
 6295TIP3   OH240299   6.016   2.561   1.613  0.0320  0.1722  0.2610
 6295TIP3    H140300   6.096   2.542   1.662 -0.5933 -0.1557  1.2043
 6295TIP3    H240301   6.039   2.634   1.556  0.4053  1.6321  2.1577
 6296TIP3   OH240302   4.392   2.227   0.993  0.2795  0.7244  0.4561
 6296TIP3    H140303   4.306   2.212   1.033 -0.0539  1.0272 -0.1317
 6296TIP3    H240304   4.455   2.206   1.062 -0.2255 -0.8817  0.4581
 6297TIP3   OH240305   2.662   2.580   5.428  0.5180  0.3192  0.7428
 6297TIP3    H140306   2.682   2.630   5.507  2.5256 -0.1757  0.6017
 6297TIP3    H240307   2.667   2.645   5.357  2.6375  0.1065  0.6177
 6298TIP3   OH240308   5.388   2.118   1.529 -0.2290  0.3203 -0.5842
 6298TIP3    H140309   5.344   2.189   1.482 -0.0802  0.4661 -0.5007
 6298TIP3    H240310   5.329   2.043   1.518  0.3449  0.0531 -1.9518
 6299TIP3   OH240311   3.987   3.036  14.779  0.4840  0.4247 -0.2528
 6299TIP3    H140312   3.949   2.972  14.719 -1.9781  0.6074  0.9707
 6299TIP3    H240313   4.079   3.042  14.753  0.5641 -2.7705 -1.1202
 6300TIP3   OH240314   4.877   6.160  11.562  0.6054  0.3294  0.0293
 6300TIP3    H140315   4.827   6.129  11.487  0.2360 -0.4943  0.6043
 6300TIP3    H240316   4.825   6.232  11.597 -0.3606 -0.7247  0.8094
 6301TIP3   OH240317   1.044   1.665   0.205 -0.0594  0.5310 -0.2841
 6301TIP3    H140318   1.100   1.589   0.192  0.2114  0.6898 -0.0671
 6301TIP3    H240319   0.955   1.633   0.188 -0.2161 -0.4063  1.8600
 6302TIP3   OH240320   5.201   3.518  14.769 -0.3739  0.2910 -0.0891
 6302TIP3    H140321   5.110   3.531  14.793 -0.7875  0.1988 -1.5304
 6302TIP3    H240322   5.243   3.489  14.850 -1.7862 -0.4635  0.4002
 6303TIP3   OH240323   5.911   4.814  15.448 -0.0146 -0.1309  1.0438
 6303TIP3    H140324   5.963   4.856  15.380 -0.3338 -2.1645 -0.5295
 6303TIP3    H240325   5.967   4.819  15.526  1.2339  0.4460  0.1583
 6304TIP3   OH240326   6.208   1.923   2.436  0.2626  0.4717  0.2098
 6304TIP3    H140327   6.125   1.901   2.395 -1.0982 -0.4149  3.1166
 6304TIP3    H240328   6.268   1.853   2.409 -0.2576  0.4671 -0.9824
 6305TIP3   OH240329   6.277   0.694  12.674 -0.0611 -0.0658 -0.0970
 6305TIP3    H140330   6.189   0.661  12.693 -0.9823  0.0288 -3.6144
 6305TIP3    H240331   6.330   0.615  12.662 -0.0282 -0.1399  0.5184
 6306TIP3   OH240332   5.240   0.585  13.381  0.4055 -0.0842  0.4256
 6306TIP3    H140333   5.149   0.616  13.370  0.1760 -1.3885 -1.8363
 6306TIP3    H240334   5.282   0.605  13.298  1.0127 -3.2222 -0.1136
 6307TIP3   OH240335   5.151   3.700   2.556  0.0603 -0.2057 -0.1390
 6307TIP3    H140336   5.133   3.620   2.508 -3.7317 -0.5974  1.5367
 6307TIP3    H240337   5.193   3.671   2.637 -1.9386 -0.7190  0.7830
 6308TIP3   OH240338   6.613   3.164  14.638 -0.5213 -0.0759  0.8528
 6308TIP3    H140339   6.654   3.179  14.723 -1.3370  0.0304  1.2340
 6308TIP3    H240340   6.593   3.071  14.636  0.3212 -0.2599  0.3918
 6309TIP3   OH240341   5.760   5.361  15.302  0.1168 -0.4878  0.2241
 6309TIP3    H140342   5.665   5.368  15.311  0.0767 -0.7627 -0.0091
 6309TIP3    H240343   5.789   5.316  15.381  0.0886 -0.1398  0.4381
 6310TIP3   OH240344   2.925   5.949   4.038 -0.5286  0.3238  0.3929
 6310TIP3    H140345   3.018   5.951   4.015 -0.6001  0.3102  0.0961
 6310TIP3    H240346   2.886   5.884   3.979 -0.5305 -0.5058  1.2894
 6311TIP3   OH240347   2.848   6.739  14.609 -0.0639  0.9079 -0.1676
 6311TIP3    H140348   2.928   6.718  14.657  0.9423  0.2388 -2.0398
 6311TIP3    H240349   2.865   6.824  14.569 -0.5707  1.0868 -0.0112
 6312TIP3   OH240350   2.709   2.030  16.334  0.1406  0.1827 -0.2999
 6312TIP3    H140351   2.672   2.048  16.248 -0.9016 -0.6416 -0.0592
 6312TIP3    H240352   2.692   1.936  16.348 -1.0309  0.5846  1.3626
 6313TIP3   OH240353   3.504   1.600  16.082 -0.1569  0.2616 -0.5379
 6313TIP3    H140354   3.580   1.552  16.115 -0.9602  0.2563  1.4791
 6313TIP3    H240355   3.464   1.542  16.018  0.4073 -0.6045 -0.1180
 6314TIP3   OH240356   2.505   2.360  16.554 -0.3699  0.5645 -0.9001
 6314TIP3    H140357   2.492   2.299  16.481  1.1329 -0.5131 -0.3090
 6314TIP3    H240358   2.454   2.438  16.529 -3.0351 -1.1611 -1.3043
 6315TIP3   OH240359   1.852   5.944   5.600 -0.3204  0.0274 -0.6779
 6315TIP3    H140360   1.762   5.976   5.595 -0.4951 -0.2379  0.4224
 6315TIP3    H240361   1.855   5.894   5.682  1.0477  0.7396 -0.2557
 6316TIP3   OH240362   2.039   6.351   4.074  0.0515  0.1098  0.1590
 6316TIP3    H140363   2.018   6.292   4.001  3.3187  0.3531 -1.1371
 6316TIP3    H240364   2.002   6.435   4.047 -0.9473 -0.3543  0.0193
 6317TIP3   OH240365   4.597   4.210   3.154 -0.1740  0.2828 -0.1580
 6317TIP3    H140366   4.649   4.134   3.183 -1.3367  0.0327  1.3852
 6317TIP3    H240367   4.599   4.205   3.059 -0.4626 -1.8700 -0.0955
 6318TIP3   OH240368   4.521   1.214   6.058 -0.1846 -0.2251  0.1015
 6318TIP3    H140369   4.498   1.125   6.030  4.0056 -1.7532  0.7008
 6318TIP3    H240370   4.546   1.258   5.976 -0.9774 -0.0377 -0.0444
 6319TIP3   OH240371   2.699   6.376  12.240  0.5350  0.0039 -0.3397
 6319TIP3    H140372   2.622   6.346  12.191  0.3265 -1.5308  0.8459
 6319TIP3    H240373   2.696   6.471  12.233 -1.1642 -0.0467 -0.7882
 6320TIP3   OH240374   3.014   5.435   5.877  0.5555  0.0148 -0.1754
 6320TIP3    H140375   3.081   5.498   5.848  0.3147  1.9768  3.0179
 6320TIP3    H240376   3.059   5.382   5.942 -0.3468 -0.3412  0.1658
 6321TIP3   OH240377   2.648   2.423  14.687  0.3926 -0.2546  0.2065
 6321TIP3    H140378   2.710   2.380  14.745  0.4897 -0.2351  0.1185
 6321TIP3    H240379   2.636   2.361  14.615  0.5722 -0.1129  0.0536
 6322TIP3   OH240380   1.765   4.575   1.896  0.0928  0.5012 -0.4650
 6322TIP3    H140381   1.704   4.559   1.968  2.1609  0.5341  1.4127
 6322TIP3    H240382   1.768   4.493   1.848 -0.2255 -0.0333  0.3955
 6323TIP3   OH240383   4.385   0.727  11.819 -0.0420 -0.1561  0.5501
 6323TIP3    H140384   4.428   0.682  11.892 -2.1290 -1.4558  1.0725
 6323TIP3    H240385   4.347   0.657  11.767 -0.2918  0.8673 -0.6898
 6324TIP3   OH240386   0.998   6.579  17.282  0.5221 -0.0317  0.3186
 6324TIP3    H140387   1.078   6.592  17.332  0.8435 -0.4028 -0.0884
 6324TIP3    H240388   0.938   6.646  17.314  0.8709  0.0122  0.8835
 6325TIP3   OH240389   1.373   2.512   6.293 -0.6102  0.7272  0.0736
 6325TIP3    H140390   1.315   2.587   6.280  0.7722  1.5161 -2.2843
 6325TIP3    H240391   1.429   2.538   6.366 -2.7038  0.2150  1.9517
 6326TIP3   OH240392   4.288   2.933   1.405 -0.1073  0.1806  0.0134
 6326TIP3    H140393   4.274   3.021   1.439  1.6154  0.6330 -0.3443
 6326TIP3    H240394   4.314   2.882   1.482 -1.4944 -0.1392  0.2930
 6327TIP3   OH240395   0.114   4.457   5.866 -0.2315 -0.0095 -0.4818
 6327TIP3    H140396   0.200   4.492   5.892  0.1240 -1.5854  0.5968
 6327TIP3    H240397   0.133   4.372   5.828 -1.1895  0.4076 -1.9621
 6328TIP3   OH240398   4.331   3.379   3.879  0.3972  0.1433  0.0492
 6328TIP3    H140399   4.236   3.368   3.868  0.4071 -1.6478  1.2962
 6328TIP3    H240400   4.349   3.467   3.846 -1.5415  0.1630 -1.1160
 6329TIP3   OH240401   2.013   1.611  16.905  0.3169  0.1690  0.1872
 6329TIP3    H140402   2.052   1.650  16.827  0.2867  1.2308  0.6912
 6329TIP3    H240403   2.052   1.523  16.910  2.1776  0.9609  0.3247
 6330TIP3   OH240404   5.570   2.203   4.499  0.3470  0.3542 -1.1571
 6330TIP3    H140405   5.491   2.256   4.493  0.0742  0.0539 -0.3407
 6330TIP3    H240406   5.563   2.140   4.427 -1.3941 -1.2935  0.3537
 6331TIP3   OH240407   2.091   5.279   4.153 -0.0360 -0.1263  0.1367
 6331TIP3    H140408   2.037   5.202   4.138 -0.9522  0.5706 -0.2123
 6331TIP3    H240409   2.173   5.244   4.189  0.0165 -1.3530 -1.0790
 6332TIP3   OH240410   6.235   0.341  14.298  0.3009  0.0372  0.0182
 6332TIP3    H140411   6.315   0.343  14.352  0.4567 -3.1383  0.0398
 6332TIP3    H240412   6.267   0.325  14.209 -0.2544  0.2841 -0.2279
 6333TIP3   OH240413   3.413   4.588   4.053 -0.3971  0.5506  0.2073
 6333TIP3    H140414   3.452   4.504   4.078  2.1463  0.9640 -1.9536
 6333TIP3    H240415   3.474   4.654   4.088 -1.8056  1.5186  0.9700
 6334TIP3   OH240416   1.239   1.443   1.520 -0.5608 -0.0915  0.6322
 6334TIP3    H140417   1.244   1.505   1.447  0.4316 -0.0006  0.7665
 6334TIP3    H240418   1.170   1.381   1.494 -0.8429  0.4675  0.0316
 6335TIP3   OH240419   6.531   1.776   2.601 -0.2184 -0.1967  0.0776
 6335TIP3    H140420   6.584   1.791   2.679  0.9037 -2.3868 -0.1826
 6335TIP3    H240421   6.587   1.804   2.529 -0.3764 -0.2365 -0.0599
 6336TIP3   OH240422   0.274   3.804  17.145  0.3722 -0.0507 -0.1759
 6336TIP3    H140423   0.332   3.880  17.137  2.1952 -1.3427  0.1731
 6336TIP3    H240424   0.241   3.790  17.056  2.9358 -0.9913 -1.0815
 6337TIP3   OH240425   2.702   5.626   2.315  0.1486  0.7003 -0.2564
 6337TIP3    H140426   2.635   5.595   2.254 -1.0051  2.3966  0.0948
 6337TIP3    H240427   2.784   5.616   2.268 -0.5292  0.2398 -1.3688
 6338TIP3   OH240428   4.393   2.952  16.186  0.0822 -0.7042 -0.1298
 6338TIP3    H140429   4.328   2.983  16.123 -0.2939  1.5604  1.2545
 6338TIP3    H240430   4.348   2.956  16.270  2.4458  2.8859  1.1743
 6339TIP3   OH240431   4.882   3.441  12.156 -0.6916  0.4645  0.3302
 6339TIP3    H140432   4.883   3.524  12.108 -1.0707  0.8722  1.0036
 6339TIP3    H240433   4.857   3.376  12.091  0.7487  0.6808 -0.4895
 6340TIP3   OH240434   6.685   6.033   5.244  0.1465  0.1843 -0.1738
 6340TIP3    H140435   6.590   6.030   5.241  0.0590  2.0336 -0.0664
 6340TIP3    H240436   6.706   6.123   5.267  1.9507  0.1561 -1.4656
 6341TIP3   OH240437   3.987   4.474   5.534 -0.3176  0.1219 -0.6518
 6341TIP3    H140438   3.997   4.385   5.568  0.9163  0.6066  0.2896
 6341TIP3    H240439   4.064   4.488   5.479 -0.1114  0.8903 -0.1704
 6342TIP3   OH240440   1.388   3.195   0.922 -0.1831 -0.4112  0.2580
 6342TIP3    H140441   1.445   3.249   0.868  0.9150 -0.4775  1.3128
 6342TIP3    H240442   1.383   3.111   0.876 -2.3129  0.6489 -1.6636
 6343TIP3   OH240443   1.214   2.678  10.962 -0.0960  0.0322  0.1502
 6343TIP3    H140444   1.148   2.681  10.893  0.5037  1.5204 -0.4162
 6343TIP3    H240445   1.291   2.720  10.923  0.9745 -1.0652  1.0137
 6344TIP3   OH240446   2.127   1.922  11.439  0.3143 -0.2224 -0.1569
 6344TIP3    H140447   2.191   1.893  11.504  0.4035 -1.6089 -0.8459
 6344TIP3    H240448   2.042   1.904  11.480  0.3295 -3.1489 -1.2160
 6345TIP3   OH240449   4.721   3.504  13.860  0.1454  0.1251 -0.2532
 6345TIP3    H140450   4.807   3.540  13.882  0.5231 -0.8268 -0.1038
 6345TIP3    H240451   4.720   3.498  13.765  0.0780  0.5291 -0.2787
 6346TIP3   OH240452   1.836   1.919   6.044 -0.4154 -0.1182 -0.5556
 6346TIP3    H140453   1.795   1.835   6.024 -0.5595 -0.1063 -0.3195
 6346TIP3    H240454   1.801   1.980   5.980 -1.4440  0.0909  0.1886
 6347TIP3   OH240455   5.323   6.359  13.205  0.3343  0.4709 -0.6292
 6347TIP3    H140456   5.357   6.271  13.191  0.1184 -0.1209  2.0267
 6347TIP3    H240457   5.358   6.385  13.290 -1.9299  1.7561 -0.0013
 6348TIP3   OH240458   1.356   0.672   1.405  0.6177 -0.6712  0.0707
 6348TIP3    H140459   1.351   0.671   1.310 -0.1437  2.4255 -0.0105
 6348TIP3    H240460   1.430   0.729   1.425 -0.1639 -0.0468  1.3084
 6349TIP3   OH240461   5.205   1.979  16.561  0.3964  0.0008  0.0769
 6349TIP3    H140462   5.274   1.979  16.495 -0.0311 -1.0556 -0.3977
 6349TIP3    H240463   5.132   2.026  16.519 -0.4520 -2.0569 -0.8846
 6350TIP3   OH240464   2.323   2.192  13.603 -0.4826  0.7952  0.1860
 6350TIP3    H140465   2.401   2.137  13.591  0.5521  2.1992  0.2834
 6350TIP3    H240466   2.253   2.129  13.620  0.6483 -0.5052  0.2708
 6351TIP3   OH240467   6.143   1.942   4.349  0.3061 -0.3295  0.1310
 6351TIP3    H140468   6.178   1.976   4.266  0.0369 -1.9098 -0.6767
 6351TIP3    H240469   6.051   1.967   4.349 -0.0366 -1.5369 -0.7433
 6352TIP3   OH240470   5.927   6.724  14.684  0.2764  0.1892  0.2070
 6352TIP3    H140471   6.014   6.687  14.692  0.0657 -0.1118  1.2974
 6352TIP3    H240472   5.897   6.697  14.597  0.8616 -0.5922  0.2390
 6353TIP3   OH240473   2.547   6.725  11.377  0.1291  0.0253  0.2176
 6353TIP3    H140474   2.619   6.671  11.346 -0.4141  0.2153 -1.4563
 6353TIP3    H240475   2.580   6.815  11.373 -0.2834  0.1372 -0.8303
 6354TIP3   OH240476   5.368   4.213   2.316  0.1781 -0.0618 -0.1412
 6354TIP3    H140477   5.299   4.255   2.264 -0.9728 -0.9146  0.6641
 6354TIP3    H240478   5.403   4.284   2.369  0.2986  0.4918 -0.9388
 6355TIP3   OH240479   1.373   2.976  14.528  0.0754 -0.0292  0.9693
 6355TIP3    H140480   1.402   2.932  14.448 -1.9285 -0.2470  0.3082
 6355TIP3    H240481   1.407   3.065  14.521 -0.2435  0.0091 -0.2434
 6356TIP3   OH240482   6.303   3.471   1.522  0.0258 -0.1759 -0.1435
 6356TIP3    H140483   6.322   3.377   1.514 -0.6728 -0.3931  0.6049
 6356TIP3    H240484   6.312   3.490   1.615  0.6647  0.6238 -0.3607
 6357TIP3   OH240485   3.488   5.271   3.004 -0.2483  0.7103  0.2737
 6357TIP3    H140486   3.437   5.213   2.948  1.3556  0.2021 -0.7399
 6357TIP3    H240487   3.444   5.356   2.997 -0.6214  0.4388 -1.0462
 6358TIP3   OH240488   5.364   0.005  11.466 -0.2186 -0.0791  0.4618
 6358TIP3    H140489   5.287   0.054  11.435  0.5674  2.2211  1.8636
 6358TIP3    H240490   5.431   0.021  11.400 -0.1336  0.3190  0.6377
 6359TIP3   OH240491   6.204   1.024  12.409  0.3317 -0.0860 -0.2084
 6359TIP3    H140492   6.298   1.044  12.412  1.1939 -3.2831 -1.5827
 6359TIP3    H240493   6.197   0.954  12.345 -3.1047  0.2779 -0.3941
 6360TIP3   OH240494   1.257   4.035   4.664 -0.0499 -0.1046 -0.9759
 6360TIP3    H140495   1.212   4.103   4.714 -0.8673 -0.2157 -1.5420
 6360TIP3    H240496   1.327   4.006   4.722 -0.1956  0.6452 -0.3983
 6361TIP3   OH240497   6.249   6.008  12.508  0.5706 -0.0792 -0.3599
 6361TIP3    H140498   6.329   6.052  12.480  0.4312 -0.0966 -0.8055
 6361TIP3    H240499   6.249   5.926  12.458  0.1640  0.0237 -0.5362
 6362TIP3   OH240500   2.809   2.482  12.874  0.2538  0.0705 -0.1784
 6362TIP3    H140501   2.841   2.399  12.909 -0.4062 -0.3133 -0.4538
 6362TIP3    H240502   2.724   2.460  12.834  0.3345  0.7680 -0.7588
 6363TIP3   OH240503   1.509   2.708   5.385 -0.3038  0.6081 -0.1608
 6363TIP3    H140504   1.568   2.677   5.317  1.0427  1.4138  0.5943
 6363TIP3    H240505   1.506   2.803   5.373  2.1144  1.1660  2.4270
 6364TIP3   OH240506   1.362   0.669   5.369 -0.5976  0.1120 -0.3678
 6364TIP3    H140507   1.394   0.754   5.337 -0.7938  0.5694  0.6031
 6364TIP3    H240508   1.423   0.646   5.440 -0.8991 -0.2693 -0.2319
 6365TIP3   OH240509   5.834   0.442  16.005 -0.2474  0.6804  0.0702
 6365TIP3    H140510   5.742   0.468  16.010 -0.9152 -1.3286 -0.8970
 6365TIP3    H240511   5.843   0.400  15.920  1.2735 -0.2521  0.6485
 6366TIP3   OH240512   4.857   6.626   6.313 -0.3287 -0.3432  0.1410
 6366TIP3    H140513   4.761   6.628   6.322 -0.2703 -0.9944  0.9144
 6366TIP3    H240514   4.879   6.714   6.282 -1.1252 -0.0078  0.4931
 6367TIP3   OH240515   5.492   0.525   5.377  0.1509  0.0302  0.4282
 6367TIP3    H140516   5.556   0.563   5.437  3.7445 -0.9642 -2.4074
 6367TIP3    H240517   5.469   0.441   5.415  0.5136  0.4155  1.5162
 6368TIP3   OH240518   2.307   1.848  15.982 -0.5373 -0.1966  0.6160
 6368TIP3    H140519   2.263   1.931  15.962  1.0878  0.8580  1.2076
 6368TIP3    H240520   2.256   1.782  15.935 -0.5821  1.3876 -1.7630
 6369TIP3   OH240521   1.231   4.337  13.870  0.1989 -0.8300  0.0727
 6369TIP3    H140522   1.290   4.317  13.942  2.1269 -1.6559 -1.6496
 6369TIP3    H240523   1.286   4.337  13.792 -1.8405 -0.2518 -1.4810
 6370TIP3   OH240524   1.116   0.328   1.061 -0.3338  0.3686  0.4987
 6370TIP3    H140525   1.164   0.327   0.978 -1.8436 -0.3132 -0.4191
 6370TIP3    H240526   1.024   0.325   1.035 -0.8906  1.3877  2.1925
 6371TIP3   OH240527   2.319   3.376  11.585 -0.0007  0.2383 -0.9871
 6371TIP3    H140528   2.229   3.370  11.616 -0.0261 -1.3921 -1.2488
 6371TIP3    H240529   2.356   3.452  11.630 -1.1236  0.1493  0.1255
 6372TIP3   OH240530   5.448   3.299  14.098  0.1128  0.0130 -0.7779
 6372TIP3    H140531   5.395   3.339  14.166  0.9527  0.6903 -0.5083
 6372TIP3    H240532   5.476   3.215  14.136 -1.1909 -0.5989 -1.1318
 6373TIP3   OH240533   4.751   5.327  13.566  0.9537 -0.1903  0.0619
 6373TIP3    H140534   4.782   5.360  13.651 -1.4530  2.5744  0.0282
 6373TIP3    H240535   4.831   5.307  13.518  2.4201 -1.7668  2.8792
 6374TIP3   OH240536   5.537   3.868  14.490 -0.6433 -0.1321 -0.1064
 6374TIP3    H140537   5.557   3.797  14.551  1.4232  1.9136  1.7972
 6374TIP3    H240538   5.603   3.859  14.420 -1.8314 -1.3547 -1.1332
 6375TIP3   OH240539   1.963   5.183   2.846 -0.2436 -0.1627  0.4386
 6375TIP3    H140540   1.984   5.192   2.753 -0.6501  2.2266  0.5098
 6375TIP3    H240541   1.887   5.126   2.848 -0.5013  0.1057 -0.7579
 6376TIP3   OH240542   3.012   0.502   1.971 -0.3584 -0.1276  0.6370
 6376TIP3    H140543   2.972   0.416   1.963  0.7445 -0.5650 -0.6182
 6376TIP3    H240544   3.104   0.487   1.952 -0.2935  1.4410 -0.4922
 6377TIP3   OH240545   2.189   2.166  16.539  0.1888  0.3594  0.5203
 6377TIP3    H140546   2.274   2.124  16.547  0.8783  1.6741  0.4048
 6377TIP3    H240547   2.126   2.097  16.558  1.1323 -1.4240 -2.1822
 6378TIP3   OH240548   4.829   3.414   5.100 -0.3441  0.1465  0.1465
 6378TIP3    H140549   4.865   3.468   5.170  0.1725  1.7546 -1.2865
 6378TIP3    H240550   4.864   3.326   5.117 -0.4056  0.4465  1.9920
 6379TIP3   OH240551   0.062   2.167  12.589  0.1365  0.1214  0.1887
 6379TIP3    H140552   0.126   2.105  12.623 -0.0228 -1.0697 -1.5239
 6379TIP3    H240553  -0.015   2.155  12.645  1.4580  1.9120  2.5742
 6380TIP3   OH240554   0.398   5.741  12.793 -0.4073 -0.2214  0.3084
 6380TIP3    H140555   0.453   5.801  12.742 -0.8523  1.0668  1.3081
 6380TIP3    H240556   0.459   5.692  12.847 -0.1126 -0.0079  0.1697
 6381TIP3   OH240557   0.889   2.800  12.342 -0.0758 -0.5445  0.1343
 6381TIP3    H140558   0.795   2.784  12.352 -0.1783  0.8045  1.6155
 6381TIP3    H240559   0.903   2.800  12.247 -1.6704 -0.2210 -0.1304
 6382TIP3   OH240560   5.030   3.660   1.653  0.2244 -0.3995 -0.2939
 6382TIP3    H140561   4.963   3.600   1.621 -0.0042 -0.1654 -0.2569
 6382TIP3    H240562   5.022   3.738   1.598  0.2668 -0.2552 -0.1004
 6383TIP3   OH240563   1.621   5.328   0.978  0.1670  0.0015  0.2660
 6383TIP3    H140564   1.568   5.404   0.954 -1.8056 -1.1798  0.6501
 6383TIP3    H240565   1.680   5.316   0.903  0.1654  1.5895 -0.0201
 6384TIP3   OH240566   2.415   3.064  14.274  0.3600  0.0491  0.1167
 6384TIP3    H140567   2.491   3.084  14.330  0.4110  0.2618 -0.0254
 6384TIP3    H240568   2.432   3.113  14.194  0.6121 -0.7712 -0.3454
 6385TIP3   OH240569   3.626   5.830  17.315  0.0862 -0.4395 -0.0065
 6385TIP3    H140570   3.546   5.862  17.357  1.1504  0.6002  1.3408
 6385TIP3    H240571   3.603   5.818  17.223 -1.5396  0.0682  0.3117
 6386TIP3   OH240572   2.477   6.692   1.366 -0.0779 -0.1615  0.4618
 6386TIP3    H140573   2.441   6.615   1.322  0.3179 -0.0977  0.0142
 6386TIP3    H240574   2.455   6.765   1.308  2.7455 -0.3730 -1.0739
 6387TIP3   OH240575   4.305   4.191   4.478  0.4001 -0.2354 -0.3058
 6387TIP3    H140576   4.284   4.152   4.393 -1.1282 -1.6413  0.6499
 6387TIP3    H240577   4.267   4.279   4.474 -0.8188 -0.7629 -0.6299
 6388TIP3   OH240578   5.814   6.174   0.561  0.8970 -0.0577  0.5203
 6388TIP3    H140579   5.898   6.218   0.547  1.0023  0.3146  2.1209
 6388TIP3    H240580   5.824   6.088   0.520  1.8969  0.1524  0.3094
 6389TIP3   OH240581   5.421   1.725  12.482 -0.3138 -0.1931 -0.2763
 6389TIP3    H140582   5.330   1.697  12.475 -0.6763  0.9514 -0.3529
 6389TIP3    H240583   5.430   1.755  12.572  0.0630 -0.5532 -0.1935
 6390TIP3   OH240584   2.113   4.700  12.203 -0.6015 -0.0267  0.1916
 6390TIP3    H140585   2.152   4.783  12.230  2.2396 -1.5444  1.2079
 6390TIP3    H240586   2.179   4.634  12.226 -2.1894 -2.4604 -1.6974
 6391TIP3   OH240587   4.210   1.699  15.264  0.0908  0.3728  0.3069
 6391TIP3    H140588   4.232   1.709  15.172  4.2744  0.8619  1.1381
 6391TIP3    H240589   4.233   1.608  15.285  1.0583  0.8039  1.2180
 6392TIP3   OH240590   2.664   1.925  15.763 -0.3429 -0.0614 -0.1796
 6392TIP3    H140591   2.741   1.869  15.752 -1.0465 -1.0009 -0.4543
 6392TIP3    H240592   2.640   1.914  15.855 -0.3268 -0.0083 -0.1689
 6393TIP3   OH240593   0.667   3.243   5.801 -0.5619 -0.5833  0.0641
 6393TIP3    H140594   0.723   3.320   5.797 -2.3406  0.7161 -1.6641
 6393TIP3    H240595   0.588   3.273   5.846  0.2354 -2.5547  3.0828
 6394TIP3   OH240596   3.916   2.644   4.745 -0.3193 -0.5979  0.1136
 6394TIP3    H140597   3.995   2.667   4.697 -0.0843  0.1452  0.8357
 6394TIP3    H240598   3.846   2.649   4.679 -0.0678  0.8263 -0.0713
 6395TIP3   OH240599   5.791   6.019  11.586 -0.4410  0.6361  0.6216
 6395TIP3    H140600   5.828   6.090  11.638 -0.5798  0.2526  1.2506
 6395TIP3    H240601   5.792   5.943  11.644  3.2352 -0.9176 -1.1403
 6396TIP3   OH240602   5.606   6.621   1.469 -0.1305  0.3007  0.2594
 6396TIP3    H140603   5.677   6.591   1.413 -0.6765  1.3477 -1.0376
 6396TIP3    H240604   5.588   6.710   1.440 -1.4363  0.3388  1.0882
 6397TIP3   OH240605   0.135   1.302  11.827 -0.0945  0.4682  0.3007
 6397TIP3    H140606   0.160   1.244  11.755  1.4048  0.8246  0.4980
 6397TIP3    H240607   0.050   1.338  11.801 -0.2845 -0.5769 -0.5721
 6398TIP3   OH240608   4.063   3.180  16.349 -0.5384 -0.1039 -0.4007
 6398TIP3    H140609   4.096   3.116  16.286  2.0655  0.6556  0.0748
 6398TIP3    H240610   4.048   3.129  16.429  1.7551 -0.1542  0.0526
 6399TIP3   OH240611   0.329   2.533   3.311  0.0516  0.4915  0.5175
 6399TIP3    H140612   0.375   2.455   3.280 -0.0928  0.5036  0.2727
 6399TIP3    H240613   0.252   2.539   3.255 -0.6915 -0.0084  1.4590
 6400TIP3   OH240614   2.171   2.292  12.438  0.2423  0.8053  0.2016
 6400TIP3    H140615   2.187   2.368  12.495 -0.9548  1.2852 -0.0610
 6400TIP3    H240616   2.085   2.260  12.465  0.6046 -0.2909  0.1026
 6401TIP3   OH240617   4.256   2.148  14.842  0.0084 -0.2007 -0.2946
 6401TIP3    H140618   4.169   2.180  14.865 -0.3449 -0.3068 -1.4361
 6401TIP3    H240619   4.250   2.125  14.749  1.5969  1.0092 -0.7526
 6402TIP3   OH240620   2.863   2.904   2.488  0.0293  0.3040  0.7679
 6402TIP3    H140621   2.915   2.944   2.558 -0.4548  0.1010  1.2449
 6402TIP3    H240622   2.893   2.813   2.485 -0.4210  0.1428  1.1594
 6403TIP3   OH240623   5.856   1.555  12.341  0.0021 -0.3764  0.8430
 6403TIP3    H140624   5.900   1.640  12.343 -1.3863  0.3844  0.9815
 6403TIP3    H240625   5.773   1.570  12.387 -0.6990 -1.5479  0.0222
 6404TIP3   OH240626   6.034   3.359   4.926  0.4892  0.3891  0.2573
 6404TIP3    H140627   5.978   3.399   4.992  1.2829 -0.2752  1.3624
 6404TIP3    H240628   5.976   3.303   4.875 -0.6247  2.7425 -1.2154
 6405TIP3   OH240629   6.665   1.730   1.434 -0.1258  0.2066  0.2639
 6405TIP3    H140630   6.748   1.739   1.387  0.5928 -1.1378  1.1805
 6405TIP3    H240631   6.659   1.636   1.453 -0.9885  0.5342  1.7432
 6406TIP3   OH240632   3.096   6.081   1.733 -0.2205  0.5740 -0.3466
 6406TIP3    H140633   3.145   6.160   1.759  0.4587  0.2885 -0.7285
 6406TIP3    H240634   3.117   6.070   1.640 -1.8509  1.0316 -0.8120
 6407TIP3   OH240635   1.360   1.220  11.550  0.4192 -0.6081  0.1328
 6407TIP3    H140636   1.342   1.269  11.470  0.5462  1.7771  1.4711
 6407TIP3    H240637   1.274   1.206  11.589  0.5249  1.9683  1.5617
 6408TIP3   OH240638   3.046   5.966  14.832  0.2971  1.1672  0.2547
 6408TIP3    H140639   2.950   5.969  14.842  0.2200  1.2609 -0.4864
 6408TIP3    H240640   3.078   5.950  14.921 -0.4025  1.2212  0.5274
 6409TIP3   OH240641   4.667   1.369  17.017 -0.1111 -0.1856 -0.3944
 6409TIP3    H140642   4.661   1.288  16.966  0.7255  0.2919 -1.2880
 6409TIP3    H240643   4.576   1.399  17.023 -0.3459 -0.7936 -0.7102
 6410TIP3   OH240644   3.552   2.579  11.396  0.0999 -0.0835  0.0109
 6410TIP3    H140645   3.553   2.579  11.300 -0.0734 -0.7968  0.0021
 6410TIP3    H240646   3.534   2.488  11.419 -0.1640  0.1469  0.7202
 6411TIP3   OH240647   5.954   4.536  11.420 -0.3768  0.0871 -0.2224
 6411TIP3    H140648   5.946   4.446  11.388 -1.7133  0.1218 -0.0339
 6411TIP3    H240649   5.865   4.571  11.417 -0.1342  0.9012  1.1960
 6412TIP3   OH240650   5.422   4.214  17.180  0.2796 -0.5845 -0.1828
 6412TIP3    H140651   5.468   4.255  17.107  0.0940 -0.6898 -0.3574
 6412TIP3    H240652   5.472   4.241  17.257 -1.8726  3.0273  0.1364
 6413TIP3   OH240653   5.851   4.958  16.857 -0.5437  0.0107  0.5630
 6413TIP3    H140654   5.815   4.889  16.800  0.2060 -1.2525  1.5496
 6413TIP3    H240655   5.792   5.032  16.846 -2.2215 -1.2800  0.5322
 6414TIP3   OH240656   0.197   3.589   6.150 -0.5696 -0.3664 -0.7891
 6414TIP3    H140657   0.142   3.638   6.212 -0.4958  0.8214 -1.6268
 6414TIP3    H240658   0.242   3.525   6.205 -0.9824  0.2304  0.2929
 6415TIP3   OH240659   4.664   3.439   1.806  0.0813  0.1167 -0.0555
 6415TIP3    H140660   4.676   3.514   1.749 -1.2669  0.8109  0.5341
 6415TIP3    H240661   4.753   3.415   1.833  0.6251  0.6195 -1.3454
 6416TIP3   OH240662   3.556   2.225  16.953 -0.5010  0.0706 -0.4711
 6416TIP3    H140663   3.569   2.182  17.038  2.0514  0.4985 -0.5664
 6416TIP3    H240664   3.496   2.167  16.906 -0.9990 -0.8041  1.1543
 6417TIP3   OH240665   2.617   0.030   0.036  0.6614 -0.7770  0.6727
 6417TIP3    H140666   2.696   0.084   0.038  0.0754  0.0972  0.6021
 6417TIP3    H240667   2.647  -0.057   0.065  1.3747 -0.1110  2.0368
 6418TIP3   OH240668   0.883   3.164   1.480  0.0051 -0.0988 -0.2662
 6418TIP3    H140669   0.855   3.138   1.567 -0.0157  0.2437 -0.1676
 6418TIP3    H240670   0.930   3.247   1.494  0.8412 -0.5299 -0.4574
 6419TIP3   OH240671   0.480   1.095   0.647  0.0180  0.0093 -0.0159
 6419TIP3    H140672   0.481   1.026   0.714  0.6631  0.2723  0.2593
 6419TIP3    H240673   0.399   1.081   0.599 -0.6338  0.0251  1.0400
 6420TIP3   OH240674   3.672   2.251  12.416 -0.1863  0.1811  0.8820
 6420TIP3    H140675   3.650   2.342  12.394  0.9212  0.1257 -0.6730
 6420TIP3    H240676   3.731   2.258  12.491  2.5198  1.0877 -1.1355
 6421TIP3   OH240677   4.350   6.582   6.409  0.2479 -0.7769  0.2380
 6421TIP3    H140678   4.260   6.567   6.383  0.0703 -0.1159  0.4374
 6421TIP3    H240679   4.351   6.567   6.503  0.1672 -0.0513  0.3641
 6422TIP3   OH240680   5.715   5.775  17.239  0.3243 -0.7209  0.1323
 6422TIP3    H140681   5.750   5.691  17.270  2.2335  0.2217  0.7061
 6422TIP3    H240682   5.642   5.794  17.299  0.0309 -1.8278  0.1577
 6423TIP3   OH240683   0.907   1.779  14.005 -0.7457 -0.3495 -0.6148
 6423TIP3    H140684   0.939   1.700  13.961  3.2429  0.6774  0.0396
 6423TIP3    H240685   0.915   1.760  14.098 -0.7854  0.4690 -0.4350
 6424TIP3   OH240686   4.672   3.773  17.250 -0.4165 -0.3860 -0.0564
 6424TIP3    H140687   4.689   3.741  17.161  0.2575 -0.2038  0.0019
 6424TIP3    H240688   4.679   3.868  17.243 -0.0605 -0.3851  0.2470
 6425TIP3   OH240689   3.370   4.380  16.420 -0.1766  0.2610 -0.5997
 6425TIP3    H140690   3.317   4.458  16.435 -1.6941 -0.6648 -0.8662
 6425TIP3    H240691   3.341   4.348  16.334  1.1318 -0.0618 -0.9455
 6426TIP3   OH240692   4.512   1.001  15.300  0.0500 -0.1012 -0.1265
 6426TIP3    H140693   4.511   1.090  15.336  0.3330  0.1903 -0.8257
 6426TIP3    H240694   4.507   0.944  15.377  1.1382  0.4990  0.4119
 6427TIP3   OH240695   2.537   1.845   2.731  0.0181  0.2521 -0.2307
 6427TIP3    H140696   2.566   1.756   2.708  1.1661  0.6146 -0.2730
 6427TIP3    H240697   2.563   1.898   2.655  1.8358  1.0806  0.8990
 6428TIP3   OH240698   6.121   1.304  13.973 -0.0593 -0.5551  0.7737
 6428TIP3    H140699   6.091   1.292  13.883 -1.4190 -0.9611  1.2683
 6428TIP3    H240700   6.139   1.216  14.004 -1.0564 -0.5580  1.3785
 6429TIP3   OH240701   5.696   0.589   4.084  0.3159  0.1876  0.1635
 6429TIP3    H140702   5.630   0.587   4.153  0.5404 -0.9948  0.3726
 6429TIP3    H240703   5.662   0.651   4.020 -1.8852 -1.6279 -0.5564
 6430TIP3   OH240704   1.061   1.622  15.088 -0.1298 -0.6084  0.2042
 6430TIP3    H140705   1.133   1.636  15.026 -2.4597  1.3584 -2.3440
 6430TIP3    H240706   1.025   1.537  15.063  0.3903 -0.9217  0.5011
 6431TIP3   OH240707   5.044   3.723  14.455 -0.1448 -0.9975  0.7617
 6431TIP3    H140708   5.019   3.639  14.494  1.2485 -1.8242 -0.0476
 6431TIP3    H240709   5.139   3.717  14.445 -0.0809  0.5138  0.2740
 6432TIP3   OH240710   1.642   4.128   1.318  0.3872  0.2116 -0.4896
 6432TIP3    H140711   1.712   4.073   1.283  0.8738  0.7240 -0.3290
 6432TIP3    H240712   1.591   4.153   1.241  1.9518  2.0360 -0.9844
 6433TIP3   OH240713   4.007   4.828   3.588 -0.4364 -0.3718  0.1488
 6433TIP3    H140714   3.953   4.866   3.658 -0.5873 -1.6215  0.7399
 6433TIP3    H240715   4.040   4.746   3.626  0.0640 -0.7134 -0.9981
 6434TIP3   OH240716   3.286   1.927  11.651 -0.2043  0.0172  0.1498
 6434TIP3    H140717   3.246   1.919  11.738  3.3239  0.6080  2.0021
 6434TIP3    H240718   3.280   1.839  11.614 -0.5727 -0.5994  1.5864
 6435TIP3   OH240719   1.566   1.264  14.954 -0.0254  0.5530 -0.2320
 6435TIP3    H140720   1.482   1.271  14.908  0.2639 -0.7319 -1.0358
 6435TIP3    H240721   1.632   1.271  14.885  0.4247 -1.1424 -0.0424
 6436TIP3   OH240722   1.049   5.988   0.942  0.4407  0.0386  0.2292
 6436TIP3    H140723   1.028   6.052   0.874  0.1041 -1.3597 -1.0233
 6436TIP3    H240724   1.063   5.906   0.895  1.4110 -0.7168  1.7394
 6437TIP3   OH240725   4.205   2.115  11.120 -0.3876 -0.0640 -0.2716
 6437TIP3    H140726   4.158   2.036  11.145  1.0796 -0.9259 -0.1317
 6437TIP3    H240727   4.281   2.084  11.071  1.0584  1.1239  1.0789
 6438TIP3   OH240728   5.830   4.697  15.850 -0.0214  0.1378  0.1461
 6438TIP3    H140729   5.799   4.718  15.938  1.3074  1.4189  0.3484
 6438TIP3    H240730   5.878   4.615  15.861 -1.7696 -0.9340  0.1468
 6439TIP3   OH240731   3.547   4.345   3.299  0.0578 -0.1165 -0.1305
 6439TIP3    H140732   3.639   4.343   3.273  0.0911 -0.6237  0.0108
 6439TIP3    H240733   3.514   4.257   3.277 -0.0081 -0.4430  1.1741
 6440TIP3   OH240734   5.642   4.434  15.972  0.6980  0.9672  0.0286
 6440TIP3    H140735   5.605   4.517  16.004  0.3947  1.0978 -0.6459
 6440TIP3    H240736   5.565   4.378  15.957  0.8154  1.0223 -0.7803
 6441TIP3   OH240737   4.963   3.459   1.067 -0.1796  0.2545  0.0982
 6441TIP3    H140738   4.887   3.455   1.008  0.9606 -0.0938 -1.4252
 6441TIP3    H240739   5.026   3.514   1.020  1.6594 -1.8982 -0.1277
 6442TIP3   OH240740   6.374   5.880   5.813  0.4864  0.2546  0.4084
 6442TIP3    H140741   6.343   5.920   5.894  3.1660  2.6136  0.4211
 6442TIP3    H240742   6.318   5.919   5.745  0.0867  0.4831  0.8565
 6443TIP3   OH240743   0.782   1.011   2.276 -0.4004  0.1166  0.6950
 6443TIP3    H140744   0.765   1.003   2.182  0.0782  1.8832  0.4241
 6443TIP3    H240745   0.696   0.998   2.317 -1.3312  2.6930 -0.2379
 6444TIP3   OH240746   4.578   0.654  16.959 -0.3932  0.5013 -0.5834
 6444TIP3    H140747   4.561   0.690  16.872 -1.2240  1.2991 -0.1175
 6444TIP3    H240748   4.664   0.614  16.953 -0.6861  0.0379 -1.9295
 6445TIP3   OH240749   0.077   5.966   4.096 -0.2788  0.3789 -0.3312
 6445TIP3    H140750   0.046   6.037   4.153 -0.0010 -0.5739  1.0513
 6445TIP3    H240751   0.125   6.011   4.026  0.3074  1.5274  0.7678
 6446TIP3   OH240752   1.044   3.942   3.729  0.2741 -0.0918 -0.4301
 6446TIP3    H140753   1.056   3.849   3.708 -1.0826 -0.8397  1.7915
 6446TIP3    H240754   1.074   3.950   3.819  2.2034  2.1160 -1.1756
 6447TIP3   OH240755   3.630   5.275   3.238  0.1365  0.0748  0.4832
 6447TIP3    H140756   3.593   5.248   3.322 -3.3704  2.4139 -0.0952
 6447TIP3    H240757   3.569   5.240   3.173  0.2235  2.0656 -0.7349
 6448TIP3   OH240758   3.858   0.992  13.419  0.1277 -0.0752  0.3577
 6448TIP3    H140759   3.779   0.938  13.426 -0.7590  1.0181 -0.7173
 6448TIP3    H240760   3.930   0.929  13.411 -1.0307 -1.2033 -2.9370
 6449TIP3   OH240761   0.686   4.395  10.834 -0.3452  0.1792  0.0138
 6449TIP3    H140762   0.643   4.336  10.895 -0.1719  0.5371  0.4873
 6449TIP3    H240763   0.632   4.473  10.833 -0.2905  0.2153 -0.2126
 6450TIP3   OH240764   1.526   3.362  12.277  0.2063  0.2067 -0.1756
 6450TIP3    H140765   1.587   3.304  12.230 -2.1110 -1.7010 -1.0160
 6450TIP3    H240766   1.483   3.305  12.340 -1.8507  1.0775 -0.7317
 6451TIP3   OH240767   3.663   1.616   2.673 -0.3046 -0.2115  0.2646
 6451TIP3    H140768   3.678   1.651   2.761 -0.8035  1.5306 -0.2966
 6451TIP3    H240769   3.721   1.540   2.667  0.5797  0.3075  1.7050
 6452TIP3   OH240770   2.540   6.696   2.653  0.0713 -0.4370  0.3653
 6452TIP3    H140771   2.481   6.769   2.637  0.1448 -0.2237  1.0505
 6452TIP3    H240772   2.516   6.631   2.587 -0.1397  0.1168 -0.1063
 6453TIP3   OH240773   3.176   1.979   3.389 -0.1513  0.0073  0.2370
 6453TIP3    H140774   3.150   1.967   3.480  1.3424 -0.0175  0.6746
 6453TIP3    H240775   3.252   2.037   3.392  0.1631 -0.3104 -0.9558
 6454TIP3   OH240776   4.572   4.640   5.858  0.2193 -0.0366  0.2639
 6454TIP3    H140777   4.556   4.656   5.951 -1.3345 -0.2639  0.0572
 6454TIP3    H240778   4.557   4.724   5.816  1.3665  0.1761  0.2519
 6455TIP3   OH240779   4.461   1.206   5.255  0.3884 -0.1003 -0.1511
 6455TIP3    H140780   4.390   1.244   5.203  0.0360 -0.8359 -0.2190
 6455TIP3    H240781   4.442   1.233   5.345  0.3818  0.2416 -0.2544
 6456TIP3   OH240782   1.280   0.579  14.166  0.0091 -0.0866 -0.4943
 6456TIP3    H140783   1.230   0.497  14.165  0.1873 -0.1916 -1.1059
 6456TIP3    H240784   1.264   0.619  14.081  1.7301 -0.6152 -1.1135
 6457TIP3   OH240785   3.581   3.468  16.443  0.7290 -0.1722 -0.6176
 6457TIP3    H140786   3.598   3.386  16.398  2.1875  0.2833 -0.9470
 6457TIP3    H240787   3.608   3.453  16.533 -1.3878 -0.8105 -0.0141
 6458TIP3   OH240788   1.085   5.392   2.446  0.3181 -0.1707  0.2358
 6458TIP3    H140789   1.107   5.442   2.368 -1.9110 -0.1560 -0.4407
 6458TIP3    H240790   1.077   5.302   2.415  0.1716 -0.2891  0.6183
 6459TIP3   OH240791   0.058   1.422  14.046 -0.5038  0.2416 -0.9973
 6459TIP3    H140792   0.049   1.427  13.950  0.1898  1.8216 -1.0169
 6459TIP3    H240793   0.138   1.372  14.060 -0.9588 -0.5625 -1.2177
 6460TIP3   OH240794   3.496   2.245  11.116 -0.1497  0.0411 -0.0540
 6460TIP3    H140795   3.526   2.216  11.029 -0.2347  0.3505 -0.1872
 6460TIP3    H240796   3.420   2.191  11.134 -0.3023  0.1721 -0.2984
 6461TIP3   OH240797   6.198   2.755   3.593 -0.5678 -0.2558  0.0088
 6461TIP3    H140798   6.121   2.751   3.537 -1.6311  1.0056  1.3028
 6461TIP3    H240799   6.199   2.845   3.627  1.9881  0.0447 -0.6442
 6462TIP3   OH240800   3.522   1.981  13.992  0.4891  0.0876  0.3095
 6462TIP3    H140801   3.485   1.934  14.066  0.4816  0.6128  0.6476
 6462TIP3    H240802   3.462   1.964  13.920  0.2661 -0.0870  0.5352
 6463TIP3   OH240803   4.372   1.257   2.244 -0.1187 -0.1752  0.3054
 6463TIP3    H140804   4.451   1.206   2.263  1.3016  1.7678 -0.1588
 6463TIP3    H240805   4.334   1.274   2.331 -0.1027 -1.1895  0.5254
 6464TIP3   OH240806   0.423   0.661  15.437  0.1464 -0.2306  0.6532
 6464TIP3    H140807   0.441   0.754  15.451 -0.9601  0.6044 -2.5304
 6464TIP3    H240808   0.505   0.626  15.404  1.0576 -0.8702  3.3674
 6465TIP3   OH240809   0.395   0.757  13.997 -0.5205  0.0340  0.8009
 6465TIP3    H140810   0.337   0.761  14.073  1.3472  0.1337  2.2810
 6465TIP3    H240811   0.465   0.697  14.023 -0.5776 -1.1132 -1.4163
 6466TIP3   OH240812   0.697   1.990   1.811 -0.1873  0.0881 -0.8178
 6466TIP3    H140813   0.762   1.966   1.877 -1.4411  1.1062  0.8483
 6466TIP3    H240814   0.731   1.953   1.729  2.3881  0.4501  0.0153
 6467TIP3   OH240815   6.177   4.130   2.832  0.5533 -0.8949  0.1491
 6467TIP3    H140816   6.087   4.135   2.864  0.6531 -1.5555  0.5557
 6467TIP3    H240817   6.206   4.221   2.827 -0.6757 -0.5469 -1.5983
 6468TIP3   OH240818   0.051   5.933  15.057 -0.0921 -0.1783  0.5105
 6468TIP3    H140819  -0.013   5.995  15.022 -0.8740  0.3121  2.6578
 6468TIP3    H240820   0.013   5.903  15.139  1.9506 -0.7075  1.3328
 6469TIP3   OH240821   1.382   4.805   1.083 -0.0998 -0.1175 -0.1195
 6469TIP3    H140822   1.332   4.724   1.091 -1.1117  0.1500 -2.6370
 6469TIP3    H240823   1.453   4.783   1.022 -0.9725  1.0675 -1.6430
 6470TIP3   OH240824   4.849   3.920  13.437 -0.0597  0.4836 -0.2526
 6470TIP3    H140825   4.775   3.878  13.394 -0.1144  1.5372 -1.2312
 6470TIP3    H240826   4.912   3.849  13.451 -0.9628 -0.2929 -0.0054
 6471TIP3   OH240827   0.393   5.360   3.984 -0.1451  0.3378  0.0775
 6471TIP3    H140828   0.425   5.396   4.067 -0.2969 -1.2518  0.8540
 6471TIP3    H240829   0.385   5.266   4.000 -0.4615  0.0394 -1.6557
 6472TIP3   OH240830   3.915   3.587   3.553 -0.2313  0.6238  0.2862
 6472TIP3    H140831   4.009   3.604   3.556 -0.2249  0.6036  0.1990
 6472TIP3    H240832   3.894   3.552   3.640 -0.0690  0.1765  0.1473
 6473TIP3   OH240833   4.895   0.314  13.302  0.0222  0.5568 -0.0413
 6473TIP3    H140834   4.975   0.341  13.257  1.3281 -3.1208 -0.2560
 6473TIP3    H240835   4.922   0.296  13.392 -0.2532 -1.6877 -0.3605
 6474TIP3   OH240836   2.836   3.074  16.586  0.4953  0.0355 -0.0550
 6474TIP3    H140837   2.829   3.163  16.552  1.1950 -0.1611 -0.7414
 6474TIP3    H240838   2.794   3.078  16.672  2.4570  1.5877  0.9175
 6475TIP3   OH240839   3.919   3.381  11.850 -0.0738 -0.4184  0.0616
 6475TIP3    H140840   3.943   3.473  11.839 -1.5544  0.3413  2.3820
 6475TIP3    H240841   3.826   3.378  11.830 -0.7476 -0.7204  2.8260
 6476TIP3   OH240842   4.135   5.194  15.884  0.1017  0.3431 -0.1003
 6476TIP3    H140843   4.135   5.214  15.790  1.4292 -0.3883 -0.2784
 6476TIP3    H240844   4.104   5.275  15.925  0.6232  1.0801 -1.0987
 6477TIP3   OH240845   4.710   5.841  15.127  0.4158 -0.6309  0.1699
 6477TIP3    H140846   4.720   5.904  15.198 -0.1324 -1.1935  0.7665
 6477TIP3    H240847   4.618   5.812  15.134  0.3255 -0.6168 -0.8328
 6478TIP3   OH240848   3.352   0.889   5.135 -0.3559  0.3009  0.4406
 6478TIP3    H140849   3.306   0.919   5.213 -2.1946  2.2706 -1.2528
 6478TIP3    H240850   3.432   0.941   5.132 -0.4749  0.5052  0.8081
 6479TIP3   OH240851   4.973   0.643   4.905 -0.1670 -0.2712 -0.0984
 6479TIP3    H140852   5.048   0.697   4.878 -0.2565  0.1436  0.4788
 6479TIP3    H240853   4.897   0.701   4.894 -0.1123  0.2616  1.9908
 6480TIP3   OH240854   5.754   0.562   1.502 -0.3160  0.5783  0.1485
 6480TIP3    H140855   5.783   0.643   1.545 -1.3715  1.7683 -1.2542
 6480TIP3    H240856   5.671   0.541   1.543 -1.0843  1.4424 -0.8904
 6481TIP3   OH240857   4.474   4.509   4.498  0.0203  0.3807 -0.6254
 6481TIP3    H140858   4.524   4.459   4.434 -0.7828  1.0781 -1.8352
 6481TIP3    H240859   4.535   4.576   4.529  0.7840 -0.6949  0.2521
 6482TIP3   OH240860   2.137   0.080  13.953 -0.2598  0.4246  0.3235
 6482TIP3    H140861   2.178   0.166  13.943  1.6227 -0.3737  0.6757
 6482TIP3    H240862   2.044   0.095  13.940  0.0954  2.4275 -0.1006
 6483TIP3   OH240863   1.988   3.516  16.626 -0.3946 -0.3030  0.4313
 6483TIP3    H140864   1.924   3.466  16.676 -1.4605  0.5988  0.0057
 6483TIP3    H240865   2.011   3.589  16.683 -0.6414  0.0222  0.1190
 6484TIP3   OH240866   2.776   5.367  12.129  0.9536  0.1169 -0.6385
 6484TIP3    H140867   2.711   5.358  12.059 -1.0991 -1.3007  1.2846
 6484TIP3    H240868   2.816   5.280  12.136 -0.0060 -0.2343  0.9123
 6485TIP3   OH240869   3.366   2.482   2.009  0.2932 -0.4087  0.2130
 6485TIP3    H140870   3.299   2.453   2.070 -0.5034  1.8332  0.5181
 6485TIP3    H240871   3.448   2.448   2.044 -0.1381  0.7751  2.5606
 6486TIP3   OH240872   5.065   4.500   4.975  0.2690  0.2210 -0.3073
 6486TIP3    H140873   5.001   4.567   4.999  0.1373 -0.0308  0.0405
 6486TIP3    H240874   5.062   4.437   5.046  0.3091 -0.2186 -0.6932
 6487TIP3   OH240875   3.473   4.494  12.762 -0.3515 -0.6322  0.2815
 6487TIP3    H140876   3.530   4.445  12.821 -0.5646 -2.0271 -0.6309
 6487TIP3    H240877   3.385   4.485  12.801 -0.2221  0.0260  0.7384
 6488TIP3   OH240878   4.655   1.448  14.295  0.4165 -0.3728 -0.1299
 6488TIP3    H140879   4.568   1.488  14.298  1.0867  1.5459 -2.4599
 6488TIP3    H240880   4.690   1.460  14.383 -0.5196  1.6760  0.0183
 6489TIP3   OH240881   1.187   5.026   6.657 -0.0936 -0.5423 -0.4372
 6489TIP3    H140882   1.149   5.112   6.638  1.7411  0.4013 -0.0625
 6489TIP3    H240883   1.129   4.989   6.723 -2.1510 -0.5675 -2.1437
 6490TIP3   OH240884   2.994   6.120   3.034 -0.7002  0.0545 -0.2690
 6490TIP3    H140885   3.032   6.037   3.006 -1.0431 -0.7771  1.5581
 6490TIP3    H240886   3.043   6.144   3.113 -1.0973  1.2026 -0.3514
 6491TIP3   OH240887   6.212   0.780  16.926  0.3252  0.6531  0.3045
 6491TIP3    H140888   6.255   0.865  16.937 -0.6131  1.5188 -1.9884
 6491TIP3    H240889   6.280   0.723  16.888  0.0135  1.5349 -1.7224
 6492TIP3   OH240890   3.420   3.067  11.630 -0.2431 -0.3463  0.2502
 6492TIP3    H140891   3.341   3.116  11.652 -0.7020 -0.1908 -1.5457
 6492TIP3    H240892   3.418   3.062  11.534  2.3761  0.4417  0.0835
 6493TIP3   OH240893   3.297   4.197   0.038 -0.4283  0.4223 -0.4700
 6493TIP3    H140894   3.350   4.153  -0.029 -0.6659 -0.0208 -0.3739
 6493TIP3    H240895   3.258   4.125   0.088  1.4413  0.6730  1.5447
 6494TIP3   OH240896   6.039   1.175   0.016 -0.2582  0.1638  0.5142
 6494TIP3    H140897   6.080   1.245  -0.035  1.6516 -0.8788  0.5128
 6494TIP3    H240898   6.054   1.199   0.107  1.0661 -0.5790  0.5094
 6495TIP3   OH240899   4.930   2.160  15.041 -0.5654  0.3006 -0.6053
 6495TIP3    H140900   4.948   2.213  14.963  1.8692 -1.0250 -1.0562
 6495TIP3    H240901   5.016   2.129  15.069 -1.7682 -4.0428 -0.8908
 6496TIP3   OH240902   6.098   0.925   3.111  0.0306  0.2370  0.2668
 6496TIP3    H140903   6.125   0.919   3.019  1.8634  0.1564  0.7707
 6496TIP3    H240904   6.046   0.847   3.125  0.6754 -0.3427 -0.4365
 6497TIP3   OH240905   1.413   0.493  16.395  0.1124 -0.0786 -0.1193
 6497TIP3    H140906   1.428   0.494  16.301  1.5472  1.8649  0.0651
 6497TIP3    H240907   1.500   0.499  16.434 -0.4593 -0.7091  1.3586
 6498TIP3   OH240908   4.863   5.630  17.122 -0.6004 -0.9391 -0.8654
 6498TIP3    H140909   4.881   5.545  17.081 -0.0654 -1.2662  0.0245
 6498TIP3    H240910   4.767   5.634  17.127 -0.6070 -2.1736  0.4638
 6499TIP3   OH240911   0.382   3.943   0.821  0.5894  0.2573  0.2602
 6499TIP3    H140912   0.394   3.849   0.807 -0.9660 -0.3330  2.5144
 6499TIP3    H240913   0.466   3.973   0.855  1.0821 -0.2869 -0.4322
 6500TIP3   OH240914   2.660   1.650  12.808  0.3229  0.5481  0.2161
 6500TIP3    H140915   2.687   1.654  12.899 -1.8279  1.4468  0.8657
 6500TIP3    H240916   2.580   1.597  12.808  1.2663 -1.0163 -1.4438
 6501TIP3   OH240917   4.308   1.623   0.268  0.0564  0.4171 -0.2531
 6501TIP3    H140918   4.249   1.573   0.325 -0.4184  1.4631  0.2015
 6501TIP3    H240919   4.289   1.714   0.289  1.8856  0.7879 -0.0444
 6502TIP3   OH240920   4.974   4.960  12.156  0.2254 -0.8847  0.0626
 6502TIP3    H140921   4.924   4.894  12.204 -2.2999 -0.3175 -1.5907
 6502TIP3    H240922   4.954   4.944  12.064  3.6552 -0.9641 -0.8243
 6503TIP3   OH240923   4.793   3.427   3.801  0.1961 -0.1460  0.0971
 6503TIP3    H140924   4.853   3.353   3.804  0.4556  0.0863  0.8315
 6503TIP3    H240925   4.768   3.434   3.709  1.6695  0.0436 -0.3105
 6504TIP3   OH240926   3.326   6.043   0.874  0.7513 -0.2159  0.2047
 6504TIP3    H140927   3.352   6.091   0.796 -1.7246  0.7274 -0.1486
 6504TIP3    H240928   3.383   5.966   0.876  1.9604  0.5634 -1.5948
 6505TIP3   OH240929   0.448   4.060   0.410 -0.8378 -0.6481  0.1117
 6505TIP3    H140930   0.401   4.085   0.330 -2.8948  1.0821  1.7196
 6505TIP3    H240931   0.383   4.070   0.480  1.2316 -0.8008  2.1807
 6506TIP3   OH240932   6.587   3.310   1.125  0.3880 -0.1264 -0.0870
 6506TIP3    H140933   6.509   3.267   1.090  1.6492 -1.1895 -1.7501
 6506TIP3    H240934   6.567   3.403   1.121 -0.1211 -0.2808 -2.3025
 6507TIP3   OH240935   5.586   0.722   3.831  0.1402  0.1743  0.4501
 6507TIP3    H140936   5.504   0.743   3.875  0.6023  2.2901  0.3738
 6507TIP3    H240937   5.622   0.806   3.804  2.3025 -0.6941  0.3998
 6508TIP3   OH240938   5.664   1.655  11.990  0.2190 -0.0564 -0.2798
 6508TIP3    H140939   5.742   1.610  12.023 -0.0649 -0.5656 -0.3050
 6508TIP3    H240940   5.598   1.642  12.057 -0.3106 -0.9485 -0.9472
 6509TIP3   OH240941   3.470   1.871  12.007 -0.3883  1.1513  0.4401
 6509TIP3    H140942   3.557   1.861  12.046 -0.1198  1.3919 -0.0910
 6509TIP3    H240943   3.485   1.914  11.923 -0.8744 -0.1714 -0.3567
 6510TIP3   OH240944   1.680   3.186  12.855  0.4646  0.3416  0.0248
 6510TIP3    H140945   1.719   3.266  12.890  1.0246  0.1459 -0.1526
 6510TIP3    H240946   1.753   3.125  12.845  0.4135  0.5332 -1.8979
 6511TIP3   OH240947   3.938   1.927  16.801 -0.2664  0.4371 -0.6940
 6511TIP3    H140948   4.010   1.950  16.742  0.3758  3.2041  0.9809
 6511TIP3    H240949   3.953   1.836  16.824  1.8773  0.5298 -1.5249
 6512TIP3   OH240950   2.638   6.620   6.075  0.0550 -0.1116  0.6943
 6512TIP3    H140951   2.695   6.690   6.108 -1.2310  1.5011 -0.3114
 6512TIP3    H240952   2.625   6.642   5.983 -2.9798  0.1952  1.1177
 6513TIP3   OH240953   1.828   2.105   0.873  0.0646  0.0183  0.0241
 6513TIP3    H140954   1.786   2.148   0.799 -1.5878 -2.2364 -0.4502
 6513TIP3    H240955   1.913   2.076   0.839  0.0002  0.4211 -0.4902
 6514TIP3   OH240956   4.853   2.801  11.214 -0.1133 -0.4541 -0.5050
 6514TIP3    H140957   4.849   2.888  11.172 -0.3752 -0.8554 -1.3294
 6514TIP3    H240958   4.884   2.819  11.303 -2.0008  0.7092 -0.0339
 6515TIP3   OH240959   0.661   3.403   3.193  0.4306  0.1768  0.1717
 6515TIP3    H140960   0.620   3.457   3.126  0.2145  0.3348  0.4288
 6515TIP3    H240961   0.731   3.356   3.147  0.0902  0.0531 -0.2232
 6516TIP3   OH240962   0.828   6.312  11.793  0.3856  0.3717 -0.0217
 6516TIP3    H140963   0.792   6.224  11.805 -1.3976  1.1126  0.4534
 6516TIP3    H240964   0.846   6.343  11.882  0.1529  0.8165 -0.1275
 6517TIP3   OH240965   0.277   6.038  15.722  0.3334 -0.2807  0.4883
 6517TIP3    H140966   0.314   6.050  15.635  1.0167 -0.0970  0.7992
 6517TIP3    H240967   0.193   5.994  15.706  0.4722 -0.2965 -0.2533
 6518TIP3   OH240968   4.510   5.138   0.143  0.3342  0.1672 -0.1651
 6518TIP3    H140969   4.474   5.214   0.097 -0.3069 -0.0065  0.0281
 6518TIP3    H240970   4.593   5.121   0.100 -0.5751 -0.4353 -1.7649
 6519TIP3   OH240971   1.834   5.621   4.407  0.2018 -0.2048  0.0110
 6519TIP3    H140972   1.905   5.584   4.355 -0.0963  0.8460 -1.2102
 6519TIP3    H240973   1.764   5.556   4.402  1.0771 -1.3219  1.3531
 6520TIP3   OH240974   0.250   0.920  14.984  0.3924 -0.0503  0.0202
 6520TIP3    H140975   0.238   0.967  15.066 -0.4577 -1.0074  0.4675
 6520TIP3    H240976   0.171   0.938  14.934  0.5076 -0.1912 -0.2158
 6521TIP3   OH240977   2.013   3.497   0.553  0.6865 -0.4607  0.3050
 6521TIP3    H140978   2.031   3.590   0.568 -0.3983 -0.2002  0.1203
 6521TIP3    H240979   2.099   3.455   0.556  1.2103  0.5645  0.2507
 6522TIP3   OH240980   2.762   4.770  14.675  0.3935  0.0320  0.0638
 6522TIP3    H140981   2.743   4.853  14.632 -1.2193 -0.3480 -0.0191
 6522TIP3    H240982   2.676   4.732  14.692  1.1088 -1.9529 -0.5252
 6523TIP3   OH240983   3.748   4.185   3.589  0.2742  0.7250  0.0194
 6523TIP3    H140984   3.710   4.258   3.637  0.0602  0.4707  0.2367
 6523TIP3    H240985   3.799   4.227   3.519  0.3497  1.0845  0.2868
 6524TIP3   OH240986   5.359   3.973   0.184 -0.0023 -0.3727 -0.0966
 6524TIP3    H140987   5.351   3.946   0.092  2.2959  0.3368 -0.5887
 6524TIP3    H240988   5.301   4.049   0.192 -2.4976 -2.1747 -0.0935
 6525TIP3   OH240989   4.949   5.384  10.625  0.3803  0.6489 -0.0589
 6525TIP3    H140990   5.042   5.365  10.635  0.4772  1.3383  0.4205
 6525TIP3    H240991   4.945   5.450  10.556  0.1960  0.2030 -0.4792
 6526TIP3   OH240992   6.564   0.748  15.247 -0.1558 -0.4503 -0.1326
 6526TIP3    H140993   6.637   0.690  15.270 -0.2200 -0.6479 -0.4326
 6526TIP3    H240994   6.606   0.822  15.202 -0.2050 -0.8925 -0.9248
 6527TIP3   OH240995   4.964   1.477   1.704 -0.1577  0.5772  0.1235
 6527TIP3    H140996   4.987   1.482   1.611 -0.3864 -0.1275  0.0253
 6527TIP3    H240997   5.036   1.427   1.744 -0.2003  0.6374  0.2739
 6528TIP3   OH240998   3.468   3.421  12.259 -0.2656  0.2081  0.8558
 6528TIP3    H140999   3.409   3.487  12.223  2.0932  1.8576 -0.2993
 6528TIP3    H241000   3.413   3.346  12.278 -2.4268  0.9376 -1.8964
 6529TIP3   OH241001   0.963   0.191   3.549  0.1400 -0.5499  0.1847
 6529TIP3    H141002   1.026   0.209   3.479  0.5222  0.2216  0.7009
 6529TIP3    H241003   1.008   0.221   3.628 -1.8703  2.6773  0.3029
 6530TIP3   OH241004   2.315   4.488  14.518 -0.0113 -0.1185  0.6324
 6530TIP3    H141005   2.274   4.572  14.537 -1.5728 -1.1110  1.9782
 6530TIP3    H241006   2.268   4.455  14.441  0.6888  0.2816  0.0258
 6531TIP3   OH241007   2.198   6.481  12.755  0.3651 -0.1843 -0.8670
 6531TIP3    H141008   2.157   6.533  12.685 -1.2375  0.0047  0.1493
 6531TIP3    H241009   2.288   6.470  12.727 -0.3174 -0.4853 -3.1890
 6532TIP3   OH241010   6.435   5.085   4.838  0.0542  0.1578 -0.4666
 6532TIP3    H141011   6.425   5.174   4.804 -1.5104 -0.6046 -2.2025
 6532TIP3    H241012   6.347   5.060   4.866  0.6313 -0.5832  0.7975
 6533TIP3   OH241013   2.570   0.426  16.226 -0.0461 -0.8549 -0.0066
 6533TIP3    H141014   2.586   0.364  16.155 -0.5208 -1.4226  0.3727
 6533TIP3    H241015   2.476   0.446  16.219  0.5562  1.9698 -1.8498
 6534TIP3   OH241016   5.530   1.751   1.810 -0.7884 -0.0957  0.4515
 6534TIP3    H141017   5.452   1.763   1.757 -0.8313  1.6473  0.8354
 6534TIP3    H241018   5.498   1.755   1.901 -0.2639  0.7902  0.6114
 6535TIP3   OH241019   0.030   1.971   1.518  0.3368  0.0984 -0.4403
 6535TIP3    H141020  -0.025   1.895   1.498  1.4365 -0.9251  0.2511
 6535TIP3    H241021   0.110   1.957   1.466  0.1168  1.3711 -1.1594
 6536TIP3   OH241022   5.852   2.125   3.351 -0.3342 -0.4948  0.0827
 6536TIP3    H141023   5.932   2.177   3.344 -1.0858  0.5728 -1.3206
 6536TIP3    H241024   5.880   2.041   3.387  1.5265 -0.3768 -0.9802
 6537TIP3   OH241025   6.663   3.735  14.595 -0.0055  0.2221  0.4418
 6537TIP3    H141026   6.718   3.814  14.603 -0.3410  0.5789 -0.6745
 6537TIP3    H241027   6.620   3.744  14.510 -1.5365 -0.2266  1.1375
 6538TIP3   OH241028   3.212   6.202   4.091  0.2758 -0.0457 -0.4331
 6538TIP3    H141029   3.159   6.270   4.049 -0.8886  0.6288  1.9422
 6538TIP3    H241030   3.209   6.128   4.030  0.1148  1.4043 -2.2717
 6539TIP3   OH241031   0.613   6.544  15.643  0.4994 -0.1678  0.0135
 6539TIP3    H141032   0.600   6.454  15.673 -1.1277 -0.4602 -1.3991
 6539TIP3    H241033   0.562   6.597  15.704 -1.0813 -0.5527 -0.9053
 6540TIP3   OH241034   4.170   6.694   4.403 -0.3497 -0.4460  0.0765
 6540TIP3    H141035   4.263   6.701   4.426 -0.2374 -0.3824 -0.3844
 6540TIP3    H241036   4.149   6.602   4.418 -0.0941 -0.5587 -0.2404
 6541TIP3   OH241037   5.602   0.757   3.401  0.3781 -0.0251 -0.7548
 6541TIP3    H141038   5.572   0.680   3.449 -2.1263  1.2646 -0.0705
 6541TIP3    H241039   5.561   0.750   3.315  1.3290 -0.1525 -1.2110
 6542TIP3   OH241040   0.625   5.802   4.024 -0.5945 -0.4341 -0.2452
 6542TIP3    H141041   0.594   5.842   4.106 -1.8013 -2.2530  0.2530
 6542TIP3    H241042   0.656   5.716   4.051  1.3812 -0.1277 -1.3694
 6543TIP3   OH241043   4.395   2.893   4.943  0.1682 -0.5228  0.4336
 6543TIP3    H141044   4.473   2.842   4.922  0.3645  0.1101 -0.4251
 6543TIP3    H241045   4.384   2.952   4.868 -1.0684 -0.5276  0.5988
 6544TIP3   OH241046   0.106   5.399  16.815  0.1466 -0.3560 -1.1453
 6544TIP3    H141047   0.194   5.372  16.788  0.3122 -2.1849  0.9687
 6544TIP3    H241048   0.052   5.321  16.805 -0.7455  0.1418 -0.3722
 6545TIP3   OH241049   3.832   3.592   1.369  0.2259  0.3650 -0.2359
 6545TIP3    H141050   3.814   3.660   1.304 -0.8061 -1.3509 -1.8175
 6545TIP3    H241051   3.752   3.588   1.422  0.0478 -0.0329 -0.5341
 6546TIP3   OH241052   0.323   0.400  15.493 -0.2564  0.1073  0.0030
 6546TIP3    H141053   0.318   0.357  15.407 -1.5881 -0.2653  0.2497
 6546TIP3    H241054   0.373   0.480  15.477  0.8460 -0.6936 -0.8006
 6547TIP3   OH241055   1.807   2.256  14.313 -0.6949 -0.1196 -0.1100
 6547TIP3    H141056   1.774   2.294  14.395  0.0179  0.3632 -0.0383
 6547TIP3    H241057   1.814   2.331  14.254 -1.0727 -0.4451 -0.5809
 6548TIP3   OH241058   5.357   2.383  16.746 -0.3453 -0.0105 -0.3879
 6548TIP3    H141059   5.325   2.388  16.655 -1.2781  0.4387 -0.0488
 6548TIP3    H241060   5.388   2.293  16.755 -3.4206 -1.1900 -0.1769
 6549TIP3   OH241061   6.205   3.157  11.795 -0.2541 -0.1857  0.0958
 6549TIP3    H141062   6.185   3.135  11.704 -0.2590  0.5415 -0.0861
 6549TIP3    H241063   6.293   3.123  11.810  0.3179  0.9105 -0.6238
 6550TIP3   OH241064   0.676   2.335  12.747 -0.2551  0.2498  0.2429
 6550TIP3    H141065   0.752   2.285  12.779  0.9556  2.2051  0.6079
 6550TIP3    H241066   0.659   2.300  12.660  0.2863 -1.0529  0.6355
 6551TIP3   OH241067   6.339   4.651   7.052 -0.3024 -0.7893 -0.1567
 6551TIP3    H141068   6.292   4.685   6.976  0.3875 -1.3589 -0.8417
 6551TIP3    H241069   6.308   4.561   7.062 -0.7933 -0.5550  0.5805
 6552TIP3   OH241070   1.347   4.513  13.677 -0.0765  0.0121  0.5027
 6552TIP3    H141071   1.323   4.542  13.589 -0.8544 -0.2933  0.6017
 6552TIP3    H241072   1.442   4.499  13.673 -0.2095 -0.6845 -0.4920
 6553TIP3   OH241073   5.902   1.769  12.660  0.4136  0.8679 -0.2627
 6553TIP3    H141074   5.925   1.759  12.568 -0.3289 -0.0517 -0.3642
 6553TIP3    H241075   5.836   1.838  12.661  0.6484  1.0947 -0.3811
 6554TIP3   OH241076   1.740   2.649  15.335 -0.1304  0.1213 -0.4410
 6554TIP3    H141077   1.706   2.593  15.405 -1.6643  1.1489 -0.3133
 6554TIP3    H241078   1.730   2.738  15.369  2.1210  0.5244 -0.6958
 6555TIP3   OH241079   0.061   5.762   4.534  0.5382  0.3309 -0.2788
 6555TIP3    H141080   0.042   5.764   4.440  0.8163  1.0130 -0.3293
 6555TIP3    H241081  -0.000   5.698   4.570 -0.4976  1.0379 -0.7262
 6556TIP3   OH241082   1.046   1.643   5.914  0.3041  0.0152 -0.0928
 6556TIP3    H141083   0.985   1.603   5.853  1.7728 -1.9850 -0.3654
 6556TIP3    H241084   1.060   1.576   5.981 -0.6695  1.8598  2.0895
 6557TIP3   OH241085   5.987   0.079   0.215  0.1156  0.5698 -0.1088
 6557TIP3    H141086   5.961  -0.012   0.201  1.6795 -0.1612  1.3318
 6557TIP3    H241087   6.065   0.090   0.161 -0.8650  1.5278 -1.3831
 6558TIP3   OH241088   3.033   1.427  16.551 -0.2536 -0.3785  0.0443
 6558TIP3    H141089   3.119   1.387  16.537 -0.8476 -1.1288 -1.7102
 6558TIP3    H241090   2.974   1.354  16.564 -0.5540  0.1557  2.0888
 6559TIP3   OH241091   6.631   4.606  16.056 -0.1200  0.2090 -0.2442
 6559TIP3    H141092   6.550   4.591  16.007 -0.5532 -1.1695  0.8285
 6559TIP3    H241093   6.689   4.534  16.030  0.2358  0.3771  0.0682
 6560TIP3   OH241094   2.403   3.477  13.968 -0.4523  0.0360 -0.4124
 6560TIP3    H141095   2.380   3.560  14.010 -1.1387 -0.5692  0.4168
 6560TIP3    H241096   2.470   3.502  13.903 -0.5020  1.2048 -0.0458
 6561TIP3   OH241097   4.556   5.657  12.684 -0.5026 -0.4394  0.5445
 6561TIP3    H141098   4.524   5.688  12.599  1.9816  2.8783  0.6129
 6561TIP3    H241099   4.623   5.592  12.663 -0.5204 -0.2872 -0.0006
 6562TIP3   OH241100   2.940   4.532  13.174  0.2271 -0.4613 -0.8249
 6562TIP3    H141101   2.996   4.475  13.121  1.5339  0.3765 -0.3985
 6562TIP3    H241102   2.989   4.545  13.255  0.0876  1.4331 -1.0015
 6563TIP3   OH241103   1.440   4.932   5.706 -0.2746 -0.2218  0.0295
 6563TIP3    H141104   1.523   4.902   5.742 -0.2232 -0.2069 -0.0752
 6563TIP3    H241105   1.379   4.930   5.780 -0.2262 -0.4106  0.0649
 6564TIP3   OH241106   3.970   6.314  14.331  0.0035  0.0326  0.4242
 6564TIP3    H141107   3.883   6.275  14.326 -0.7300  1.3863  1.7617
 6564TIP3    H241108   3.969   6.384  14.266 -0.2202  0.5889  1.0159
 6565TIP3   OH241109   1.658   5.416  12.912 -0.1969  0.1369 -0.2655
 6565TIP3    H141110   1.570   5.436  12.881 -0.5491  0.7699  1.0924
 6565TIP3    H241111   1.667   5.465  12.993  0.6801 -1.5009  0.6710
 6566TIP3   OH241112   1.833   3.844  15.170  0.0856 -0.0315  0.5773
 6566TIP3    H141113   1.814   3.771  15.112  1.0109  0.8873 -0.9622
 6566TIP3    H241114   1.874   3.805  15.247 -1.0625 -1.2714  0.5807
 6567TIP3   OH241115   4.346   1.683   4.072 -0.2086 -0.5304 -0.2454
 6567TIP3    H141116   4.414   1.708   4.134  0.4355 -0.3402 -1.0102
 6567TIP3    H241117   4.368   1.593   4.047 -1.6740 -1.4044  1.3694
 6568TIP3   OH241118   2.052   4.517   2.945  0.2864 -0.5083  0.2128
 6568TIP3    H141119   2.029   4.610   2.942 -1.8672 -0.9219  1.6035
 6568TIP3    H241120   2.027   4.484   2.860 -0.2586 -0.0819  0.2013
 6569TIP3   OH241121   1.945   0.427   5.346 -0.5290 -0.1511 -0.3323
 6569TIP3    H141122   1.859   0.443   5.385 -0.1297  2.4617 -0.3129
 6569TIP3    H241123   1.997   0.389   5.417 -1.6223 -1.7771 -0.3534
 6570TIP3   OH241124   2.873   2.070   4.673 -0.1145  0.7683  0.0120
 6570TIP3    H141125   2.966   2.060   4.691 -0.2517  0.5437  0.6100
 6570TIP3    H241126   2.829   2.033   4.750 -0.6713  2.7125  0.7070
 6571TIP3   OH241127   3.220   1.700   6.765 -0.0591 -0.1630 -0.2352
 6571TIP3    H141128   3.247   1.724   6.676 -0.8630 -0.0191 -0.4454
 6571TIP3    H241129   3.189   1.781   6.804 -0.1374 -0.3155  0.0212
 6572TIP3   OH241130   1.932   0.346  16.278  0.0281 -0.2880 -0.6915
 6572TIP3    H141131   1.967   0.405  16.345  2.5771 -2.2498 -0.1227
 6572TIP3    H241132   2.010   0.315  16.231 -1.4835 -0.8825 -2.9885
 6573TIP3   OH241133   6.230   0.993   0.720 -0.1966 -0.2528  0.3661
 6573TIP3    H141134   6.176   0.965   0.793  1.5559 -0.2439  1.7271
 6573TIP3    H241135   6.315   0.951   0.735  0.1972 -0.2846 -1.6942
 6574TIP3   OH241136   1.431   1.570  16.296  0.4177  0.1067  0.2056
 6574TIP3    H141137   1.404   1.513  16.223 -1.7930  0.3356  0.7606
 6574TIP3    H241138   1.413   1.518  16.374  0.5064  0.7397  0.6526
 6575TIP3   OH241139   5.361   4.648   2.104  0.2483 -0.7443 -0.2843
 6575TIP3    H141140   5.446   4.692   2.110 -0.2637  0.1480  0.7249
 6575TIP3    H241141   5.317   4.691   2.031  0.1147 -0.2125  0.1035
 6576TIP3   OH241142   2.232   2.246   4.631  0.5272  0.4156 -0.4198
 6576TIP3    H141143   2.260   2.155   4.622  0.4931  0.3397  0.1780
 6576TIP3    H241144   2.287   2.294   4.569  0.2661 -0.0580 -1.0393
 6577TIP3   OH241145   1.313   4.391  13.110 -0.0929 -0.6739  0.2984
 6577TIP3    H141146   1.264   4.327  13.057 -0.4349  0.3514 -0.6886
 6577TIP3    H241147   1.386   4.417  13.054 -0.1086 -0.0175  0.5742
 6578TIP3   OH241148   6.729   0.853   1.712 -0.3852 -0.3705  0.1523
 6578TIP3    H141149   6.695   0.909   1.781 -0.5989  0.2368 -0.4401
 6578TIP3    H241150   6.727   0.765   1.750 -1.2261 -0.1488  0.6477
 6579TIP3   OH241151   2.234   4.285  13.839  0.1848  0.3439 -0.2127
 6579TIP3    H141152   2.197   4.301  13.752 -0.0952  1.9795  0.1821
 6579TIP3    H241153   2.157   4.270  13.894  0.3977 -2.4430 -0.4942
 6580TIP3   OH241154   2.308   0.362  12.265 -0.3470 -0.7660 -0.1831
 6580TIP3    H141155   2.286   0.353  12.172 -0.8778 -0.8631 -0.0517
 6580TIP3    H241156   2.296   0.274  12.301 -1.6907 -0.4001  0.3005
 6581TIP3   OH241157   4.606   1.598  12.697 -0.0671  0.0762 -0.0564
 6581TIP3    H141158   4.542   1.527  12.700 -1.3675  1.1869 -0.5906
 6581TIP3    H241159   4.581   1.656  12.769 -0.2701  0.9988 -0.8434
 6582TIP3   OH241160   2.731   3.090  13.168  0.0058 -0.2097 -0.2523
 6582TIP3    H141161   2.650   3.088  13.118 -0.0994 -1.8155 -0.0620
 6582TIP3    H241162   2.771   3.175  13.147 -1.5038  0.4234 -0.6662
 6583TIP3   OH241163   4.945   1.159   5.706  0.5839  0.4194 -0.2904
 6583TIP3    H141164   4.986   1.080   5.670  0.1248  0.0856 -0.0879
 6583TIP3    H241165   4.876   1.180   5.644  1.1473  1.0698 -0.7104
 6584TIP3   OH241166   0.433   2.791   7.019  0.4125 -0.1250 -0.6320
 6584TIP3    H141167   0.450   2.826   6.931 -1.0369 -2.0436 -1.7654
 6584TIP3    H241168   0.492   2.716   7.027 -1.3505 -1.6570 -1.1779
 6585TIP3   OH241169   3.301   3.623   3.202 -0.0571  0.2359 -0.3456
 6585TIP3    H141170   3.270   3.589   3.118  2.0120  1.4599 -1.6739
 6585TIP3    H241171   3.330   3.545   3.249 -1.4629 -0.4923 -0.6235
 6586TIP3   OH241172   1.614   1.765   2.345 -0.2233 -0.1273  0.5460
 6586TIP3    H141173   1.518   1.757   2.339 -0.4463  1.6284  1.2252
 6586TIP3    H241174   1.631   1.858   2.331  1.5494 -0.6450 -1.0914
 6587TIP3   OH241175   1.619   1.488   0.601  0.0619  0.6744 -0.2447
 6587TIP3    H141176   1.645   1.405   0.641  0.1430  1.1663  0.7307
 6587TIP3    H241177   1.562   1.530   0.665 -0.0373  1.3463 -0.7583
 6588TIP3   OH241178   2.798   2.901   2.001 -0.0943 -0.0787 -0.0759
 6588TIP3    H141179   2.806   2.957   2.078 -0.5086 -0.4130  0.2144
 6588TIP3    H241180   2.707   2.914   1.972  0.5512  1.4733 -1.6109
 6589TIP3   OH241181   2.704   6.177   2.988 -0.0613  0.5109  0.4753
 6589TIP3    H141182   2.663   6.095   3.016  1.4803 -0.6356 -0.4085
 6589TIP3    H241183   2.796   6.167   3.015  0.6134  1.0244 -1.4507
 6590TIP3   OH241184   3.372   4.803  14.884  0.0365  0.2911 -0.0287
 6590TIP3    H141185   3.435   4.745  14.926 -0.8292  0.1823  1.1819
 6590TIP3    H241186   3.394   4.799  14.791  0.5892 -1.2454  0.1337
 6591TIP3   OH241187   6.507   1.451  12.301  0.3777 -0.0892 -0.1368
 6591TIP3    H141188   6.514   1.546  12.309 -1.1249  0.0665 -0.4069
 6591TIP3    H241189   6.574   1.428  12.237  0.6957  0.7937 -0.1427
 6592TIP3   OH241190   0.809   2.130   3.906 -0.3383  0.1750  0.1896
 6592TIP3    H141191   0.765   2.171   3.980 -0.9623  1.0807 -0.6581
 6592TIP3    H241192   0.889   2.093   3.944  0.0867  1.8776  1.0747
 6593TIP3   OH241193   3.398   2.615   0.631  0.0046  0.0486  0.1326
 6593TIP3    H141194   3.376   2.678   0.562 -0.9919 -2.5009 -2.0496
 6593TIP3    H241195   3.389   2.665   0.712 -1.9762  2.3975 -1.3630
 6594TIP3   OH241196   0.530   1.046  14.249 -0.2214  0.2696  0.1335
 6594TIP3    H141197   0.562   0.979  14.308  0.4079  0.4936  0.0545
 6594TIP3    H241198   0.495   1.114  14.306  1.1749  0.8845  0.2988
 6595TIP3   OH241199   1.590   4.892   0.739 -0.4011  0.1127 -0.1719
 6595TIP3    H141200   1.524   4.913   0.806 -1.4977  0.7912 -1.4209
 6595TIP3    H241201   1.540   4.859   0.665  0.4793  1.9492 -1.6799
 6596TIP3   OH241202   5.307   2.365  15.556 -0.1897 -0.1022 -0.2117
 6596TIP3    H141203   5.380   2.364  15.617  0.0275  0.6397 -0.4475
 6596TIP3    H241204   5.291   2.458  15.539 -0.9253 -0.2693 -0.4733
 6597TIP3   OH241205   1.555   5.756  11.705 -0.3590  0.2500  0.1311
 6597TIP3    H141206   1.503   5.678  11.686  1.0569 -0.8559  0.5992
 6597TIP3    H241207   1.607   5.770  11.625  0.3026 -0.0597  0.4970
 6598TIP3   OH241208   4.693   4.065  17.222 -0.4251  0.0867 -0.4486
 6598TIP3    H141209   4.611   4.110  17.239 -0.1740  0.6395 -0.6765
 6598TIP3    H241210   4.689   4.041  17.130 -1.0033 -1.2982 -0.0925
 6599TIP3   OH241211   4.692   4.310  11.538 -0.0643  0.3139  0.3997
 6599TIP3    H141212   4.689   4.368  11.462 -0.0247 -0.1257  0.0591
 6599TIP3    H241213   4.705   4.369  11.612 -1.1420  0.8421  0.1855
 6600TIP3   OH241214   6.320   2.416  14.596 -0.7045  0.3177  0.0647
 6600TIP3    H141215   6.343   2.459  14.678  1.3474  1.3230 -0.9648
 6600TIP3    H241216   6.396   2.363  14.573 -1.3257 -0.1329 -1.0709
 6601TIP3   OH241217   2.266   3.763  11.938  0.1149  0.2547  0.2805
 6601TIP3    H141218   2.348   3.714  11.941  1.3076  2.1783  0.5495
 6601TIP3    H241219   2.210   3.719  12.002  0.7615 -1.3314 -0.1908
 6602TIP3   OH241220   1.531   5.452   0.270 -0.4959 -0.6151  0.4750
 6602TIP3    H141221   1.508   5.452   0.363  1.5982 -0.0874  1.0561
 6602TIP3    H241222   1.538   5.360   0.247  0.6365 -0.7775  1.3425
 6603TIP3   OH241223   3.343   1.784  12.943 -0.0795  0.5278  0.2562
 6603TIP3    H141224   3.312   1.738  13.021 -0.0585 -1.0629 -0.6228
 6603TIP3    H241225   3.426   1.823  12.970 -0.0847  0.0294  1.0381
 6604TIP3   OH241226   3.600   1.397  11.620  0.5083  0.1339 -0.1816
 6604TIP3    H141227   3.521   1.348  11.596  0.2611  0.5168 -0.1542
 6604TIP3    H241228   3.672   1.346  11.584  0.2227 -0.0041 -0.5575
 6605TIP3   OH241229   1.330   6.305  15.138 -0.0885  0.3210 -0.0032
 6605TIP3    H141230   1.268   6.252  15.189  0.0492  0.8150  0.6850
 6605TIP3    H241231   1.330   6.264  15.052 -1.1259  0.1065  0.0808
 6606TIP3   OH241232   0.965   5.120   5.932  0.1698 -0.4314  0.0893
 6606TIP3    H141233   0.954   5.164   6.016 -1.8767  2.2965 -1.4674
 6606TIP3    H241234   1.046   5.157   5.896  0.0776 -0.2177  0.0982
 6607TIP3   OH241235   1.352   4.710  11.218  0.5212  0.3778 -0.1647
 6607TIP3    H141236   1.286   4.641  11.216  0.6741  0.1631  1.3548
 6607TIP3    H241237   1.334   4.763  11.140 -1.2010  0.0988  0.0123
 6608TIP3   OH241238   6.563   2.920   5.588  0.0643 -1.2356 -0.3972
 6608TIP3    H141239   6.615   2.840   5.576  0.2984 -1.2005  0.3923
 6608TIP3    H241240   6.619   2.991   5.557  1.3823 -0.9306  2.4026
 6609TIP3   OH241241   5.380   0.164  15.705 -0.0748  0.0477 -0.1263
 6609TIP3    H141242   5.362   0.200  15.618  0.9766  0.5047 -0.1704
 6609TIP3    H241243   5.466   0.124  15.696 -0.5628 -1.1445  0.3426
 6610TIP3   OH241244   2.493   2.760  15.460  0.4572 -0.4608 -0.3823
 6610TIP3    H141245   2.550   2.793  15.529 -1.7815  1.3794  0.7161
 6610TIP3    H241246   2.474   2.669  15.485  2.3032 -0.9117 -0.4550
 6611TIP3   OH241247   0.776   3.046   0.840 -1.0394  0.5412 -0.0308
 6611TIP3    H141248   0.796   3.097   0.762 -2.1588  1.0729  0.0066
 6611TIP3    H241249   0.681   3.047   0.846 -0.9920  0.2439  1.1643
 6612TIP3   OH241250   2.971   4.803   3.502  0.3226 -0.2471 -0.0159
 6612TIP3    H141251   2.970   4.739   3.573 -2.5330 -1.2158 -0.8104
 6612TIP3    H241252   2.974   4.751   3.422  0.1905  0.7094 -0.6599
 6613TIP3   OH241253   0.213   6.576   4.263 -0.0793 -0.0169  0.5704
 6613TIP3    H141254   0.275   6.601   4.332 -0.0236 -1.3970  1.0565
 6613TIP3    H241255   0.262   6.585   4.182  0.0198  1.1213  0.7355
 6614TIP3   OH241256   6.296   4.422   3.820  0.0285  0.2690  0.1992
 6614TIP3    H141257   6.203   4.402   3.830  0.0094 -0.6374 -1.3332
 6614TIP3    H241258   6.340   4.359   3.876 -0.2502 -0.4505 -0.3646
 6615TIP3   OH241259   0.678   1.066  15.029  0.0976  0.6944 -0.1048
 6615TIP3    H141260   0.729   0.986  15.043 -0.0340  0.7628  0.8227
 6615TIP3    H241261   0.614   1.042  14.962 -0.3181 -0.1578  0.5724
 6616TIP3   OH241262   0.903   3.746  16.843 -0.0713 -0.0639 -0.6266
 6616TIP3    H141263   0.879   3.780  16.756 -0.6139  0.5660 -0.2394
 6616TIP3    H241264   0.999   3.748  16.843 -0.0771  1.6483 -0.5627
 6617TIP3   OH241265   6.517   0.806   5.448 -0.0930 -0.6498  0.8476
 6617TIP3    H141266   6.428   0.791   5.415  0.5750  0.2085 -1.5941
 6617TIP3    H241267   6.559   0.859   5.379  2.1675 -0.6324  2.1467
 6618TIP3   OH241268   0.619   4.527  14.954 -0.5272  0.9419 -0.1567
 6618TIP3    H141269   0.526   4.543  14.974 -0.4864  0.5624  0.3420
 6618TIP3    H241270   0.666   4.590  15.008 -0.4569  0.5274  0.2697
 6619TIP3   OH241271   3.432   6.172   0.655 -0.1833  1.0002  0.1516
 6619TIP3    H141272   3.471   6.254   0.686  0.3922  0.4916  0.8118
 6619TIP3    H241273   3.362   6.199   0.596  1.0485  1.9436 -0.9216
 6620TIP3   OH241274   1.126   5.632  15.778 -0.5384 -0.0313 -0.2904
 6620TIP3    H141275   1.101   5.575  15.706 -0.5674 -0.3921 -0.0003
 6620TIP3    H241276   1.125   5.575  15.855 -0.7832  0.4067  0.0405
 6621TIP3   OH241277   3.772   2.030  15.970 -0.3904  0.6084  0.0895
 6621TIP3    H141278   3.681   2.051  15.990 -0.5862 -0.9539  1.0043
 6621TIP3    H241279   3.806   2.109  15.927 -1.1659  2.5776  2.8019
 6622TIP3   OH241280   6.535   5.391  15.901 -0.4861 -0.0382  0.2262
 6622TIP3    H141281   6.483   5.314  15.923 -2.8303  1.2703 -0.3282
 6622TIP3    H241282   6.603   5.359  15.842 -0.8472 -1.7997  0.7073
 6623TIP3   OH241283   6.171   5.724  12.676 -0.4226  0.3622  0.1940
 6623TIP3    H141284   6.233   5.728  12.603  0.8904  0.9880  1.2960
 6623TIP3    H241285   6.143   5.633  12.680 -1.4337  0.5361 -1.7923
 6624TIP3   OH241286   2.881   6.229   0.893 -0.2398  0.1953 -0.7560
 6624TIP3    H141287   2.920   6.146   0.919 -0.6764  0.2086 -0.0556
 6624TIP3    H241288   2.937   6.296   0.934 -1.5013  0.2080  1.0427
 6625TIP3   OH241289   1.812   3.054   2.072 -0.3830  0.1922 -0.7337
 6625TIP3    H141290   1.749   3.046   2.143 -1.0151 -1.5932 -1.4538
 6625TIP3    H241291   1.778   3.126   2.018 -0.0921  1.3174  0.5110
 6626TIP3   OH241292   0.163   3.803  13.597  0.4212  0.0198  0.3886
 6626TIP3    H141293   0.093   3.737  13.604 -1.1604  1.6027  0.2779
 6626TIP3    H241294   0.160   3.850  13.681  2.7480 -1.1274  1.1990
 6627TIP3   OH241295   1.712   0.528  12.649 -0.1822  1.0820  0.5864
 6627TIP3    H141296   1.627   0.490  12.674  0.8273  0.7572  4.2089
 6627TIP3    H241297   1.749   0.465  12.587 -1.8623  0.3648  0.2440
 6628TIP3   OH241298   4.962   6.531  16.596  0.1528 -0.1112 -0.9631
 6628TIP3    H141299   4.879   6.487  16.575  0.4634 -0.6285 -1.1439
 6628TIP3    H241300   4.937   6.601  16.656 -0.3710 -0.4907 -0.7251
 6629TIP3   OH241301   4.788   5.207  11.721 -0.0972  0.3902 -0.1831
 6629TIP3    H141302   4.733   5.214  11.643 -0.3574 -2.0523 -0.2991
 6629TIP3    H241303   4.805   5.113  11.730  1.1370  0.7472  1.8849
 6630TIP3   OH241304   4.441   6.438   2.152  0.3657 -0.1534 -0.5810
 6630TIP3    H141305   4.494   6.513   2.125 -2.5456  2.4852  0.4694
 6630TIP3    H241306   4.407   6.401   2.071  1.7148 -0.3193 -1.0971
 6631TIP3   OH241307   2.963   0.856   3.480 -0.0959  0.0099  0.0143
 6631TIP3    H141308   3.043   0.898   3.511 -0.3133 -1.0571  2.2751
 6631TIP3    H241309   2.940   0.795   3.551 -1.3473 -1.7826 -1.8400
 6632TIP3   OH241310   6.058   0.168  14.411  1.3705 -0.0959  0.5405
 6632TIP3    H141311   6.092   0.250  14.377 -1.2744 -0.0552 -2.5394
 6632TIP3    H241312   5.985   0.193  14.467 -1.0767 -0.1650 -2.3718
 6633TIP3   OH241313   5.703   6.694   1.979 -0.4601 -0.3966  0.3468
 6633TIP3    H141314   5.744   6.779   1.964 -0.0553 -0.0830  2.7280
 6633TIP3    H241315   5.641   6.684   1.907  1.1262  0.8134 -1.2905
 6634TIP3   OH241316   4.028   0.013  11.645  0.1487  0.1625 -0.6420
 6634TIP3    H141317   3.939   0.030  11.615 -0.0712  0.3353  0.0784
 6634TIP3    H241318   4.075   0.096  11.634 -0.0909  0.3937  0.0188
 6635TIP3   OH241319   5.991   5.349   3.643  0.3482 -0.4670 -0.2510
 6635TIP3    H141320   5.924   5.373   3.707  0.1784 -0.4362 -0.4413
 6635TIP3    H241321   6.073   5.356   3.691  0.1563 -1.2508  0.2031
 6636TIP3   OH241322   4.463   3.943   3.509  0.0804  0.0666  0.7662
 6636TIP3    H141323   4.549   3.966   3.473  0.1757  0.1120  1.0215
 6636TIP3    H241324   4.483   3.898   3.591 -0.1514  0.5066  1.0691
 6637TIP3   OH241325   6.675   0.534   0.345 -0.2425 -0.5610 -0.3166
 6637TIP3    H141326   6.639   0.621   0.331  1.7417  0.2571 -0.7435
 6637TIP3    H241327   6.745   0.526   0.280  0.5847 -1.8975  0.6713
 6638TIP3   OH241328   6.228   6.205   3.741  0.4582 -0.1872  0.4014
 6638TIP3    H141329   6.177   6.252   3.807  0.3159  2.8489 -1.6343
 6638TIP3    H241330   6.312   6.251   3.738  1.4949 -1.9973  0.3110
 6639TIP3   OH241331   1.042   0.580   0.697 -0.0644  0.3251 -0.0904
 6639TIP3    H141332   1.046   0.665   0.654 -0.4496  0.9670  1.0918
 6639TIP3    H241333   0.956   0.577   0.737  0.0878 -0.4630  0.2042
 6640TIP3   OH241334   3.968   5.186   2.960 -0.8023  0.2082  0.2680
 6640TIP3    H141335   4.028   5.234   3.017 -0.9809  0.8656 -0.0855
 6640TIP3    H241336   3.990   5.215   2.872 -1.4052  0.1971  0.1085
 6641TIP3   OH241337   0.714   1.936  14.053 -0.2360  0.3360  0.0268
 6641TIP3    H141338   0.749   2.021  14.024  0.0788  0.4537  0.7289
 6641TIP3    H241339   0.784   1.874  14.032 -0.0317  0.4126  0.4686
 6642TIP3   OH241340   6.468   3.938  13.196  0.0377  0.3865  0.4997
 6642TIP3    H141341   6.534   3.922  13.264 -0.8733 -1.6633  0.9804
 6642TIP3    H241342   6.519   3.949  13.116  1.0361 -2.3058  0.6308
 6643TIP3   OH241343   1.207   2.248   5.615 -1.0593 -0.1486 -0.1411
 6643TIP3    H141344   1.128   2.292   5.645 -0.5384 -0.2881  1.5402
 6643TIP3    H241345   1.229   2.187   5.686  0.3299 -0.4082 -0.7576
 6644TIP3   OH241346   3.037   5.868   5.931 -0.6342 -0.5214  0.1843
 6644TIP3    H141347   3.053   5.852   6.024  0.3840 -1.5347 -0.1394
 6644TIP3    H241348   3.005   5.958   5.928 -0.5466 -0.4170  1.4984
 6645TIP3   OH241349   0.773   5.898   3.005 -0.1488 -0.2109 -0.3334
 6645TIP3    H141350   0.700   5.937   2.956  0.9356 -0.6894 -2.4620
 6645TIP3    H241351   0.756   5.803   3.001 -0.4962 -0.2123  1.0015
 6646TIP3   OH241352   5.236   0.914  15.206 -0.5003  0.2225 -0.3046
 6646TIP3    H141353   5.299   0.843  15.206 -1.2223 -0.5295  2.2268
 6646TIP3    H241354   5.263   0.971  15.278 -2.6361 -0.1230  0.8674
 6647TIP3   OH241355   4.359   1.146   6.872 -0.2921 -0.4226 -0.4536
 6647TIP3    H141356   4.314   1.218   6.917 -0.1699 -0.9092  0.4674
 6647TIP3    H241357   4.442   1.184   6.843 -0.7471  0.1356 -1.0700
 6648TIP3   OH241358   3.605   6.174   2.328 -1.0242  0.4383  0.3002
 6648TIP3    H141359   3.698   6.192   2.336 -0.8207 -1.3408  5.1744
 6648TIP3    H241360   3.569   6.251   2.284  2.6434  1.0693 -2.0050
 6649TIP3   OH241361   2.951   2.060  12.000 -0.2319  0.2388  0.2701
 6649TIP3    H141362   2.989   2.047  12.087 -1.8340  1.1054  1.1384
 6649TIP3    H241363   2.887   2.130  12.011 -1.0689 -0.1890 -1.4307
 6650TIP3   OH241364   5.105   5.231  11.504  0.0213 -0.4317 -0.0261
 6650TIP3    H141365   5.062   5.147  11.519  1.8907 -1.3919  0.2835
 6650TIP3    H241366   5.054   5.293  11.556 -0.5110 -1.6565  0.9817
 6651TIP3   OH241367   1.146   5.338   3.318  0.0150  0.3044  0.0339
 6651TIP3    H141368   1.060   5.303   3.343  0.4147 -1.7064 -1.1935
 6651TIP3    H241369   1.147   5.427   3.355 -1.8878 -0.2282  1.5505
 6652TIP3   OH241370   5.511   2.831   2.266 -0.4893  0.7932  0.2700
 6652TIP3    H141371   5.526   2.908   2.212  0.3654  0.0221 -0.6418
 6652TIP3    H241372   5.448   2.779   2.216  0.2621  0.0988  0.0158
 6653TIP3   OH241373   1.163   3.909   0.587 -0.3264  0.2622  0.4898
 6653TIP3    H141374   1.082   3.895   0.538  0.8902  1.7778 -2.1643
 6653TIP3    H241375   1.171   4.004   0.595  1.3772  0.1784  0.2626
 6654TIP3   OH241376   4.380   5.675   4.200  0.2457  0.2294 -0.2211
 6654TIP3    H141377   4.332   5.671   4.117  0.2702 -0.4580 -0.2037
 6654TIP3    H241378   4.315   5.648   4.266  0.4653 -0.0428 -0.1172
 6655TIP3   OH241379   5.484   4.541  11.528 -0.5816 -0.4438  0.5360
 6655TIP3    H141380   5.461   4.449  11.542  0.3120 -0.5898  1.0777
 6655TIP3    H241381   5.399   4.585  11.520 -1.0586 -1.1039  1.6580
 6656TIP3   OH241382   0.918   0.431  12.286 -0.1271  0.4790 -0.3580
 6656TIP3    H141383   0.993   0.440  12.344  0.2781  1.2440 -0.9838
 6656TIP3    H241384   0.951   0.455  12.199 -0.6399 -0.9748 -0.9822
 6657TIP3   OH241385   4.014   1.850   4.090 -0.2635  0.8873  0.1178
 6657TIP3    H141386   3.962   1.912   4.038 -0.5105  0.3354 -0.3016
 6657TIP3    H241387   3.966   1.844   4.173 -0.2247  1.2775  0.1699
 6658TIP3   OH241388   1.838   3.459   2.569 -0.1688 -0.7448 -0.2251
 6658TIP3    H141389   1.893   3.461   2.648  0.4434  0.8894 -0.6566
 6658TIP3    H241390   1.897   3.429   2.500  0.1537  0.7504 -0.6354
 6659TIP3   OH241391   2.504   0.707  16.723 -0.0333 -0.0110  0.0148
 6659TIP3    H141392   2.493   0.685  16.630  0.9098 -1.7369  0.2706
 6659TIP3    H241393   2.599   0.707  16.736 -0.1395  0.7679  0.8605
 6660TIP3   OH241394   5.806   0.786  13.881 -0.4840 -0.0702 -0.3370
 6660TIP3    H141395   5.855   0.770  13.962  1.8441 -3.7107 -2.2081
 6660TIP3    H241396   5.714   0.777  13.907 -0.0628  2.0837  2.3941
 6661TIP3   OH241397   5.123   5.296   2.945 -0.1577 -0.3373  0.7949
 6661TIP3    H141398   5.163   5.372   2.988 -1.5225  0.1467  1.2512
 6661TIP3    H241399   5.089   5.331   2.862 -0.8307 -0.4316  1.0273
 6662TIP3   OH241400   4.964   0.788   6.848  0.7698 -0.6431 -0.3977
 6662TIP3    H141401   4.935   0.868   6.892  2.0245 -1.0525  1.2971
 6662TIP3    H241402   4.884   0.749   6.812  0.1507  1.4048 -1.3768
 6663TIP3   OH241403   5.157   1.513   5.582 -0.1223  0.3236 -0.2062
 6663TIP3    H141404   5.128   1.478   5.498  1.4318  1.6172 -1.3392
 6663TIP3    H241405   5.155   1.608   5.571  2.2496  0.5198  0.3750
 6664TIP3   OH241406   5.766   3.308   0.869 -0.8235  0.0701  0.4379
 6664TIP3    H141407   5.756   3.218   0.900  2.3012 -1.2429 -1.7703
 6664TIP3    H241408   5.701   3.317   0.800 -0.6868 -0.7635  0.1865
 6665TIP3   OH241409   2.227   1.293   6.511  0.7498 -0.3185 -0.2479
 6665TIP3    H141410   2.235   1.388   6.504 -0.2747 -0.0475  1.5288
 6665TIP3    H241411   2.150   1.280   6.567 -0.5203 -2.2649 -2.3002
 6666TIP3   OH241412   1.345   4.979  12.374 -0.5316  0.2770  0.0133
 6666TIP3    H141413   1.324   4.908  12.434 -0.2482 -1.2168 -1.5577
 6666TIP3    H241414   1.422   4.948  12.326 -0.3891  1.6645 -0.7130
 6667TIP3   OH241415   3.455   2.077   0.391 -0.2643 -0.6108 -0.1690
 6667TIP3    H141416   3.488   1.992   0.362 -1.9709 -1.3936  0.0685
 6667TIP3    H241417   3.395   2.104   0.322  0.2458  0.4020 -0.2262
 6668TIP3   OH241418   1.911   2.414   5.784  0.2204 -0.3973 -0.1949
 6668TIP3    H141419   1.933   2.356   5.711  0.5914 -0.7751  0.2084
 6668TIP3    H241420   1.968   2.385   5.855 -0.7906 -0.6326  0.5273
 6669TIP3   OH241421   6.689   5.168   3.070 -0.3567  0.2225  0.4776
 6669TIP3    H141422   6.711   5.250   3.115  1.6779  0.1110 -0.2207
 6669TIP3    H241423   6.772   5.120   3.067 -1.3289 -1.4795  0.0752
 6670TIP3   OH241424   4.244   6.650   3.917 -0.4557  0.7275  0.6216
 6670TIP3    H141425   4.164   6.695   3.888  0.0988  1.2009 -0.2116
 6670TIP3    H241426   4.307   6.720   3.933 -0.0039  0.3194  0.6474
 6671TIP3   OH241427   0.642   5.683   4.784 -0.8857  0.6001  0.7508
 6671TIP3    H141428   0.632   5.694   4.879 -0.0201 -0.1564  0.9393
 6671TIP3    H241429   0.690   5.761   4.756  0.0301  0.1953  1.1542
 6672TIP3   OH241430   6.040   3.469   4.349 -0.2520 -1.1001  0.2346
 6672TIP3    H141431   6.088   3.490   4.430 -2.3454 -0.6508  1.4411
 6672TIP3    H241432   6.038   3.552   4.301  1.5977 -1.5278 -0.6966
 6673TIP3   OH241433   0.100   5.249   4.132  0.4730  0.2892 -0.3370
 6673TIP3    H141434   0.119   5.342   4.122  1.6919  0.4978  2.6393
 6673TIP3    H241435   0.034   5.245   4.201  0.4705 -1.0619 -0.3826
 6674TIP3   OH241436   2.576   5.958  15.403 -0.7656 -0.7692  0.0987
 6674TIP3    H141437   2.561   5.864  15.414  0.5622 -1.0756 -0.4998
 6674TIP3    H241438   2.672   5.967  15.403 -0.8697  0.6806  0.9057
 6675TIP3   OH241439   3.342   2.944  14.227  0.4654 -0.2012 -0.4101
 6675TIP3    H141440   3.338   3.038  14.208  0.2334 -0.4352 -1.5697
 6675TIP3    H241441   3.360   2.903  14.142 -3.2054 -1.5217 -0.7048
 6676TIP3   OH241442   1.111   4.161  13.217  0.2102  0.0569 -0.0479
 6676TIP3    H141443   1.166   4.232  13.250  0.9408 -0.7389  0.4777
 6676TIP3    H241444   1.052   4.204  13.155 -0.2693  1.3703  1.2398
 6677TIP3   OH241445   2.811   4.426   5.294 -0.1240  0.0686  0.1509
 6677TIP3    H141446   2.816   4.376   5.212  0.8208  2.6834 -1.5340
 6677TIP3    H241447   2.719   4.453   5.299 -0.1158  0.1895 -0.2551
 6678TIP3   OH241448   3.174   0.881   1.937  0.7625  0.3222  0.3663
 6678TIP3    H141449   3.203   0.822   2.007  1.6965 -0.4387 -0.6326
 6678TIP3    H241450   3.243   0.948   1.933  1.6755 -0.6435 -0.9991
 6679TIP3   OH241451   3.719   0.635  12.164  0.4808  0.2969  0.0200
 6679TIP3    H141452   3.731   0.727  12.140  1.0505  0.6484  1.5575
 6679TIP3    H241453   3.804   0.594  12.145  0.0147 -0.1156 -1.3544
 6680TIP3   OH241454   5.105   2.065   5.350  0.5111 -0.0050  0.0820
 6680TIP3    H141455   5.117   2.082   5.443  1.2391  0.4716 -0.0909
 6680TIP3    H241456   5.120   2.150   5.308 -1.3588  0.1545 -0.3605
 6681TIP3   OH241457   2.085   2.795   0.780 -0.1815 -1.1890  0.0434
 6681TIP3    H141458   2.040   2.742   0.845 -0.3262 -2.7265 -1.2624
 6681TIP3    H241459   2.023   2.801   0.707  0.3198 -0.2374 -0.3203
 6682TIP3   OH241460   1.671   6.428  13.174 -0.1309 -0.3625 -0.0716
 6682TIP3    H141461   1.694   6.370  13.102  1.3058  0.8757 -0.6630
 6682TIP3    H241462   1.739   6.412  13.240 -0.7475 -0.6181  0.5181
 6683TIP3   OH241463   4.801   4.230  16.831  0.3181  0.3512  0.8641
 6683TIP3    H141464   4.845   4.196  16.753  0.2938 -1.2649  1.5278
 6683TIP3    H241465   4.716   4.185  16.832 -0.0429  1.0229  1.3525
 6684TIP3   OH241466   2.082   3.130   1.235 -0.1836  0.0319  0.1772
 6684TIP3    H141467   2.006   3.119   1.292 -0.2647  0.3652  0.1315
 6684TIP3    H241468   2.146   3.067   1.269 -0.1831  0.3203  0.7166
 6685TIP3   OH241469   5.023   0.376  12.803 -0.4218 -0.4105 -0.1124
 6685TIP3    H141470   4.980   0.396  12.720  1.2727 -0.4315 -1.0412
 6685TIP3    H241471   5.086   0.447  12.815 -0.1785 -0.7695  0.8380
 6686TIP3   OH241472   2.706   1.456   5.774 -0.6970 -0.0224 -0.3262
 6686TIP3    H141473   2.719   1.548   5.752 -0.3694 -0.0625 -0.3135
 6686TIP3    H241474   2.652   1.458   5.853  0.9677  0.2386  0.8714
 6687TIP3   OH241475   4.594   4.004  15.508  0.3116 -0.0566 -0.1506
 6687TIP3    H141476   4.649   4.004  15.429  0.9586 -1.1029  0.2727
 6687TIP3    H241477   4.656   3.989  15.579 -0.2847  0.7671  0.5597
 6688TIP3   OH241478   0.365   2.129  15.723  0.4188  0.0857  0.2655
 6688TIP3    H141479   0.326   2.065  15.782 -1.7853  0.7699 -0.3512
 6688TIP3    H241480   0.370   2.085  15.639  0.2865  0.2467  0.1726
 6689TIP3   OH241481   0.895   3.054   5.668 -0.1569  0.0464 -0.5764
 6689TIP3    H141482   0.805   3.022   5.667 -0.6616  1.2488  1.4403
 6689TIP3    H241483   0.921   3.057   5.576 -1.4177 -2.3083 -1.0639
 6690TIP3   OH241484   5.300   1.951   1.111 -0.0736  0.1707 -0.3624
 6690TIP3    H141485   5.277   1.943   1.203 -0.9357  3.1852 -0.2009
 6690TIP3    H241486   5.231   1.903   1.065 -0.6652  0.1546  0.5059
 6691TIP3   OH241487   5.986   0.580   4.827  0.1799  0.5803 -0.2956
 6691TIP3    H141488   5.971   0.675   4.821 -2.2212  0.3576  0.7735
 6691TIP3    H241489   5.966   0.547   4.740  0.0335  0.9620 -0.4086
 6692TIP3   OH241490   1.715   1.915  11.716  0.1672  0.1651 -0.2223
 6692TIP3    H141491   1.667   1.833  11.719 -0.7960  0.5340 -2.9337
 6692TIP3    H241492   1.804   1.891  11.688  0.6004 -0.1502  1.3380
 6693TIP3   OH241493   1.897   0.167   1.649  0.0549  0.0969  0.0761
 6693TIP3    H141494   1.915   0.103   1.580  0.6803 -0.7142  0.9619
 6693TIP3    H241495   1.956   0.142   1.720 -1.3772  0.1985  1.3485
 6694TIP3   OH241496   3.357   4.293   6.767 -0.2011 -0.4019 -0.2955
 6694TIP3    H141497   3.445   4.332   6.774 -1.0413  1.3921  1.3546
 6694TIP3    H241498   3.319   4.332   6.689  0.7951 -2.0314 -1.6645
 6695TIP3   OH241499   2.758   6.073   3.775 -0.1571  0.2165 -0.1882
 6695TIP3    H141500   2.678   6.048   3.821  0.9221 -0.8322  1.1996
 6695TIP3    H241501   2.764   6.011   3.702 -1.0685  0.9035 -0.8733
 6696TIP3   OH241502   2.222   2.234  14.064  0.7143  0.3852  0.0208
 6696TIP3    H141503   2.178   2.308  14.021  1.9916  0.8482 -0.5217
 6696TIP3    H241504   2.311   2.236  14.030  1.0080 -0.8928  0.6652
 6697TIP3   OH241505   3.340   1.976   2.921 -0.0726 -0.4000  0.0295
 6697TIP3    H141506   3.313   2.035   2.991 -1.1819  0.5909 -1.1752
 6697TIP3    H241507   3.431   1.954   2.941  0.1837  1.2667  0.8417
 6698TIP3   OH241508   4.143   3.915   2.520  0.3440 -0.0134  0.3069
 6698TIP3    H141509   4.082   3.911   2.447 -0.7177  1.0918  1.1087
 6698TIP3    H241510   4.118   3.841   2.576  0.2148 -0.0021  0.2649
 6699TIP3   OH241511   3.832   5.835   2.883  0.2100 -0.4202 -0.0745
 6699TIP3    H141512   3.864   5.772   2.819  0.6911 -0.3309  0.0792
 6699TIP3    H241513   3.845   5.791   2.968  0.1185 -0.2980  0.0028
 6700TIP3   OH241514   2.593   0.950  12.947  0.2033 -0.1590 -0.0159
 6700TIP3    H141515   2.610   1.008  13.021  0.1879  0.6260 -0.6195
 6700TIP3    H241516   2.547   0.875  12.986  0.1950  0.2385  0.7652
 6701TIP3   OH241517   3.543   3.751   1.827  0.9484  0.7486 -0.0348
 6701TIP3    H141518   3.622   3.780   1.873  1.9181 -0.4505 -0.8446
 6701TIP3    H241519   3.522   3.823   1.768  1.1314  1.3003  0.5636
 6702TIP3   OH241520   6.553   0.203  11.238 -0.9232  0.0396  0.3115
 6702TIP3    H141521   6.563   0.119  11.281  0.1373 -0.1691 -0.3126
 6702TIP3    H241522   6.491   0.187  11.167 -0.6404 -0.2379  0.1296
 6703TIP3   OH241523   0.423   6.370   2.799  0.5937  0.0342 -0.2460
 6703TIP3    H141524   0.418   6.426   2.877 -1.6375  0.9034 -0.9284
 6703TIP3    H241525   0.416   6.281   2.833 -1.0598  0.4293  0.5613
 6704TIP3   OH241526   0.079   4.224  14.475 -0.0475  0.1179 -0.1934
 6704TIP3    H141527   0.009   4.285  14.454  1.1131  1.6998  0.3560
 6704TIP3    H241528   0.153   4.252  14.421  1.3605  0.9994  2.0632
 6705TIP3   OH241529   2.062   0.620   3.047  0.0313  0.3705 -0.5031
 6705TIP3    H141530   2.035   0.568   3.123  0.6973  0.0356 -0.4799
 6705TIP3    H241531   2.013   0.701   3.054  2.0827  1.5617  1.8633
 6706TIP3   OH241532   2.001   5.526   4.212  0.6500  0.1281 -0.0941
 6706TIP3    H141533   1.936   5.531   4.142  2.2150  1.6695 -1.5519
 6706TIP3    H241534   2.048   5.444   4.195 -0.5826 -0.7644  0.7004
 6707TIP3   OH241535   1.498   3.808  16.211  0.3854 -0.4106  0.0979
 6707TIP3    H141536   1.421   3.765  16.174  0.3825 -0.4616  0.1616
 6707TIP3    H241537   1.558   3.817  16.137  0.9082 -1.7039  0.3360
 6708TIP3   OH241538   6.439   6.240  15.497 -0.4715  0.2672  0.5594
 6708TIP3    H141539   6.532   6.231  15.516 -0.1941 -0.0074 -0.8667
 6708TIP3    H241540   6.428   6.332  15.474 -0.6465  0.3998  1.1483
 6709TIP3   OH241541   4.378   3.800   1.417 -0.3779  0.0843  0.3775
 6709TIP3    H141542   4.306   3.800   1.353  1.9798  2.1708 -2.5832
 6709TIP3    H241543   4.423   3.717   1.403 -0.9561 -0.2979  0.7345
 6710TIP3   OH241544   4.455   2.589  11.322  0.6502 -0.2083 -0.2787
 6710TIP3    H141545   4.419   2.627  11.242 -0.4443 -1.3122 -0.3383
 6710TIP3    H241546   4.429   2.497  11.319 -1.7475  0.2208  2.5951
 6711TIP3   OH241547   6.358   3.653   1.210 -0.5083 -0.6919 -0.1242
 6711TIP3    H141548   6.312   3.591   1.154 -0.9362 -1.1191  0.6807
 6711TIP3    H241549   6.447   3.617   1.219 -1.2347 -2.1843  1.7623
 6712TIP3   OH241550   2.358   4.501  12.033  0.0953 -0.4451 -0.5715
 6712TIP3    H141551   2.349   4.504  11.938  1.3311  2.7336 -0.6980
 6712TIP3    H241552   2.409   4.579  12.055 -0.3934 -0.9207  2.7467
 6713TIP3   OH241553   1.025   0.843   2.280 -0.0391 -0.1667  0.1274
 6713TIP3    H141554   1.095   0.870   2.221  0.3970 -0.1563  0.6452
 6713TIP3    H241555   0.968   0.920   2.285  0.9902  0.5662  1.2828
 6714TIP3   OH241556   5.127   3.252  13.035  0.8779  0.1384  0.3499
 6714TIP3    H141557   5.171   3.251  12.950 -0.7196 -1.2624 -0.5323
 6714TIP3    H241558   5.112   3.344  13.053  1.5342  0.4798 -0.7283
 6715TIP3   OH241559   2.718   0.974   2.462  0.2592 -0.4840  0.0757
 6715TIP3    H141560   2.796   0.997   2.512  0.0892  0.1371  0.0646
 6715TIP3    H241561   2.749   0.915   2.394  1.4716  2.7131 -2.4071
 6716TIP3   OH241562   4.599   2.332  11.886  0.3136  0.3114  0.2205
 6716TIP3    H141563   4.524   2.273  11.881  0.9409 -0.4828 -0.2343
 6716TIP3    H241564   4.671   2.282  11.847  0.9401  1.2726  0.0984
 6717TIP3   OH241565   4.906   5.962  13.565  0.0353  0.1465 -0.1557
 6717TIP3    H141566   4.994   5.955  13.604 -0.5723 -1.0743  1.0683
 6717TIP3    H241567   4.922   5.997  13.477  2.0035 -2.2188 -0.8482
 6718TIP3   OH241568   0.758   5.604   2.974 -0.0434  0.3579 -0.1481
 6718TIP3    H141569   0.746   5.584   2.882  0.6984 -0.8402 -0.0193
 6718TIP3    H241570   0.751   5.519   3.018 -0.0823  0.8631  0.8660
 6719TIP3   OH241571   5.118   2.836   3.946  0.5675  0.1217 -0.3143
 6719TIP3    H141572   5.176   2.836   4.021 -1.7051 -1.7157  1.6097
 6719TIP3    H241573   5.164   2.785   3.879  1.3900 -0.8247  0.9400
 6720TIP3   OH241574   1.044   1.927   2.157 -0.3109  0.3061 -0.3719
 6720TIP3    H141575   1.123   1.886   2.193 -1.4030 -1.4927  0.1121
 6720TIP3    H241576   0.978   1.917   2.225 -0.7141  2.8110 -0.2996
 6721TIP3   OH241577   3.468   1.703   1.609  0.2278  0.3515  0.1186
 6721TIP3    H141578   3.497   1.749   1.688  2.7750 -0.5798 -0.1772
 6721TIP3    H241579   3.373   1.713   1.609  0.4461  3.5248  1.3096
 6722TIP3   OH241580   4.256   1.817  10.798  0.5322 -0.3154 -0.2243
 6722TIP3    H141581   4.185   1.783  10.744 -1.1703  1.5555  0.7267
 6722TIP3    H241582   4.279   1.744  10.856 -0.7807 -0.8689 -0.3796
 6723TIP3   OH241583   6.154   3.106  11.534 -0.1992 -0.6601  0.0969
 6723TIP3    H141584   6.095   3.180  11.524 -0.2456 -0.8037 -0.7726
 6723TIP3    H241585   6.102   3.039  11.579  0.0603  0.0631  1.5435
 6724TIP3   OH241586   2.689   2.536   1.537 -0.5620  0.5611  0.1723
 6724TIP3    H141587   2.662   2.459   1.587 -2.4922 -1.7930 -3.9761
 6724TIP3    H241588   2.782   2.521   1.519 -0.5802 -0.0636  0.5608
 6725TIP3   OH241589   3.474   5.581   4.709 -0.0796  0.0288 -0.0794
 6725TIP3    H141590   3.527   5.625   4.643  0.0928 -0.0501  0.0078
 6725TIP3    H241591   3.529   5.577   4.787  0.0449 -0.6693 -0.1920
 6726TIP3   OH241592   5.933   5.163  13.126  0.0633  0.5910  0.1735
 6726TIP3    H141593   5.994   5.231  13.157  1.3676 -0.4113 -0.1342
 6726TIP3    H241594   5.986   5.084  13.120 -1.5574 -0.6163  1.0605
 6727TIP3   OH241595   5.857   1.750   4.266 -0.3922 -0.3762 -0.2675
 6727TIP3    H141596   5.858   1.836   4.224 -1.9883 -0.8131 -1.2778
 6727TIP3    H241597   5.806   1.764   4.346 -1.3862 -0.5591 -0.8628
 6728TIP3   OH241598   4.333   4.973   2.313 -0.0508  0.2390  0.3173
 6728TIP3    H141599   4.275   5.046   2.292  0.6216  1.0239  1.1107
 6728TIP3    H241600   4.274   4.901   2.333 -0.7676  1.0497  1.2000
 6729TIP3   OH241601   0.040   2.913  12.970 -0.2821  0.4625  0.3567
 6729TIP3    H141602   0.023   2.823  12.996 -0.3129  0.1814 -0.5967
 6729TIP3    H241603  -0.039   2.939  12.922  0.3704  0.4498 -0.7617
 6730TIP3   OH241604   5.673   3.984   4.102 -0.4322  0.6327  0.2611
 6730TIP3    H141605   5.613   4.049   4.140  0.5775  0.9956  1.2710
 6730TIP3    H241606   5.749   3.985   4.159 -0.1553 -1.0587 -0.0205
 6731TIP3   OH241607   3.800   2.347  14.318  0.3641  0.2961  0.4685
 6731TIP3    H141608   3.749   2.276  14.279 -0.1728  1.3320 -0.8036
 6731TIP3    H241609   3.850   2.383  14.245  0.9040  1.0080  1.1700
 6732TIP3   OH241610   5.343   0.427   2.031  0.2056 -0.1114  0.2764
 6732TIP3    H141611   5.264   0.414   2.085 -2.2501 -0.9058 -3.1869
 6732TIP3    H241612   5.353   0.523   2.027  0.5838 -0.0281  2.1765
 6733TIP3   OH241613   1.548   4.903  15.237  0.2923  0.0706  0.0103
 6733TIP3    H141614   1.637   4.920  15.207  0.4022 -2.3509 -1.2869
 6733TIP3    H241615   1.497   4.887  15.157 -0.7245 -0.9775  0.8150
 6734TIP3   OH241616   2.410   1.681  16.795  0.7202  0.2004 -0.5934
 6734TIP3    H141617   2.419   1.688  16.890 -1.2508 -0.7050 -0.3079
 6734TIP3    H241618   2.501   1.681  16.763  1.4247  0.3650  1.2780
 6735TIP3   OH241619   1.250   4.267   6.700 -0.5283  0.1999 -0.5691
 6735TIP3    H141620   1.166   4.248   6.659 -0.7659 -0.1294  0.0495
 6735TIP3    H241621   1.242   4.357   6.731 -0.5503  0.2647 -0.7670
 6736TIP3   OH241622   4.562   2.019   1.565  0.3975  0.0378 -0.8047
 6736TIP3    H141623   4.470   2.040   1.553 -0.0524 -0.7469  0.9002
 6736TIP3    H241624   4.582   1.956   1.495 -0.8442 -1.0831 -0.1965
 6737TIP3   OH241625   4.643   2.635  14.057  0.3279 -0.3824  0.0515
 6737TIP3    H141626   4.709   2.647  14.125 -1.3248 -0.5549  1.7578
 6737TIP3    H241627   4.651   2.543  14.031  0.8333 -0.3663  0.1437
 6738TIP3   OH241628   6.019   6.622   1.807  0.1247  0.6072 -0.3930
 6738TIP3    H141629   6.089   6.581   1.756 -0.3173  0.5973 -0.9933
 6738TIP3    H241630   5.939   6.603   1.759 -0.2297  1.1119 -0.0156
 6739TIP3   OH241631   5.728   2.102   1.798  0.5154 -0.2579 -0.3725
 6739TIP3    H141632   5.648   2.154   1.798  0.8948  0.3344 -0.0213
 6739TIP3    H241633   5.728   2.058   1.713 -0.3802 -0.5885 -0.2179
 6740TIP3   OH241634   6.562   0.473  12.715  0.3177 -1.3338  0.4937
 6740TIP3    H141635   6.596   0.557  12.683 -0.0279 -1.1141  0.6917
 6740TIP3    H241636   6.540   0.490  12.807 -0.9078 -1.2882  0.2070
 6741TIP3   OH241637   6.721   0.181  17.131  0.0826  0.4403 -0.0027
 6741TIP3    H141638   6.749   0.135  17.210  0.5081  0.1669 -0.3074
 6741TIP3    H241639   6.626   0.173  17.130 -0.0411  1.5020  1.1263
 6742TIP3   OH241640   3.088   3.246  13.238  0.0614  0.1028  0.2713
 6742TIP3    H141641   2.994   3.229  13.242 -0.1300  0.9918 -0.3935
 6742TIP3    H241642   3.126   3.177  13.293 -1.0071  0.0547  0.9883
 6743TIP3   OH241643   0.952   6.024  17.131 -0.3774 -0.0377  0.1163
 6743TIP3    H141644   0.875   6.076  17.108  0.8801  1.7294 -0.3723
 6743TIP3    H241645   0.954   5.953  17.067 -0.4324  1.1626 -1.2682
 6744TIP3   OH241646   5.374   2.394  17.344  0.2602  0.6624  0.8059
 6744TIP3    H141647   5.381   2.382  17.439  1.9694  0.8460  0.7459
 6744TIP3    H241648   5.459   2.430  17.319  0.5797 -1.2614 -1.0873
 6745TIP3   OH241649   2.451   6.509  11.621 -0.2928 -0.0540  0.0921
 6745TIP3    H141650   2.375   6.452  11.606 -0.5194  0.3155 -0.1891
 6745TIP3    H241651   2.526   6.455  11.598 -0.3799 -0.8157  1.4932
 6746TIP3   OH241652   3.570   3.330   2.296 -0.2687 -0.0906  0.1548
 6746TIP3    H141653   3.495   3.275   2.273 -1.3524  1.7675 -1.0583
 6746TIP3    H241654   3.584   3.315   2.389 -1.0062 -1.8085  0.0145
 6747TIP3   OH241655   0.487   5.567   2.574  0.6697 -0.0150 -0.0118
 6747TIP3    H141656   0.498   5.662   2.584  0.9699  0.0994 -1.2684
 6747TIP3    H241657   0.394   5.552   2.591  0.2003  0.7966 -1.6575
 6748TIP3   OH241658   3.048   6.498   6.650  0.2566  0.1056 -0.2913
 6748TIP3    H141659   3.139   6.523   6.669  0.6167 -1.4200  0.1469
 6748TIP3    H241660   3.032   6.422   6.706 -2.0150  1.5683  1.1925
 6749TIP3   OH241661   5.129   4.659  14.385  0.1704 -0.4420  0.1124
 6749TIP3    H141662   5.189   4.584  14.390  3.2291  1.8123  0.6501
 6749TIP3    H241663   5.174   4.721  14.327 -1.2093  1.7370  1.2357
 6750TIP3   OH241664   2.408   2.592  13.096  0.7975  0.0849  0.5697
 6750TIP3    H141665   2.416   2.637  13.180  1.5066  2.1194 -0.5044
 6750TIP3    H241666   2.491   2.609  13.052 -0.1511  0.5166 -1.1743
 6751TIP3   OH241667   6.175   3.876   3.561  0.1439 -0.1973  0.3803
 6751TIP3    H141668   6.174   3.970   3.543 -1.8820 -0.3825 -0.8100
 6751TIP3    H241669   6.211   3.837   3.481  0.3778 -0.4647  0.6180
 6752TIP3   OH241670   5.724   1.800  13.173  0.1616  0.0236 -0.3614
 6752TIP3    H141671   5.716   1.848  13.090  0.1569  0.0897 -0.3225
 6752TIP3    H241672   5.741   1.710  13.146  0.0056  0.0165 -0.4370
 6753TIP3   OH241673   0.520   2.563  16.893  0.6448  0.0656  0.1480
 6753TIP3    H141674   0.516   2.544  16.799  2.3050 -0.0094  0.0669
 6753TIP3    H241675   0.589   2.506  16.926 -1.4564 -1.6680  1.8985
 6754TIP3   OH241676   1.217   1.966  13.729  0.0565 -0.3176 -0.4032
 6754TIP3    H141677   1.302   2.006  13.749 -0.0402 -0.2818 -0.0597
 6754TIP3    H241678   1.187   2.012  13.651  0.6580 -0.7839 -0.9270
 6755TIP3   OH241679   5.103   6.067   0.928  0.0832  0.1314 -0.0327
 6755TIP3    H141680   5.038   6.136   0.920 -1.6475 -1.3971  0.0781
 6755TIP3    H241681   5.165   6.083   0.857 -1.3670  0.6996 -1.2198
 6756TIP3   OH241682   2.716   5.901  12.459  0.4778  0.1931  0.2126
 6756TIP3    H141683   2.802   5.909  12.500  0.7370  1.5943 -0.5287
 6756TIP3    H241684   2.665   5.848  12.520  1.5973  0.0857  1.0923
 6757TIP3   OH241685   5.574   2.021   4.242 -0.1891  0.1493  0.4256
 6757TIP3    H141686   5.613   1.972   4.314  1.0484  1.7462  0.9001
 6757TIP3    H241687   5.649   2.045   4.186 -0.9731 -0.0085 -0.7334
 6758TIP3   OH241688   1.783   1.425   1.269  0.0051  0.4052 -0.2991
 6758TIP3    H141689   1.692   1.444   1.289 -0.0333  0.0835 -0.1620
 6758TIP3    H241690   1.830   1.440   1.351  0.2240  1.4986 -0.6091
 6759TIP3   OH241691   0.618   0.689   3.239  0.2333 -0.3833  0.1293
 6759TIP3    H141692   0.567   0.609   3.227 -0.9268  0.1984  0.9649
 6759TIP3    H241693   0.660   0.679   3.324  2.6344 -1.4034 -1.0665
 6760TIP3   OH241694   5.543   6.308  16.399  0.3368 -0.5306 -0.3545
 6760TIP3    H141695   5.559   6.366  16.473 -0.1877 -1.3304  0.4017
 6760TIP3    H241696   5.478   6.355  16.346 -0.3810 -0.5739  0.4536
 6761TIP3   OH241697   5.381   6.438   1.206 -0.0198 -0.1568  0.0709
 6761TIP3    H141698   5.324   6.449   1.130  0.3177 -0.6195 -0.2550
 6761TIP3    H241699   5.457   6.494   1.188 -0.6741  0.9993  0.8234
 6762TIP3   OH241700   4.819   0.959  13.142 -0.6158 -0.1874 -0.3126
 6762TIP3    H141701   4.839   1.052  13.155  1.1947 -0.6048  0.2137
 6762TIP3    H241702   4.782   0.955  13.054 -0.7536  1.0404 -0.3300
 6763TIP3   OH241703   3.744   0.890  12.077 -0.1682 -0.3023  0.0236
 6763TIP3    H141704   3.667   0.933  12.114  0.0982 -1.1430  1.6351
 6763TIP3    H241705   3.769   0.946  12.003 -1.0325  1.1781  0.7943
 6764TIP3   OH241706   3.257   2.933  10.888  1.0639 -0.0006  0.2253
 6764TIP3    H141707   3.204   2.958  10.964  0.6330 -2.1412  0.6822
 6764TIP3    H241708   3.347   2.953  10.913  1.1761 -2.5099  2.2002
 6765TIP3   OH241709   4.469   5.435  12.286  0.2453 -0.0220  0.0474
 6765TIP3    H141710   4.509   5.351  12.265  0.0587 -0.2199  0.4746
 6765TIP3    H241711   4.385   5.434  12.240  0.4814  0.1586 -0.3899
 6766TIP3   OH241712   4.673   3.480   5.754  0.7731  0.0663 -0.4089
 6766TIP3    H141713   4.636   3.494   5.667  0.9434  1.8511 -0.2241
 6766TIP3    H241714   4.620   3.534   5.812  0.7629 -0.9720  0.5974
 6767TIP3   OH241715   2.614   4.596   6.426  0.4156  0.0621  0.4118
 6767TIP3    H141716   2.636   4.688   6.414 -0.5095  0.1080 -1.3466
 6767TIP3    H241717   2.551   4.595   6.498 -2.0194  1.2637 -1.5564
 6768TIP3   OH241718   1.217   0.097   4.002  1.0534 -0.1765 -0.0848
 6768TIP3    H141719   1.300   0.056   3.976  1.2956 -0.8701  1.6163
 6768TIP3    H241720   1.227   0.114   4.096 -0.2835  0.8616 -0.0987
 6769TIP3   OH241721   4.655   5.933  13.285  0.5137 -0.5043 -0.3890
 6769TIP3    H141722   4.702   5.956  13.205 -0.2672  0.3162 -0.6360
 6769TIP3    H241723   4.661   6.012  13.339  0.8878 -0.9934  0.2935
 6770TIP3   OH241724   0.129   1.517  16.803  0.0019 -0.1813  0.1269
 6770TIP3    H141725   0.149   1.610  16.809 -1.1211  0.0307  0.8184
 6770TIP3    H241726   0.209   1.478  16.768  0.0989  1.1732 -1.2652
 6771TIP3   OH241727   4.245   6.685  12.019  0.5572 -0.2723 -0.3914
 6771TIP3    H141728   4.252   6.702  12.113  1.0048 -1.8452 -0.1090
 6771TIP3    H241729   4.293   6.757  11.978 -0.5408  1.0256  0.5069
 6772TIP3   OH241730   1.091   6.086  14.300  0.3379 -0.3489 -0.1707
 6772TIP3    H141731   1.029   6.140  14.249 -0.6798 -0.2912  1.0873
 6772TIP3    H241732   1.121   6.020  14.238  0.5087  0.7990 -1.3531
 6773TIP3   OH241733   4.974   4.892   1.327 -0.2463 -0.3191 -0.2665
 6773TIP3    H141734   4.931   4.883   1.413  0.5952 -2.5140 -0.0131
 6773TIP3    H241735   5.049   4.832   1.331  1.2410  1.3248 -1.6999
 6774TIP3   OH241736   6.700   5.987   1.341 -0.0188 -0.0712 -0.2677
 6774TIP3    H141737   6.782   6.024   1.310 -0.5024  1.9304  0.7044
 6774TIP3    H241738   6.724   5.934   1.417  0.2783  1.5711  0.8311
 6775TIP3   OH241739   3.929   6.414  12.446  0.2268  0.0661 -0.1543
 6775TIP3    H141740   3.950   6.471  12.519  1.2988 -1.2580  0.6129
 6775TIP3    H241741   3.980   6.449  12.372  0.9380  0.0507  0.3256
 6776TIP3   OH241742   2.020   1.382   2.973  0.5430 -0.6125 -0.6055
 6776TIP3    H141743   2.083   1.379   2.902 -0.6663 -0.5717 -1.7315
 6776TIP3    H241744   1.980   1.295   2.974  0.2743 -0.4899 -0.2360
 6777TIP3   OH241745   1.536   0.868   0.808  0.0498 -0.1386 -0.3856
 6777TIP3    H141746   1.497   0.880   0.721 -4.4700 -0.1000  1.3903
 6777TIP3    H241747   1.538   0.956   0.845  1.3135 -0.2495 -0.1403
 6778TIP3   OH241748   4.831   5.547   0.126 -0.7361 -0.3912 -0.5517
 6778TIP3    H141749   4.738   5.565   0.117 -1.0972 -2.0725 -0.3952
 6778TIP3    H241750   4.837   5.483   0.197  0.5980  0.1225 -0.1655
 6779TIP3   OH241751   1.593   4.787  11.302 -0.0603 -0.6976  0.3845
 6779TIP3    H141752   1.638   4.703  11.311 -1.1386 -1.1738  1.6859
 6779TIP3    H241753   1.506   4.764  11.270 -0.2507 -0.0519  0.4329
 6780TIP3   OH241754   1.517   0.844  15.011  0.1182 -0.2716 -0.2807
 6780TIP3    H141755   1.513   0.754  14.979 -0.6636 -0.0215 -0.9165
 6780TIP3    H241756   1.453   0.891  14.958 -1.5511  0.0911  1.9252
 6781TIP3   OH241757   1.474   0.676  11.510 -0.2106 -0.5909  0.6182
 6781TIP3    H141758   1.495   0.606  11.448 -0.5303 -0.5539  0.4652
 6781TIP3    H241759   1.476   0.634  11.596 -1.0667 -0.9536  0.4768
 6782TIP3   OH241760   4.988   3.394   5.513 -0.1557  0.3547 -0.5768
 6782TIP3    H141761   5.053   3.363   5.575 -0.9777 -1.5222 -0.5667
 6782TIP3    H241762   4.921   3.325   5.512 -1.2235  1.3419 -1.9405
 6783TIP3   OH241763   4.657   3.782  13.988 -0.2120 -0.0916 -0.0516
 6783TIP3    H141764   4.713   3.808  14.061 -0.1931 -3.2683  1.1749
 6783TIP3    H241765   4.717   3.770  13.915  0.2750 -0.4799  0.4113
 6784TIP3   OH241766   5.364   1.539  16.133  0.5186  0.0822 -0.0567
 6784TIP3    H141767   5.423   1.473  16.169 -0.6988 -0.4124  1.0946
 6784TIP3    H241768   5.302   1.488  16.079 -0.5486  0.2305  0.9989
 6785TIP3   OH241769   1.425   3.683   2.583  0.2792  0.0902  0.6631
 6785TIP3    H141770   1.458   3.663   2.671  0.5882 -1.8500  0.1312
 6785TIP3    H241771   1.347   3.736   2.600 -0.0404 -0.7835  2.1450
 6786TIP3   OH241772   0.303   0.654   1.513  0.3895 -0.5009 -0.5903
 6786TIP3    H141773   0.395   0.682   1.511 -0.4274  2.5491 -1.1248
 6786TIP3    H241774   0.254   0.735   1.525 -2.2411 -2.1336  0.5845
 6787TIP3   OH241775   3.102   1.728   0.820 -0.4888 -0.7125  0.1138
 6787TIP3    H141776   3.103   1.763   0.909 -0.3211  0.4223 -0.3228
 6787TIP3    H241777   3.187   1.685   0.810  1.0732  2.2628 -0.6568
 6788TIP3   OH241778   6.537   1.899   5.344 -0.2139 -0.6451  0.3016
 6788TIP3    H141779   6.567   1.878   5.433  0.5632  1.0598  0.4805
 6788TIP3    H241780   6.615   1.889   5.290 -0.4080 -0.5255  0.0001
 6789TIP3   OH241781   0.866   1.824   1.973  0.3125  0.0643  0.0129
 6789TIP3    H141782   0.945   1.869   2.003  1.5991 -0.2335 -2.5977
 6789TIP3    H241783   0.835   1.775   2.049  2.4670  0.4185  1.2039
 6790TIP3   OH241784   1.500   4.154   4.242  0.0932  0.3488  0.4723
 6790TIP3    H141785   1.475   4.241   4.272  0.2520  1.0705 -1.3558
 6790TIP3    H241786   1.463   4.147   4.154 -0.5041 -1.7217  0.8211
 6791TIP3   OH241787   6.509   4.772  17.405 -0.1095 -0.4384  0.1627
 6791TIP3    H141788   6.460   4.784  17.486  0.9474  1.8295  0.5439
 6791TIP3    H241789   6.444   4.743  17.341 -1.2877 -0.5727  1.3905
 6792TIP3   OH241790   1.330   3.474  14.676 -0.1821  0.4009  0.4043
 6792TIP3    H141791   1.248   3.450  14.632 -0.4192  2.1759 -0.1880
 6792TIP3    H241792   1.304   3.541  14.739  0.7312  0.5977  0.5822
 6793TIP3   OH241793   0.276   3.063  17.167 -0.6915  0.1667 -0.4520
 6793TIP3    H141794   0.324   3.146  17.173  0.2672 -0.4031 -0.0627
 6793TIP3    H241795   0.286   3.023  17.253  0.1400 -1.0333 -1.0694
 6794TIP3   OH241796   6.090   4.587   4.555 -0.3577  0.0356  0.3939
 6794TIP3    H141797   6.034   4.662   4.577  0.4432  0.2213  1.9061
 6794TIP3    H241798   6.111   4.547   4.639 -0.2510 -1.5342 -0.3426
 6795TIP3   OH241799   0.424   2.813   5.417 -0.1213  0.1362  0.2834
 6795TIP3    H141800   0.451   2.776   5.333  0.8740 -0.3505  0.8030
 6795TIP3    H241801   0.418   2.738   5.476 -3.1792  0.1175  0.1208
 6796TIP3   OH241802   0.079   4.188   2.437 -0.3062 -0.4699  0.7639
 6796TIP3    H141803   0.017   4.259   2.420  0.9374  0.7039  0.9093
 6796TIP3    H241804   0.165   4.231   2.438  0.8627 -2.3907 -2.1392
 6797TIP3   OH241805   4.842   2.702  12.903  0.2243  0.6260  0.3760
 6797TIP3    H141806   4.810   2.645  12.833 -0.7097 -1.5251  2.4232
 6797TIP3    H241807   4.765   2.722  12.956  1.3578 -0.8048  2.7658
 6798TIP3   OH241808   1.009   1.491  13.202 -0.2402 -0.2618  0.0691
 6798TIP3    H141809   1.064   1.422  13.237  1.7442  1.3139  0.2186
 6798TIP3    H241810   1.067   1.543  13.146 -1.9416  0.6247 -0.9821
 6799TIP3   OH241811   0.944   5.133  12.292  0.7393  0.0191 -0.2621
 6799TIP3    H141812   0.951   5.207  12.232  2.2465 -0.5170 -0.7825
 6799TIP3    H241813   0.850   5.124  12.308  0.5134  2.2288  0.0681
 6800TIP3   OH241814   4.383   0.241   1.539 -0.1569  0.4964  0.2244
 6800TIP3    H141815   4.316   0.178   1.568 -1.2487  1.1346 -0.8173
 6800TIP3    H241816   4.333   0.314   1.503  1.1111  1.3806  0.2132
 6801TIP3   OH241817   1.387   1.647  17.403  0.1845 -0.0421  0.6667
 6801TIP3    H141818   1.447   1.695  17.461  1.0187 -1.0178  0.6372
 6801TIP3    H241819   1.362   1.711  17.336  0.1908  0.7409  1.3928
 6802TIP3   OH241820   0.397   1.752   0.034 -0.2604  0.2383 -0.2591
 6802TIP3    H141821   0.383   1.816  -0.035 -0.6672  0.8699  0.3897
 6802TIP3    H241822   0.410   1.805   0.113 -0.8360 -0.4755  0.3335
 6803TIP3   OH241823   3.969   2.113   3.768 -0.0101 -0.0588 -0.1455
 6803TIP3    H141824   3.909   2.081   3.834  0.4721  1.6663  1.2108
 6803TIP3    H241825   4.035   2.044   3.760 -1.6974 -1.6548 -1.1394
 6804TIP3   OH241826   1.359   5.374   1.715  0.0073  0.2231  0.4504
 6804TIP3    H141827   1.322   5.382   1.802 -3.0333  1.1270 -0.7976
 6804TIP3    H241828   1.410   5.293   1.718 -1.1514 -0.5053  2.6779
 6805TIP3   OH241829   3.519   1.711  13.741  0.2873  0.1481 -0.3120
 6805TIP3    H141830   3.598   1.674  13.782  0.2441  1.6777  1.2940
 6805TIP3    H241831   3.454   1.642  13.748  0.5863 -0.0152  1.3464
 6806TIP3   OH241832   6.346   4.378  15.548  0.3201 -0.2954  0.0961
 6806TIP3    H141833   6.418   4.401  15.490 -1.0188 -2.2442 -2.5469
 6806TIP3    H241834   6.341   4.282  15.544 -0.5159 -0.4504  2.6888
 6807TIP3   OH241835   6.044   3.431  12.318  0.2147 -0.2901  0.1028
 6807TIP3    H141836   6.067   3.347  12.278 -0.0271 -0.6081  0.6331
 6807TIP3    H241837   6.085   3.496  12.261 -2.0720 -0.6051 -2.0511
 6808TIP3   OH241838   5.054   4.444   4.478 -0.5754 -0.1999 -0.5179
 6808TIP3    H141839   5.113   4.370   4.492  1.7066  1.3016 -1.5320
 6808TIP3    H241840   5.104   4.520   4.508 -1.0635  1.4250 -3.4170
 6809TIP3   OH241841   3.721   0.593  17.176  0.5553 -0.3622  0.2798
 6809TIP3    H141842   3.812   0.590  17.148  0.7914 -0.0945  1.0109
 6809TIP3    H241843   3.682   0.664  17.123  0.8369 -0.2818  0.1790
 6810TIP3   OH241844   3.623   3.564   1.576  0.1805  0.6332 -0.0294
 6810TIP3    H141845   3.647   3.472   1.591 -1.1218  0.1335 -0.8086
 6810TIP3    H241846   3.632   3.605   1.662 -0.6669 -0.5746  0.6699
 6811TIP3   OH241847   4.720   5.660   4.337 -0.2094 -1.0068 -0.1117
 6811TIP3    H141848   4.708   5.617   4.421 -0.8694 -1.3914 -0.4024
 6811TIP3    H241849   4.727   5.589   4.273 -0.9756 -0.7001 -0.5501
 6812TIP3   OH241850   0.967   5.062  14.076 -0.0010  0.3842  0.2212
 6812TIP3    H141851   0.918   4.994  14.030  0.9977 -0.4539  0.3550
 6812TIP3    H241852   0.979   5.131  14.011 -0.5057  0.1768 -0.0997
 6813TIP3   OH241853   4.749   4.670  11.396  0.3638 -1.0201 -0.9474
 6813TIP3    H141854   4.747   4.740  11.332  0.2122 -2.7443 -2.9289
 6813TIP3    H241855   4.782   4.711  11.476 -0.7853  1.5025 -1.7047
 6814TIP3   OH241856   6.043   5.025   6.343 -0.0446  0.0662 -0.2054
 6814TIP3    H141857   5.996   5.107   6.331 -0.1250 -0.0995 -1.1135
 6814TIP3    H241858   6.015   4.993   6.429  0.3218  1.1931  0.3459
 6815TIP3   OH241859   5.972   4.053  10.605 -0.0386  0.6718 -0.5448
 6815TIP3    H141860   5.991   3.999  10.528  3.9774  1.4459 -0.3226
 6815TIP3    H241861   5.982   3.994  10.679  1.1596  0.9681 -0.4495
 6816TIP3   OH241862   3.172   3.011   0.350  0.0461 -0.1291 -0.5639
 6816TIP3    H141863   3.239   2.958   0.307  1.3318 -1.4791  2.8261
 6816TIP3    H241864   3.222   3.073   0.404 -1.2932 -1.3656  2.2955
 6817TIP3   OH241865   1.209   1.793   1.694 -0.0282 -0.1276 -0.1653
 6817TIP3    H141866   1.163   1.876   1.689 -0.2086 -0.2539 -0.7083
 6817TIP3    H241867   1.282   1.809   1.754 -0.1211  0.3912 -0.1880
 6818TIP3   OH241868   4.913   4.667   0.854  0.0439  0.2555 -0.5434
 6818TIP3    H141869   4.922   4.718   0.935  0.5438  1.1515 -1.1436
 6818TIP3    H241870   4.951   4.723   0.786  3.5467 -2.1384 -0.7965
 6819TIP3   OH241871   5.787   2.552  16.736 -0.2798 -0.1936 -0.4424
 6819TIP3    H141872   5.798   2.473  16.683 -0.6403 -0.7363  0.2728
 6819TIP3    H241873   5.774   2.622  16.672  2.8632 -0.1819 -1.2280
 6820TIP3   OH241874   6.402   2.376  11.926 -0.1448 -0.2453 -0.1185
 6820TIP3    H141875   6.453   2.334  11.858  0.1317 -0.9070  0.4838
 6820TIP3    H241876   6.404   2.315  12.000 -0.9024  0.1976  0.2921
 6821TIP3   OH241877   3.767   1.480  17.089  0.2039 -0.1816 -0.3539
 6821TIP3    H141878   3.824   1.429  17.031 -1.8861 -1.1691 -1.6773
 6821TIP3    H241879   3.777   1.570  17.059  0.4161 -0.4665 -1.1648
 6822TIP3   OH241880   1.492   0.244   1.985  0.1011 -0.1440  0.1281
 6822TIP3    H141881   1.526   0.166   2.028 -1.9775 -1.1461  0.0440
 6822TIP3    H241882   1.425   0.212   1.926 -0.6408  1.6885 -0.0794
 6823TIP3   OH241883   4.676   5.881   3.969  0.5855 -0.1037 -0.1627
 6823TIP3    H141884   4.599   5.903   4.022  0.6331  2.2363 -0.9406
 6823TIP3    H241885   4.665   5.788   3.948 -1.7919  0.0456  0.1237
 6824TIP3   OH241886   0.982   1.053   4.553  0.4864 -0.0872  0.2808
 6824TIP3    H141887   1.038   1.074   4.478 -0.8165  1.1788 -0.3863
 6824TIP3    H241888   0.893   1.058   4.519 -0.1227  0.0335  1.8072
 6825TIP3   OH241889   4.329   2.864   0.958 -0.1815  0.4358 -0.9217
 6825TIP3    H141890   4.406   2.899   1.002 -0.0371 -0.4993 -0.4057
 6825TIP3    H241891   4.360   2.786   0.913 -1.2859 -1.6150  1.5896
 6826TIP3   OH241892   5.196   4.229  13.619  0.5002  0.1446  0.2499
 6826TIP3    H141893   5.106   4.247  13.593  0.3169 -0.9565  0.0841
 6826TIP3    H241894   5.224   4.157  13.563  1.3856  0.2693  0.5067
 6827TIP3   OH241895   5.175   0.235  13.950  0.3912  0.5595 -0.5638
 6827TIP3    H141896   5.141   0.237  14.040  1.9985 -1.7161  0.1826
 6827TIP3    H241897   5.185   0.328  13.926 -1.9154  1.2451  0.8178
 6828TIP3   OH241898   0.858   3.684  13.923  0.6137 -0.1231  0.0100
 6828TIP3    H141899   0.796   3.658  13.992  0.8255  0.9245  0.6227
 6828TIP3    H241900   0.940   3.642  13.949  0.4039 -0.7264 -0.2790
 6829TIP3   OH241901   2.402   1.803   3.655 -0.0660  0.4219 -0.4212
 6829TIP3    H141902   2.352   1.884   3.664 -0.7079  0.2176 -1.8990
 6829TIP3    H241903   2.339   1.734   3.676 -0.4656  0.1593 -2.3297
 6830TIP3   OH241904   5.152   3.404  15.416  0.0294 -0.4583 -0.0902
 6830TIP3    H141905   5.119   3.325  15.459  0.2025 -0.3654  0.2163
 6830TIP3    H241906   5.202   3.449  15.484 -2.3504  1.3306  0.6020
 6831TIP3   OH241907   0.551   3.928  12.465  0.0822  0.6539 -0.7187
 6831TIP3    H141908   0.615   3.904  12.531 -0.1951 -1.1750 -1.0458
 6831TIP3    H241909   0.509   4.007  12.499 -0.2463 -0.3812  1.4338
 6832TIP3   OH241910   2.212   6.379   3.325 -0.4071 -0.2808  0.1941
 6832TIP3    H141911   2.290   6.400   3.377 -0.5479 -0.3781  0.4496
 6832TIP3    H241912   2.161   6.460   3.325  0.1313  0.0693 -0.7660
 6833TIP3   OH241913   4.685   1.175  15.149  0.1892  0.2255 -0.6110
 6833TIP3    H141914   4.623   1.103  15.163  1.3906 -0.4783  1.4041
 6833TIP3    H241915   4.735   1.149  15.072  1.1882 -1.5829  0.5765
 6834TIP3   OH241916   1.852   2.913  15.184  0.5626 -0.3113 -0.2697
 6834TIP3    H141917   1.799   2.979  15.138  2.4320  1.6474  0.2101
 6834TIP3    H241918   1.805   2.831  15.170 -1.0089  0.8280 -2.3411
 6835TIP3   OH241919   0.062   6.514  12.651 -0.3124 -0.4611 -0.2359
 6835TIP3    H141920   0.030   6.603  12.665  2.3490  0.3427  1.4478
 6835TIP3    H241921  -0.001   6.459  12.699 -1.3437  0.5957 -0.3231
 6836TIP3   OH241922   6.068   2.110   0.862  0.1997  0.6387 -0.5399
 6836TIP3    H141923   5.977   2.135   0.883 -0.0022  0.0006 -0.6367
 6836TIP3    H241924   6.119   2.188   0.885 -0.3074  0.8191  0.0381
 6837TIP3   OH241925   1.329   5.214  15.193  0.3451 -0.0968 -0.1284
 6837TIP3    H141926   1.397   5.194  15.257  0.3254  1.2874  0.3720
 6837TIP3    H241927   1.255   5.158  15.218  0.2303  0.6367  1.2882
 6838TIP3   OH241928   3.652   2.878  11.431  0.7153  0.3997  0.5749
 6838TIP3    H141929   3.622   2.876  11.340 -0.2928 -0.9443  0.8902
 6838TIP3    H241930   3.742   2.847  11.427  1.3851  2.3122 -0.1589
 6839TIP3   OH241931   2.538   0.050   4.434  0.2442  0.6100 -0.5602
 6839TIP3    H141932   2.456   0.099   4.440 -0.4762 -0.7213  1.6123
 6839TIP3    H241933   2.532   0.003   4.351 -2.8043 -1.9883  0.8941
 6840TIP3   OH241934   5.228   2.236   3.484 -0.2818 -0.5295 -0.1940
 6840TIP3    H141935   5.226   2.332   3.482 -1.3009 -0.5374 -0.4713
 6840TIP3    H241936   5.231   2.214   3.577 -0.2845 -0.2231 -0.1198
 6841TIP3   OH241937   0.775   0.141  12.820 -0.3916 -0.6171 -0.2492
 6841TIP3    H141938   0.698   0.172  12.772 -1.3310 -0.6795  1.1365
 6841TIP3    H241939   0.803   0.062  12.773 -0.1536  0.3164 -1.7231
 6842TIP3   OH241940   3.548   4.922   5.266  0.2057  0.2944  0.2222
 6842TIP3    H141941   3.641   4.945   5.273  0.3605  0.3409 -1.5902
 6842TIP3    H241942   3.502   4.996   5.305  0.8974  0.7338  0.2174
 6843TIP3   OH241943   2.202   0.967   1.986  0.8660  0.1851 -0.1700
 6843TIP3    H141944   2.280   0.931   1.944  0.2874 -1.4654  0.1274
 6843TIP3    H241945   2.174   0.900   2.048 -1.1236  0.4896 -0.6724
 6844TIP3   OH241946   0.867   1.165   1.132 -0.0460  0.6616 -0.3553
 6844TIP3    H141947   0.893   1.079   1.165 -0.1185  0.3659 -1.0460
 6844TIP3    H241948   0.789   1.188   1.183  1.6860  1.7264  1.9891
 6845TIP3   OH241949   1.445   2.959  11.570  0.1543  0.4565  0.1242
 6845TIP3    H141950   1.411   3.023  11.507 -1.3488  1.2049  1.6384
 6845TIP3    H241951   1.514   3.006  11.617  0.0344  0.4943  0.2624
 6846TIP3   OH241952   0.064   1.500   3.361  0.2391  0.3548  0.2043
 6846TIP3    H141953  -0.010   1.551   3.393  1.6775  2.3011  0.6030
 6846TIP3    H241954   0.138   1.561   3.362  1.4381 -0.9167 -2.0871
 6847TIP3   OH241955   5.303   1.327  13.705 -0.5256 -0.2185  0.2400
 6847TIP3    H141956   5.394   1.334  13.733 -0.7089  1.1738  0.5870
 6847TIP3    H241957   5.258   1.398  13.752 -2.0130 -1.5379  0.9218
 6848TIP3   OH241958   3.204   1.819  17.199 -0.0523  0.1387  0.0564
 6848TIP3    H141959   3.244   1.739  17.233  0.2335 -0.4096 -1.5062
 6848TIP3    H241960   3.137   1.841  17.263  0.8289 -0.5357  1.2478
 6849TIP3   OH241961   5.648   5.136   5.008 -0.3128 -0.4413  0.1702
 6849TIP3    H141962   5.607   5.062   5.054  0.0581 -1.6053 -1.3115
 6849TIP3    H241963   5.737   5.106   4.989  0.2111  0.8244  0.4867
 6850TIP3   OH241964   0.575   1.741   5.155 -0.3532  0.1857  0.7620
 6850TIP3    H141965   0.514   1.799   5.109 -0.6824 -0.4955  0.3218
 6850TIP3    H241966   0.548   1.653   5.129  1.1031 -0.1257  0.1979
 6851TIP3   OH241967   1.006   1.659   1.581  0.4567 -0.4671  0.5108
 6851TIP3    H141968   1.005   1.715   1.503 -0.3856 -1.0179  0.1120
 6851TIP3    H241969   1.095   1.666   1.615  0.8096 -0.1544 -0.4581
 6852TIP3   OH241970   4.721   0.981  12.894 -0.6822  0.0510 -0.3613
 6852TIP3    H141971   4.709   0.952  12.803 -2.4677 -0.1389 -0.0894
 6852TIP3    H241972   4.703   1.075  12.891  0.7364  0.3374 -0.4498
 6853TIP3   OH241973   5.797   5.041  11.759  0.2176 -0.0071 -0.3653
 6853TIP3    H141974   5.824   4.961  11.713  1.0359 -0.5262  0.9624
 6853TIP3    H241975   5.829   5.029  11.848 -0.1473  1.5679  0.0017
 6854TIP3   OH241976   2.920   1.591  16.934  0.4152  0.5968  0.1318
 6854TIP3    H141977   2.971   1.598  17.015 -0.5597 -1.7195  1.0370
 6854TIP3    H241978   2.976   1.541  16.875  0.5218  1.0046 -0.1220
 6855TIP3   OH241979   1.201   5.238  14.780  0.5650 -0.5316 -0.0352
 6855TIP3    H141980   1.212   5.218  14.687 -1.3136 -0.3060 -0.3540
 6855TIP3    H241981   1.222   5.156  14.825  1.8430 -0.5407 -0.6095
 6856TIP3   OH241982   6.468   2.771   5.100 -0.0601 -0.4858  0.6296
 6856TIP3    H141983   6.548   2.732   5.063 -0.5135 -0.5218 -0.3447
 6856TIP3    H241984   6.426   2.700   5.146 -0.0003 -0.7111  0.3416
 6857TIP3   OH241985   6.027   0.879   2.845 -0.2029  0.4356  0.7185
 6857TIP3    H141986   5.963   0.822   2.801  0.0588  1.6702 -1.4046
 6857TIP3    H241987   6.091   0.900   2.777  1.2042  1.1094  2.1763
 6858TIP3   OH241988   2.545   1.903  13.968  0.1294 -0.0179 -0.1682
 6858TIP3    H141989   2.550   1.810  13.987 -1.7339 -0.5423 -1.7665
 6858TIP3    H241990   2.600   1.915  13.890 -0.0534  0.0813 -0.2851
 6859TIP3   OH241991   0.113   6.565  15.238 -0.0190 -0.1229  0.0216
 6859TIP3    H141992   0.204   6.543  15.216  0.0507 -0.2019  0.3721
 6859TIP3    H241993   0.073   6.588  15.155 -0.1320 -1.7434 -0.4171
 6860TIP3   OH241994   6.487   4.996   2.262 -0.1250 -0.2102  0.4961
 6860TIP3    H141995   6.516   5.070   2.316 -2.2750 -0.3028  1.8901
 6860TIP3    H241996   6.457   4.931   2.326 -0.2154 -1.4494 -0.7752
 6861TIP3   OH241997   6.240   4.011  16.076  0.1428 -0.3920 -0.0189
 6861TIP3    H141998   6.249   3.964  16.159 -1.1544 -1.3475 -0.3845
 6861TIP3    H241999   6.195   3.949  16.019 -0.1996  0.7448 -1.0185
 6862TIP3   OH242000   2.816   4.296  16.174  0.7460 -0.4130 -0.3517
 6862TIP3    H142001   2.849   4.351  16.103  1.6790 -0.8523 -0.2816
 6862TIP3    H242002   2.724   4.320  16.183  0.0857 -1.6604 -2.9630
 6863TIP3   OH242003   0.695   6.347   1.288  0.2840 -0.2365 -0.3461
 6863TIP3    H142004   0.734   6.370   1.372 -0.8621 -0.7031  0.3360
 6863TIP3    H242005   0.642   6.423   1.264  1.7671  0.5147 -1.4126
 6864TIP3   OH242006   2.486   4.125   2.667  0.6262  0.1828  0.6583
 6864TIP3    H142007   2.473   4.032   2.646  0.8235  0.1812  0.5410
 6864TIP3    H242008   2.424   4.143   2.737  0.8186 -0.1229  0.9093
 6865TIP3   OH242009   4.865   3.001   3.345 -0.3063  0.0282  0.9168
 6865TIP3    H142010   4.797   2.956   3.295 -0.0224 -0.4843  0.9795
 6865TIP3    H242011   4.907   3.060   3.283  0.0349 -0.5932  0.5482
 6866TIP3   OH242012   3.743   6.203  16.518  0.0940 -0.1670 -0.0051
 6866TIP3    H142013   3.676   6.135  16.509  2.4638 -3.2657  3.0391
 6866TIP3    H242014   3.694   6.283  16.536 -2.8288 -1.8654  0.1905
 6867TIP3   OH242015   4.602   4.212  14.364 -0.3255 -0.2318 -0.2627
 6867TIP3    H142016   4.569   4.302  14.363 -0.7095 -0.3737 -0.2067
 6867TIP3    H242017   4.525   4.157  14.351 -0.4166 -0.6579  1.8018
 6868TIP3   OH242018   0.743   5.755   4.472  0.9297 -0.3666 -0.3984
 6868TIP3    H142019   0.755   5.850   4.470 -0.1904 -0.1233  1.7206
 6868TIP3    H242020   0.802   5.722   4.404 -0.0144  1.9577 -2.5182
 6869TIP3   OH242021   4.224   3.310  11.102  0.2664 -0.1771 -0.2432
 6869TIP3    H142022   4.238   3.400  11.134 -0.3100  0.1413 -0.8651
 6869TIP3    H242023   4.134   3.290  11.124  0.1379 -0.2886 -0.8610
 6870TIP3   OH242024   5.906   1.346   2.359 -0.3915 -0.5160  0.3028
 6870TIP3    H142025   5.922   1.437   2.335 -1.0946 -0.4765 -0.0233
 6870TIP3    H242026   5.989   1.301   2.339 -0.3252 -0.1136 -0.3378
 6871TIP3   OH242027   6.214   1.380  17.345 -0.8158 -0.3664 -0.0685
 6871TIP3    H142028   6.204   1.438  17.269  1.8276  0.0866 -0.1953
 6871TIP3    H242029   6.287   1.323  17.321 -0.5307 -0.8284  1.7555
 6872TIP3   OH242030   0.950   5.109  14.529  0.1768  0.4005  0.0044
 6872TIP3    H142031   0.882   5.159  14.484  1.5012  2.0575 -0.2447
 6872TIP3    H242032   1.008   5.080  14.459 -0.1302 -0.8575  0.2350
 6873TIP3   OH242033   3.331   6.404  11.470  0.2714  0.2493  0.7238
 6873TIP3    H142034   3.402   6.369  11.417 -0.5126 -0.0611 -0.1591
 6873TIP3    H242035   3.274   6.329  11.485 -2.1711  1.2434 -2.3758
 6874TIP3   OH242036   2.062   0.150  15.619  0.5111  0.4794 -0.0408
 6874TIP3    H142037   2.135   0.190  15.667 -0.0631  2.7733 -0.9111
 6874TIP3    H242038   2.030   0.221  15.562 -1.4956 -0.8783 -0.7037
 6875TIP3   OH242039   4.861   3.691  12.015  0.1735 -0.0208 -0.8731
 6875TIP3    H142040   4.934   3.720  11.960  1.0694 -0.6816 -0.0527
 6875TIP3    H242041   4.783   3.722  11.969  0.9804  1.0847 -1.5305
 6876TIP3   OH242042   2.300   3.611  16.054 -0.5147 -0.7460  0.5232
 6876TIP3    H142043   2.382   3.607  16.004 -0.7809 -2.3909  0.1647
 6876TIP3    H242044   2.302   3.697  16.096  1.7237 -1.0271  1.1018
 6877TIP3   OH242045   5.754   3.697  17.176  0.1604  0.1818 -0.2983
 6877TIP3    H142046   5.804   3.624  17.212  0.9719  0.4543 -0.8582
 6877TIP3    H242047   5.809   3.732  17.106 -0.9683  0.2819 -1.1544
 6878TIP3   OH242048   1.832   2.557   5.508 -0.3285  0.0560  0.1800
 6878TIP3    H142049   1.843   2.649   5.487 -1.0732  0.4699  1.4760
 6878TIP3    H242050   1.769   2.556   5.580 -1.1018 -1.5312 -0.4614
 6879TIP3   OH242051   0.581   0.062   2.393 -0.1160 -0.2699 -0.1532
 6879TIP3    H142052   0.486   0.061   2.388 -0.1654 -1.7097  0.5856
 6879TIP3    H242053   0.602   0.145   2.435 -0.9105  0.8698 -1.8834
 6880TIP3   OH242054   5.728   2.789  17.089  0.0496 -0.1447 -0.1292
 6880TIP3    H142055   5.664   2.842  17.042  0.1709 -0.6861 -0.9259
 6880TIP3    H242056   5.714   2.700  17.056 -0.3579 -0.6733  1.4028
 6881TIP3   OH242057   3.255   2.000   2.668 -0.2275  0.2994  0.0800
 6881TIP3    H142058   3.168   1.965   2.685 -0.2822  0.9122  1.1229
 6881TIP3    H242059   3.297   2.004   2.754  0.9621 -0.3105 -0.4525
 6882TIP3   OH242060   5.554   1.149   1.243 -0.1464  0.1951  0.1790
 6882TIP3    H142061   5.512   1.231   1.218  0.1957 -0.1407 -1.6200
 6882TIP3    H242062   5.600   1.169   1.324 -0.2541  1.7232 -0.1114
 6883TIP3   OH242063   1.795   1.512   3.608  0.4321  0.2439 -0.1059
 6883TIP3    H142064   1.825   1.460   3.682  1.2651 -0.5824 -0.9976
 6883TIP3    H242065   1.700   1.522   3.623  0.2277 -1.6010  0.0604
 6884TIP3   OH242066   1.628   4.299   0.990 -0.0752 -0.5795 -0.1690
 6884TIP3    H142067   1.593   4.209   0.989 -1.2207 -0.1501 -0.2999
 6884TIP3    H242068   1.550   4.354   0.996  0.6306  0.4098  0.0554
 6885TIP3   OH242069   4.542   3.954   2.032  0.4279  0.1509  0.2960
 6885TIP3    H142070   4.565   4.040   2.067  0.5775 -0.3670  1.4948
 6885TIP3    H242071   4.544   3.896   2.107 -0.4781 -0.7567 -0.3539
 6886TIP3   OH242072   3.292   3.398   5.051  0.2184 -0.1429 -0.9748
 6886TIP3    H142073   3.209   3.441   5.070  1.7340  2.3705  0.5173
 6886TIP3    H242074   3.294   3.324   5.112 -1.5916 -1.2855 -2.2086
 6887TIP3   OH242075   3.210   5.462  14.370  0.4196  0.1765  0.3265
 6887TIP3    H142076   3.260   5.543  14.369 -1.3368  1.3317 -0.2877
 6887TIP3    H242077   3.228   5.423  14.455  0.3178  1.8739  1.1652
 6888TIP3   OH242078   5.423   1.294   3.940 -0.3477 -0.6241 -0.4348
 6888TIP3    H142079   5.453   1.372   3.987  2.7880 -1.3115 -1.0821
 6888TIP3    H242080   5.374   1.244   4.005 -2.5592  1.8509 -0.0376
 6889TIP3   OH242081   0.842   3.844  15.650 -0.4723  0.5824  0.5489
 6889TIP3    H142082   0.748   3.832  15.654 -0.4452  0.1064 -0.0074
 6889TIP3    H242083   0.857   3.933  15.681 -1.4365  1.9602 -2.5628
 6890TIP3   OH242084   2.584   4.791   3.605  0.2031  0.1435 -0.1071
 6890TIP3    H142085   2.615   4.712   3.649 -1.5099  0.1924  1.3325
 6890TIP3    H242086   2.603   4.862   3.666  1.4849  0.8463 -1.2719
 6891TIP3   OH242087   2.433   6.158  11.386  0.6195  0.4091  0.2811
 6891TIP3    H142088   2.492   6.224  11.352  0.0846  0.6165 -0.2676
 6891TIP3    H242089   2.378   6.133  11.311  1.1497 -1.0371  0.3425
 6892TIP3   OH242090   6.028   2.546  17.076  0.2025  0.1901 -0.2094
 6892TIP3    H142091   6.024   2.584  17.164  1.5014  0.4294 -0.2377
 6892TIP3    H242092   6.023   2.451  17.091 -1.1467  0.2664 -0.0100
 6893TIP3   OH242093   0.686   3.512   6.360  0.1879  0.4083  0.1485
 6893TIP3    H142094   0.729   3.477   6.282  2.0067 -0.8790  1.6326
 6893TIP3    H242095   0.609   3.456   6.371  0.3603  0.0757 -0.2968
 6894TIP3   OH242096   2.085   5.620   0.327  0.0935  0.1675 -0.1761
 6894TIP3    H142097   1.991   5.606   0.322  0.0227  0.3334  0.5249
 6894TIP3    H242098   2.101   5.700   0.278 -0.2376  0.5574  0.3491
 6895TIP3   OH242099   1.009   3.130  13.070 -0.0665 -0.3586  0.0047
 6895TIP3    H142100   0.992   3.201  13.008 -2.1452 -0.5778  0.2343
 6895TIP3    H242101   1.065   3.069  13.023  0.1752  0.5239 -0.8727
 6896TIP3   OH242102   2.904   4.441  17.028  0.7629 -0.6488 -0.5787
 6896TIP3    H142103   2.909   4.346  17.019 -0.9465 -0.9059  0.6863
 6896TIP3    H242104   2.947   4.460  17.111 -0.8113 -0.6198  0.2749
 6897TIP3   OH242105   2.996   1.595  15.236  0.2751  0.2012 -0.4549
 6897TIP3    H142106   3.064   1.529  15.225  0.5615  0.6609 -1.5214
 6897TIP3    H242107   2.981   1.629  15.148 -1.3452  0.0998 -0.2474
 6898TIP3   OH242108   3.767   3.098  14.578 -0.3734 -0.7562  0.4753
 6898TIP3    H142109   3.821   3.037  14.527  2.2769  0.9492  1.0361
 6898TIP3    H242110   3.716   3.145  14.512 -0.1529 -1.4726 -0.2229
 6899TIP3   OH242111   6.318   5.336   4.549 -0.6025  0.6036  0.1350
 6899TIP3    H142112   6.260   5.261   4.560  0.2271 -0.2958 -1.2578
 6899TIP3    H242113   6.335   5.366   4.638 -1.0850 -0.7623  0.7247
 6900TIP3   OH242114   4.458   3.338  13.797  0.1170  0.7835 -0.4473
 6900TIP3    H142115   4.506   3.372  13.872 -0.0024 -0.1543  0.0718
 6900TIP3    H242116   4.383   3.397  13.787 -0.0136  0.7552  0.3476
 6901TIP3   OH242117   0.657   2.790   4.184  0.3399 -0.2887 -0.5499
 6901TIP3    H142118   0.667   2.794   4.089 -2.8549 -0.2589 -1.0059
 6901TIP3    H242119   0.662   2.881   4.213 -0.8227 -0.0616 -1.0223
 6902TIP3   OH242120   6.725   2.348  15.947  0.0605  0.0308  0.5018
 6902TIP3    H142121   6.636   2.347  15.981 -0.3900 -1.9797 -0.5744
 6902TIP3    H242122   6.718   2.383  15.859  0.1397 -1.1483  0.0112
 6903TIP3   OH242123   6.343   5.605  13.767 -0.1675  0.1159 -0.3456
 6903TIP3    H142124   6.348   5.555  13.686  0.2322 -1.5319  0.6575
 6903TIP3    H242125   6.258   5.648  13.764 -0.5646 -0.7137 -1.1907
 6904TIP3   OH242126   3.573   3.391   6.221  0.3622  0.8010  0.0244
 6904TIP3    H142127   3.642   3.336   6.185 -0.1943 -0.1607  0.3635
 6904TIP3    H242128   3.498   3.331   6.232  0.8020  0.6676  3.7781
 6905TIP3   OH242129   1.726   3.693  14.503  0.5575 -0.2329 -0.5555
 6905TIP3    H142130   1.654   3.716  14.445  1.8199  0.2337 -2.0232
 6905TIP3    H242131   1.726   3.760  14.570 -0.4775 -0.3453 -0.4348
 6906TIP3   OH242132   4.014   5.234  13.122 -0.5693 -0.0446 -0.7998
 6906TIP3    H142133   3.958   5.286  13.179 -1.5373 -0.9797 -0.8607
 6906TIP3    H242134   4.023   5.150  13.167  1.3532  0.2941 -0.4716
 6907TIP3   OH242135   3.125   4.002  12.706  0.5142  0.1087  0.0075
 6907TIP3    H142136   3.128   4.098  12.705 -0.6701  0.1662  0.1348
 6907TIP3    H242137   3.063   3.979  12.637 -1.2361 -0.4222  1.6750
 6908TIP3   OH242138   4.895   5.361   5.490  0.3219  0.2368 -0.1153
 6908TIP3    H142139   4.868   5.381   5.580  1.2881  0.2675  0.1724
 6908TIP3    H242140   4.854   5.277   5.471  2.2432 -1.0975  1.3214
 6909TIP3   OH242141   3.527   1.931   1.757 -0.2815  0.1120  1.0116
 6909TIP3    H142142   3.596   1.996   1.748 -0.5289  0.2444 -0.1457
 6909TIP3    H242143   3.467   1.967   1.821  1.1086 -0.3670  2.6578
 6910TIP3   OH242144   1.348   4.251   3.117 -0.7333  0.3636 -0.1500
 6910TIP3    H142145   1.395   4.188   3.172 -2.1823 -0.2379  0.4588
 6910TIP3    H242146   1.329   4.203   3.037  0.8454  1.0489 -0.9852
 6911TIP3   OH242147   3.498   4.356   0.193 -0.1005 -0.2877  0.3459
 6911TIP3    H142148   3.441   4.287   0.157 -0.7170  0.6474 -0.5202
 6911TIP3    H242149   3.492   4.344   0.288 -1.8886 -0.1280  0.2969
 6912TIP3   OH242150   1.734   2.920   2.669 -0.6240  0.3782  0.4929
 6912TIP3    H142151   1.780   2.962   2.596  1.9735 -0.8208  1.2787
 6912TIP3    H242152   1.795   2.929   2.742 -1.0612 -2.4335  1.3054
 6913TIP3   OH242153   5.484   5.229   3.604  0.6171  0.2485 -0.3509
 6913TIP3    H142154   5.437   5.253   3.525  2.1260  2.0326 -0.7615
 6913TIP3    H242155   5.436   5.272   3.675  0.8752  0.9684 -0.6134
 6914TIP3   OH242156   5.164   5.657  12.252  0.5198  0.2228 -0.1127
 6914TIP3    H142157   5.183   5.608  12.332 -0.4248  0.0324  0.0066
 6914TIP3    H242158   5.215   5.614  12.184 -1.9929 -2.4626 -0.5014
 6915TIP3   OH242159   6.397   4.864  12.594 -0.0695  0.2501 -0.0618
 6915TIP3    H142160   6.410   4.822  12.508  0.9678 -0.7839  0.5805
 6915TIP3    H242161   6.308   4.898  12.590  0.5683  1.8823 -2.2435
 6916TIP3   OH242162   4.336   1.764  15.890 -0.3226  0.3529  1.0124
 6916TIP3    H142163   4.317   1.849  15.851  0.9027  0.0390 -0.3443
 6916TIP3    H242164   4.290   1.766  15.974  0.3956  2.7033  1.4354
 6917TIP3   OH242165   2.106   1.565   4.515 -0.0625 -0.2745  0.0101
 6917TIP3    H142166   2.174   1.583   4.581  1.7668 -1.9270 -1.3235
 6917TIP3    H242167   2.050   1.500   4.556  0.6920 -0.8221  0.1985
 6918TIP3   OH242168   6.534   0.964  13.961  0.0202 -0.3050  0.7221
 6918TIP3    H142169   6.455   0.912  13.966  0.8090 -1.9922 -2.1443
 6918TIP3    H242170   6.503   1.053  13.946 -1.2978 -0.5746  1.6276
 6919TIP3   OH242171   5.852   1.599   1.479 -0.7882  0.1174  0.1626
 6919TIP3    H142172   5.861   1.685   1.520 -0.3708 -0.2470  0.8787
 6919TIP3    H242173   5.919   1.598   1.411 -0.7036  0.3171  0.2411
 6920TIP3   OH242174   0.919   5.369  14.807 -0.3624 -0.1804  0.0586
 6920TIP3    H142175   0.998   5.325  14.777  1.9040  2.3971  1.7559
 6920TIP3    H242176   0.883   5.311  14.874 -0.1356 -1.5476 -0.9676
 6921TIP3   OH242177   0.326   2.301   2.793 -0.1054  0.1170 -0.6887
 6921TIP3    H142178   0.367   2.335   2.714  0.4476 -1.9898 -1.3716
 6921TIP3    H242179   0.254   2.247   2.761  0.1641 -0.8096  0.2231
 6922TIP3   OH242180   5.203   1.274  15.983  0.4438 -0.2049  0.1303
 6922TIP3    H142181   5.239   1.247  15.899 -0.1314 -0.4082 -0.0544
 6922TIP3    H242182   5.244   1.216  16.047  0.0154 -0.8099 -0.1405
 6923TIP3   OH242183   0.618   6.209   4.347 -1.0143  0.2390  0.4511
 6923TIP3    H142184   0.621   6.231   4.254 -0.2585 -0.9562  0.1732
 6923TIP3    H242185   0.661   6.283   4.391  1.5335 -0.6063 -0.4619
 6924TIP3   OH242186   0.478   6.640   5.345  0.4552  0.0654 -0.0609
 6924TIP3    H142187   0.567   6.672   5.358  0.7396 -1.0269  0.7506
 6924TIP3    H242188   0.448   6.687   5.267  1.5217  0.8740 -0.0168
 6925TIP3   OH242189   0.708   3.584   4.555 -0.9617 -0.2659 -0.4730
 6925TIP3    H142190   0.655   3.532   4.615 -0.9282 -0.0174 -0.2252
 6925TIP3    H242191   0.644   3.625   4.497 -0.9577 -0.9884 -1.0033
 6926TIP3   OH242192   6.261   0.948   4.834  0.2404 -0.5865 -0.4938
 6926TIP3    H142193   6.175   0.906   4.838  0.0869 -0.2055  0.3796
 6926TIP3    H242194   6.256   1.005   4.758  0.6764 -2.5888 -2.1315
 6927TIP3   OH242195   5.291   6.398   0.237 -0.0565 -0.1899 -0.0486
 6927TIP3    H142196   5.357   6.465   0.217 -0.0695 -0.6446 -1.7717
 6927TIP3    H242197   5.228   6.443   0.295 -0.5568  1.5994 -1.8698
 6928TIP3   OH242198   0.333   0.369  14.879 -0.2376  0.3426 -0.0411
 6928TIP3    H142199   0.255   0.426  14.875  1.4456  2.7830 -0.6696
 6928TIP3    H242200   0.406   0.427  14.857  1.8850 -1.6700  1.2218
 6929TIP3   OH242201   2.101   1.239  12.733  0.5077  0.1308 -0.3068
 6929TIP3    H142202   2.033   1.175  12.750  0.5638 -0.0313 -0.6853
 6929TIP3    H242203   2.081   1.273  12.646 -0.0211  1.2558  0.2323
 6930TIP3   OH242204   3.984   4.417   1.487 -0.2031 -0.7265  0.0636
 6930TIP3    H142205   3.988   4.340   1.430  0.8908 -0.0062 -0.8796
 6930TIP3    H242206   3.951   4.487   1.431 -1.5979 -0.5781  1.0261
 6931TIP3   OH242207   1.084   1.251  15.838 -0.1086  0.3794 -0.4412
 6931TIP3    H142208   0.996   1.263  15.804 -0.3702  0.7769  0.3603
 6931TIP3    H242209   1.081   1.286  15.927  0.7555  0.0456 -0.2687
 6932TIP3   OH242210   5.573   0.437   1.676 -1.3521 -0.2462 -0.1031
 6932TIP3    H142211   5.600   0.482   1.755 -2.9633  0.9363 -0.1703
 6932TIP3    H242212   5.553   0.348   1.704  0.5985 -0.5972  0.2870
 6933TIP3   OH242213   3.945   5.963  13.202  0.4638  0.1183  0.3858
 6933TIP3    H142214   4.017   5.992  13.145 -0.6175  0.8570 -0.6560
 6933TIP3    H242215   3.987   5.907  13.267  2.1970  1.6468  0.6674
 6934TIP3   OH242216   6.563   1.938  12.179  0.0831 -0.3414 -0.2630
 6934TIP3    H142217   6.471   1.956  12.161 -0.1197 -0.4547  0.6428
 6934TIP3    H242218   6.588   2.005  12.243  0.3457 -0.9404  0.2711
 6935TIP3   OH242219   4.280   1.535   3.478 -0.0974  0.1067 -0.5662
 6935TIP3    H142220   4.361   1.484   3.484  0.1813  0.5781 -0.3349
 6935TIP3    H242221   4.255   1.529   3.386  2.6617  3.7108 -1.8069
 6936TIP3   OH242222   3.164   6.724   4.978 -0.0069 -0.3246 -0.2412
 6936TIP3    H142223   3.107   6.700   4.906 -0.5870  0.1561  0.0420
 6936TIP3    H242224   3.168   6.646   5.034  0.8231 -0.8563 -1.0159
 6937TIP3   OH242225   4.610   2.433  14.320  0.2301 -0.4240 -0.1833
 6937TIP3    H142226   4.608   2.389  14.235  1.9899 -1.1921  0.1139
 6937TIP3    H242227   4.696   2.477  14.322  0.4491 -0.8567  1.3918
 6938TIP3   OH242228   4.352   5.971  12.991  0.3644 -0.9171 -0.0769
 6938TIP3    H142229   4.258   5.987  12.986  0.2931 -1.5647 -1.4363
 6938TIP3    H242230   4.361   5.879  12.965  1.4579 -0.5309 -1.1581
 6939TIP3   OH242231   0.364   0.755  11.655 -0.5718  0.4472  0.9964
 6939TIP3    H142232   0.391   0.701  11.729 -0.9179 -0.6037  0.3747
 6939TIP3    H242233   0.434   0.819  11.645  0.5952 -0.8173  0.8238
 6940TIP3   OH242234   6.387   4.866   2.506 -0.1570  0.0444  0.2764
 6940TIP3    H142235   6.425   4.796   2.559 -1.7058 -0.7155  0.4379
 6940TIP3    H242236   6.429   4.946   2.538  2.2989 -0.8380 -0.4969
 6941TIP3   OH242237   4.288   0.312  16.550 -0.5202 -0.2498  0.6031
 6941TIP3    H142238   4.306   0.393  16.503  1.1470 -0.9035  0.0395
 6941TIP3    H242239   4.210   0.276  16.508 -0.3033  0.2399 -0.2432
 6942TIP3   OH242240   3.146   2.414   2.278  0.3022  0.0974 -0.5576
 6942TIP3    H142241   3.232   2.453   2.294  0.4154  0.4845 -1.9840
 6942TIP3    H242242   3.124   2.369   2.360  1.8124  0.0753 -0.1384
 6943TIP3   OH242243   3.013   6.337  11.623 -0.5559 -0.5601  0.0774
 6943TIP3    H142244   2.941   6.275  11.637 -1.4133  0.4406  0.2221
 6943TIP3    H242245   3.086   6.282  11.595 -0.6640 -1.9108  2.1411
 6944TIP3   OH242246   3.523   1.481  13.106 -0.2203  0.1884 -0.7115
 6944TIP3    H142247   3.462   1.408  13.091 -0.3084  0.2098 -0.4519
 6944TIP3    H242248   3.577   1.483  13.027  2.2757 -2.4974  0.7288
 6945TIP3   OH242249   6.714   1.103  13.584 -0.2066 -0.0082  0.5198
 6945TIP3    H142250   6.734   1.158  13.659  0.9545 -1.8021  1.6187
 6945TIP3    H242251   6.712   1.014  13.619  0.4329 -0.9280 -1.5696
 6946TIP3   OH242252   0.474   1.080  12.247 -0.0410 -0.4734  0.2315
 6946TIP3    H142253   0.441   1.052  12.333  1.1649 -1.9671  0.2583
 6946TIP3    H242254   0.404   1.056  12.186 -0.2436 -0.8772  0.6150
 6947TIP3   OH242255   0.189   0.440  13.505  0.1811 -0.1042  0.0198
 6947TIP3    H142256   0.211   0.503  13.574 -2.5019  2.0904 -0.9680
 6947TIP3    H242257   0.262   0.447  13.443  1.4056 -0.2897  1.3821
 6948TIP3   OH242258   4.616   0.025  16.321  0.1012  0.2697  0.1930
 6948TIP3    H142259   4.526   0.038  16.290  0.4054  2.3942  0.1195
 6948TIP3    H242260   4.605  -0.007  16.411 -0.7187 -0.4431 -0.1396
 6949TIP3   OH242261   1.248   1.418   1.219 -0.4573  0.5530 -0.4488
 6949TIP3    H142262   1.159   1.443   1.244 -0.6903 -2.2422  1.9486
 6949TIP3    H242263   1.236   1.347   1.156  0.0463 -0.6170  0.7595
 6950TIP3   OH242264   0.025   3.641  16.241 -0.4549  0.1582 -0.3406
 6950TIP3    H142265   0.108   3.632  16.196 -1.3794 -0.8907 -1.9160
 6950TIP3    H242266  -0.026   3.701  16.187 -0.5565  1.2182  0.8901
 6951TIP3   OH242267   5.478   1.502   4.100 -0.2293 -0.4571 -0.5287
 6951TIP3    H142268   5.414   1.540   4.161  2.2935  0.8127  1.5126
 6951TIP3    H242269   5.516   1.578   4.056 -0.8888 -1.2783 -2.6176
 6952TIP3   OH242270   0.255   0.945  13.833  0.7557 -0.1434  0.4352
 6952TIP3    H142271   0.330   0.922  13.778  0.6315  0.6828 -0.0991
 6952TIP3    H242272   0.268   0.894  13.913  1.2950 -0.8621 -0.0863
 6953TIP3   OH242273   3.648   3.534  11.054 -0.6655  0.2669  0.4108
 6953TIP3    H142274   3.714   3.539  11.124 -1.5499  0.5893  1.2452
 6953TIP3    H242275   3.618   3.624  11.043  0.1740  0.3849 -1.1040
 6954TIP3   OH242276   5.437   1.986  10.627 -0.4154  0.4678 -0.4147
 6954TIP3    H142277   5.469   1.904  10.665 -0.3362  1.0276  0.7502
 6954TIP3    H242278   5.342   1.974  10.620 -0.2699 -0.2309 -1.5381
 6955TIP3   OH242279   2.320   4.740   6.599 -0.2635 -0.4150  0.3693
 6955TIP3    H142280   2.313   4.694   6.515  0.5578 -2.1742  1.1919
 6955TIP3    H242281   2.369   4.679   6.655 -0.9191  0.6332  2.1704
 6956TIP3   OH242282   1.543   0.311  16.833 -0.1788 -0.2358 -0.1110
 6956TIP3    H142283   1.524   0.254  16.908 -0.0996  0.4336  0.4288
 6956TIP3    H242284   1.635   0.291  16.812  0.5846  1.2644  1.5174
 6957TIP3   OH242285   3.070   6.038   2.591 -0.0399  0.5351 -0.1841
 6957TIP3    H142286   3.145   6.042   2.650  0.7325  1.5051 -1.2012
 6957TIP3    H242287   3.097   5.981   2.519 -0.6428  0.0946 -0.0727
 6958TIP3   OH242288   4.362   2.109   3.623 -0.1055 -0.3800  0.8065
 6958TIP3    H142289   4.363   2.152   3.709  2.3765 -0.5450  0.9294
 6958TIP3    H242290   4.389   2.019   3.642 -0.5512 -0.6969 -0.0369
 6959TIP3   OH242291   1.170   5.442  17.101 -0.4502 -0.3795 -0.0033
 6959TIP3    H142292   1.243   5.503  17.093 -1.1866  0.8059  1.7911
 6959TIP3    H242293   1.208   5.357  17.080  2.2481 -0.2677  3.6227
 6960TIP3   OH242294   5.491   3.710  11.871 -0.2220  0.9868 -0.0475
 6960TIP3    H142295   5.474   3.648  11.943 -1.0949  1.5860  0.2830
 6960TIP3    H242296   5.404   3.733  11.839  0.1622  0.7875 -1.2653
 6961TIP3   OH242297   4.060   6.049   0.681 -0.4571  0.1967  0.1685
 6961TIP3    H142298   4.078   6.126   0.627 -1.2753  0.1340 -0.2095
 6961TIP3    H242299   4.102   6.069   0.765  1.6602 -0.1268 -0.7609
 6962TIP3   OH242300   3.506   4.378  15.984  0.4085  0.0945  0.2852
 6962TIP3    H142301   3.501   4.431  16.064  0.9302 -1.3403  1.3079
 6962TIP3    H242302   3.547   4.296  16.012 -1.4625 -1.3501 -0.9901
 6963TIP3   OH242303   0.650   6.337   5.582  0.1322  0.8844  0.4044
 6963TIP3    H142304   0.737   6.369   5.560 -0.2438  1.4573 -0.2708
 6963TIP3    H242305   0.646   6.248   5.545  0.9201  0.2951  1.6630
 6964TIP3   OH242306   6.419   1.714   5.145  0.0818 -0.2578 -0.1417
 6964TIP3    H142307   6.446   1.689   5.233 -1.3097 -0.1927  0.3364
 6964TIP3    H242308   6.473   1.790   5.123  0.3447 -0.1867  0.7213
 6965TIP3   OH242309   2.648   1.161   5.943 -0.7325  0.1251 -0.5461
 6965TIP3    H142310   2.734   1.200   5.958 -0.1226 -2.0945  2.8189
 6965TIP3    H242311   2.666   1.080   5.896 -1.1133  0.1137 -0.6765
 6966TIP3   OH242312   3.175   1.179  11.208  0.0280  0.4056  0.0154
 6966TIP3    H142313   3.110   1.140  11.266 -0.9204  0.0176 -1.2524
 6966TIP3    H242314   3.127   1.247  11.160  0.9528  1.1886  0.1596
 6967TIP3   OH242315   3.751   4.697  11.799 -0.1637  0.3200  0.1917
 6967TIP3    H142316   3.734   4.663  11.711  2.5896 -0.4346 -0.1651
 6967TIP3    H242317   3.758   4.791  11.788  0.4343  0.2022 -0.4747
 6968TIP3   OH242318   6.116   2.799  11.942 -0.3033  0.5109  0.2221
 6968TIP3    H142319   6.090   2.766  11.856  1.6832  0.9689 -0.6125
 6968TIP3    H242320   6.080   2.887  11.946  0.4326  0.8550 -0.5797
 6969TIP3   OH242321   2.728   5.000   1.660  1.0358  0.0879 -0.2759
 6969TIP3    H142322   2.817   5.024   1.636  1.4440  1.8557  2.5428
 6969TIP3    H242323   2.684   5.083   1.674 -0.7669 -0.7773 -0.4865
 6970TIP3   OH242324   3.377   4.956   0.043  0.6555  0.5834  0.0039
 6970TIP3    H142325   3.393   4.863   0.029  0.8098  0.7955 -1.3199
 6970TIP3    H242326   3.283   4.967   0.029  0.9555  0.9565 -2.0155
 6971TIP3   OH242327   3.693   0.377  17.018 -0.4774  0.5289  0.0370
 6971TIP3    H142328   3.696   0.435  17.094  1.1808  0.1247  0.3221
 6971TIP3    H242329   3.695   0.289  17.055 -0.3968  0.3259 -0.4424
 6972TIP3   OH242330   5.704   2.150   3.070  0.5589  0.0312  0.4943
 6972TIP3    H142331   5.788   2.187   3.042  0.8751 -0.0093  1.3564
 6972TIP3    H242332   5.710   2.147   3.165 -2.3659  4.9430  1.2034
 6973TIP3   OH242333   3.613   1.014  14.226 -0.6672 -0.1285 -0.7405
 6973TIP3    H142334   3.541   1.052  14.276 -0.9686 -0.9084 -0.5653
 6973TIP3    H242335   3.570   0.963  14.157 -0.3174 -1.5188  0.0374
 6974TIP3   OH242336   3.055   5.729  15.771  0.0067 -0.1340 -0.1377
 6974TIP3    H142337   3.067   5.791  15.843  1.5445 -0.3495 -0.1822
 6974TIP3    H242338   3.032   5.647  15.814  2.4937 -0.6788  0.2774
 6975TIP3   OH242339   5.478   0.311   5.679 -0.0363 -0.4680  0.3793
 6975TIP3    H142340   5.565   0.341   5.653  0.0165  1.8650  2.7817
 6975TIP3    H242341   5.492   0.268   5.764 -1.2529  0.4541  1.0845
 6976TIP3   OH242342   4.423   6.087   4.518 -0.1619  0.0632  0.8707
 6976TIP3    H142343   4.416   6.100   4.424  0.8351 -0.8967  0.6350
 6976TIP3    H242344   4.503   6.134   4.542  1.0790 -1.8851  0.7433
 6977TIP3   OH242345   2.605   1.568  15.237 -0.1861  0.7686  0.4140
 6977TIP3    H142346   2.673   1.568  15.305 -0.9028  1.9355  1.1749
 6977TIP3    H242347   2.646   1.525  15.162  0.5046 -0.9302  1.6866
 6978TIP3   OH242348   0.208   4.258   3.367 -0.2314 -0.3606  0.4643
 6978TIP3    H142349   0.154   4.273   3.289  0.5965  1.4095  0.1855
 6978TIP3    H242350   0.145   4.238   3.436 -1.0477 -0.9631 -0.4297
 6979TIP3   OH242351   4.268   1.792   0.636 -0.3791 -0.1227  0.0833
 6979TIP3    H142352   4.339   1.733   0.609  0.5052 -0.4915  2.8841
 6979TIP3    H242353   4.313   1.864   0.680 -1.6850 -0.6606  2.4791
 6980TIP3   OH242354   0.777   3.024   1.700 -0.5774  0.3183 -0.5629
 6980TIP3    H142355   0.832   2.980   1.766 -0.5724 -2.2517 -2.1689
 6980TIP3    H242356   0.725   2.954   1.662 -1.9309  2.0519 -2.0315
 6981TIP3   OH242357   5.034   3.144   1.733 -0.1767  0.1109 -0.1774
 6981TIP3    H142358   5.073   3.170   1.649 -1.8598 -0.5568 -1.2269
 6981TIP3    H242359   4.962   3.086   1.709  0.0924 -1.1606  1.8294
 6982TIP3   OH242360   3.464   6.031  13.962  0.8662  0.0031 -0.3558
 6982TIP3    H142361   3.554   6.018  13.931  2.0880 -0.7685  3.0641
 6982TIP3    H242362   3.462   6.122  13.992  0.6487 -0.0986 -0.0542
 6983TIP3   OH242363   1.155   4.645   5.296  0.1432 -0.2955 -0.6247
 6983TIP3    H142364   1.208   4.587   5.350  0.5170  0.3993 -0.2270
 6983TIP3    H242365   1.069   4.603   5.292 -0.2074  0.1704  1.4145
 6984TIP3   OH242366   5.557   0.231  15.450  0.1846  0.4948  0.4528
 6984TIP3    H142367   5.606   0.190  15.520 -0.3298  0.6786  0.9245
 6984TIP3    H242368   5.600   0.201  15.370  1.1038  0.7080  0.8555
 6985TIP3   OH242369   0.858   5.890   1.106 -1.0399 -0.5274  0.4266
 6985TIP3    H142370   0.796   5.956   1.137  1.6819  1.3906  2.2623
 6985TIP3    H242371   0.914   5.936   1.044 -0.3412 -1.7004  0.1478
 6986TIP3   OH242372   3.389   3.205  12.670  0.0366  0.1873 -0.4252
 6986TIP3    H142373   3.396   3.135  12.735 -0.3039  0.1984 -0.3739
 6986TIP3    H242374   3.295   3.208  12.648 -0.0384  1.0007 -0.0212
 6987TIP3   OH242375   3.022   2.174   1.755  0.6535 -0.0932  0.1408
 6987TIP3    H142376   3.023   2.127   1.839  1.0660  1.7390  1.2015
 6987TIP3    H242377   3.104   2.222   1.753  0.3982  0.3293 -1.0668
 6988TIP3   OH242378   2.723   6.419   2.089  0.0432  0.1686  0.5009
 6988TIP3    H142379   2.652   6.388   2.146 -1.6888  3.1042  0.1259
 6988TIP3    H242380   2.681   6.430   2.003  1.4869  0.1062 -0.2378
 6989TIP3   OH242381   0.258   4.959   1.589 -0.1432 -0.1949  0.1996
 6989TIP3    H142382   0.347   4.925   1.580  0.0445 -0.1815  1.7825
 6989TIP3    H242383   0.203   4.890   1.553  0.4551 -0.5409 -0.0815
 6990TIP3   OH242384   4.657   2.467  13.526  0.3279  0.2012  0.0318
 6990TIP3    H142385   4.699   2.429  13.448  1.8730 -0.3393  1.0631
 6990TIP3    H242386   4.631   2.555  13.499  1.3154  0.2163 -0.9568
 6991TIP3   OH242387   5.949   0.728  15.002 -0.1341 -0.0700  0.3943
 6991TIP3    H142388   5.871   0.695  14.957  0.0351 -0.9430  0.7105
 6991TIP3    H242389   6.001   0.771  14.934  0.3076 -1.7033 -0.3521
 6992TIP3   OH242390   2.149   3.749   4.846  0.1960 -0.1798 -0.3881
 6992TIP3    H142391   2.111   3.822   4.796  1.4880  1.3744  0.7703
 6992TIP3    H242392   2.240   3.744   4.816 -0.4276 -3.0288 -2.2198
 6993TIP3   OH242393   5.938   6.726  12.363 -0.5656  0.1631 -0.0345
 6993TIP3    H142394   5.956   6.714  12.456 -3.2506  0.3055  0.5813
 6993TIP3    H242395   6.019   6.763  12.328  0.2994  0.7566  2.3763
 6994TIP3   OH242396   3.344   3.491   0.761  0.0199  0.4083 -0.0070
 6994TIP3    H142397   3.282   3.561   0.782  0.8407  1.0398  0.3739
 6994TIP3    H242398   3.427   3.520   0.800  0.8603  0.1673 -1.5136
 6995TIP3   OH242399   5.242   2.886  14.579  0.4697  0.0574  0.6370
 6995TIP3    H142400   5.306   2.941  14.535  0.5046 -0.0297  0.5780
 6995TIP3    H242401   5.246   2.803  14.532 -0.1941  0.2783  0.1787
 6996TIP3   OH242402   5.665   1.332  17.174  0.0418 -0.5109  0.2346
 6996TIP3    H142403   5.701   1.318  17.261  1.6277 -0.0049 -0.3153
 6996TIP3    H242404   5.711   1.270  17.118 -0.1577 -0.0628 -0.4367
 6997TIP3   OH242405   0.100   3.744   6.590 -0.3137  0.5758  0.5190
 6997TIP3    H142406   0.013   3.772   6.619 -2.0706 -0.6903 -3.0127
 6997TIP3    H242407   0.149   3.826   6.579 -1.2756  1.3650  1.7440
 6998TIP3   OH242408   1.524   4.319   1.811 -0.0767  0.0757 -0.3758
 6998TIP3    H142409   1.554   4.318   1.902  0.3607  2.9608 -0.3669
 6998TIP3    H242410   1.429   4.314   1.818 -0.1504  1.6997  0.4202
 6999TIP3   OH242411   5.022   1.597  16.634 -0.4273  0.1287 -0.0966
 6999TIP3    H142412   5.021   1.531  16.703  0.5559  1.0009  0.7856
 6999TIP3    H242413   5.014   1.680  16.680  2.2032  0.8661 -0.7975
 7000TIP3   OH242414   2.035   4.541  16.796 -0.0980  0.5633 -0.1017
 7000TIP3    H142415   2.026   4.633  16.820 -0.5367  0.2136  1.2051
 7000TIP3    H242416   1.954   4.520  16.749 -0.3940  0.6497  0.3538
 7001TIP3   OH242417   0.962   2.521  17.223  0.2516 -0.0440 -0.0809
 7001TIP3    H142418   0.890   2.568  17.182  2.8404  3.5172 -0.9787
 7001TIP3    H242419   0.938   2.428  17.213 -3.7816  0.8889 -0.8898
 7002TIP3   OH242420   2.808   2.710   3.179  0.8819  0.1547  0.0527
 7002TIP3    H142421   2.897   2.680   3.163  1.2728 -0.5681  2.9093
 7002TIP3    H242422   2.764   2.634   3.219 -0.3156  1.1606  0.7579
 7003TIP3   OH242423   1.963   0.913  15.503  0.1118 -0.2380  0.3004
 7003TIP3    H142424   2.007   0.981  15.554 -0.5765 -0.5367  1.3156
 7003TIP3    H242425   2.009   0.913  15.419  0.7060  0.8547  0.6044
 7004TIP3   OH242426   2.711   0.932  11.417 -0.3551 -0.1533  0.2880
 7004TIP3    H142427   2.793   0.907  11.462  1.1446 -0.1900 -2.3007
 7004TIP3    H242428   2.694   0.859  11.358 -1.2936  0.6685 -0.4760
 7005TIP3   OH242429   2.688   3.358   1.709 -0.3226  0.5297 -0.5329
 7005TIP3    H142430   2.714   3.432   1.765 -1.4930  0.3593  0.2695
 7005TIP3    H242431   2.620   3.393   1.653 -2.3691 -0.3823  1.2425
 7006TIP3   OH242432   0.900   6.651  16.463  0.6128  0.3469  0.5930
 7006TIP3    H142433   0.905   6.555  16.460  0.2121  0.3332  0.2456
 7006TIP3    H242434   0.922   6.679  16.374  0.8830  0.5840  0.7354
 7007TIP3   OH242435   1.014   2.585  13.298 -0.6871  0.2495 -0.0483
 7007TIP3    H142436   0.995   2.630  13.380  0.2819 -0.1211  0.3963
 7007TIP3    H242437   1.001   2.651  13.230 -1.4752  0.5622  0.3973
 7008TIP3   OH242438   5.991   5.638   4.577 -0.2497  0.3705 -1.2233
 7008TIP3    H142439   6.051   5.607   4.510  1.2234  0.3584  0.0438
 7008TIP3    H242440   6.023   5.726   4.599  0.7302 -0.4716  1.0084
 7009TIP3   OH242441   4.695   5.179   5.045 -0.3599  0.1141 -0.4923
 7009TIP3    H142442   4.669   5.176   5.137 -0.2878  3.5065 -0.2189
 7009TIP3    H242443   4.748   5.258   5.038 -0.9327  0.3558 -3.5746
 7010TIP3   OH242444   0.820   4.813   4.614  0.4806 -0.1037  0.0091
 7010TIP3    H142445   0.803   4.906   4.598  1.6622  0.2525  0.6569
 7010TIP3    H242446   0.739   4.769   4.589 -0.2318  1.1394  0.0269
 7011TIP3   OH242447   4.423   5.375   4.208  0.0530 -0.0835  0.5394
 7011TIP3    H142448   4.382   5.295   4.241  0.9992 -0.9951 -0.4479
 7011TIP3    H242449   4.382   5.445   4.259 -1.4704 -1.1035  0.7814
 7012TIP3   OH242450   6.536   0.424   6.562 -0.2501  0.1633 -0.1921
 7012TIP3    H142451   6.472   0.481   6.519  1.0249  1.2780 -0.6551
 7012TIP3    H242452   6.524   0.441   6.656  0.5304  1.6964 -0.3451
 7013TIP3   OH242453   2.816   2.672   1.268  0.0236 -0.0381  0.1853
 7013TIP3    H142454   2.894   2.619   1.253  0.4917  0.8515 -0.6156
 7013TIP3    H242455   2.845   2.741   1.328 -0.1939  0.1941  0.0252
 7014TIP3   OH242456   1.149   6.018  10.668 -0.4462  0.2404  0.0656
 7014TIP3    H142457   1.237   6.019  10.707 -0.7150 -0.2448  0.7083
 7014TIP3    H242458   1.162   6.047  10.578  0.5949 -1.2364 -0.3039
 7015TIP3   OH242459   1.320   3.651   4.945 -0.1310 -0.1028  0.3326
 7015TIP3    H142460   1.302   3.634   4.852  0.6736  0.1246  0.1218
 7015TIP3    H242461   1.373   3.731   4.945 -0.5722  0.1922  1.0309
 7016TIP3   OH242462   5.931   3.311   3.708  0.0359  0.6338 -0.4549
 7016TIP3    H142463   5.944   3.395   3.664  0.9883  1.6218  1.5539
 7016TIP3    H242464   6.014   3.296   3.755 -0.7441 -0.5657  0.6082
 7017TIP3   OH242465   3.413   6.407   2.584 -0.3368 -0.2451  0.2613
 7017TIP3    H142466   3.399   6.501   2.595  1.2197  0.0748 -0.2104
 7017TIP3    H242467   3.468   6.382   2.659 -0.6565 -0.7734  0.3313
 7018TIP3   OH242468   5.130   6.573   2.964  0.0350 -0.1019  0.1117
 7018TIP3    H142469   5.151   6.498   2.908 -1.3907  0.1733 -0.8585
 7018TIP3    H242470   5.045   6.603   2.931  0.2824  1.5432  0.9122
 7019TIP3   OH242471   4.555   3.041  14.686  0.3467  0.7867 -0.3648
 7019TIP3    H142472   4.621   2.982  14.722 -1.5570 -2.2212 -1.3954
 7019TIP3    H242473   4.591   3.128  14.701  1.9715 -0.3421  4.1721
 7020TIP3   OH242474   3.029   5.063   3.379  0.2729 -0.5680  0.1625
 7020TIP3    H142475   3.103   5.088   3.433  0.6740  0.2415 -0.7366
 7020TIP3    H242476   3.018   4.969   3.395  0.7323 -0.4558  1.1993
 7021TIP3   OH242477   5.021   4.330   5.176  0.0091  0.1739  0.1564
 7021TIP3    H142478   4.950   4.268   5.191  2.2453 -2.5114  0.4066
 7021TIP3    H242479   5.069   4.332   5.258  0.9177  0.9682 -0.3703
 7022TIP3   OH242480   0.444   3.237   0.426  0.1885  0.2898  0.0058
 7022TIP3    H142481   0.364   3.217   0.474 -0.9426  0.0940 -1.8541
 7022TIP3    H242482   0.507   3.171   0.456 -1.0146 -0.9304 -0.0426
 7023TIP3   OH242483   0.891   6.563  12.374 -0.0902  0.3436 -0.3451
 7023TIP3    H142484   0.900   6.468  12.367 -1.1339  0.2034  0.0171
 7023TIP3    H242485   0.981   6.596  12.377  0.3179 -0.4741 -2.2164
 7024TIP3   OH242486   1.798   6.361  14.987 -0.1925 -0.2509  0.3110
 7024TIP3    H142487   1.749   6.293  15.032 -0.5361 -0.0078  0.3085
 7024TIP3    H242488   1.878   6.372  15.039  0.1546 -1.0802 -0.0284
 7025TIP3   OH242489   0.303   6.097   4.731  0.4324 -0.2889 -0.1952
 7025TIP3    H142490   0.318   6.092   4.636 -0.1261 -1.0132 -0.2554
 7025TIP3    H242491   0.391   6.103   4.769  0.6697 -0.1863 -0.7510
 7026TIP3   OH242492   6.413   1.194   6.538 -0.2976  0.2080  0.2348
 7026TIP3    H142493   6.361   1.123   6.576  1.1320 -0.1355  1.6659
 7026TIP3    H242494   6.479   1.214   6.605 -0.1613  2.3584 -0.4662
 7027TIP3   OH242495   6.726   1.623  12.153 -0.7890 -0.2897  0.4408
 7027TIP3    H142496   6.743   1.534  12.121 -0.7007 -0.1328  0.0553
 7027TIP3    H242497   6.680   1.666  12.081  2.8705  1.3445 -1.1631
 7028TIP3   OH242498   5.384   1.285   2.694 -0.7551  0.0825  0.0587
 7028TIP3    H142499   5.315   1.349   2.677  0.1459  0.9909 -0.2181
 7028TIP3    H242500   5.463   1.337   2.705  0.0583 -1.0051 -0.5043
 7029TIP3   OH242501   2.570   0.763  10.559 -0.0040 -0.4763 -0.3726
 7029TIP3    H142502   2.629   0.741  10.632  1.8538  1.7454 -1.0700
 7029TIP3    H242503   2.613   0.725  10.482  0.8578  1.5116 -0.9439
 7030TIP3   OH242504   5.719   0.723  15.564  0.5833 -0.1172 -0.3170
 7030TIP3    H142505   5.807   0.724  15.528  1.0130  0.6102  0.7195
 7030TIP3    H242506   5.731   0.738  15.657 -0.8783  5.5426 -0.6816
 7031TIP3   OH242507   1.586   4.030   0.966 -0.7158  0.9408  0.4118
 7031TIP3    H142508   1.625   3.963   0.910  0.7401  2.3094 -0.2855
 7031TIP3    H242509   1.509   3.988   1.004  0.7471 -1.4729  0.8669
 7032TIP3   OH242510   5.629   3.453  13.053 -0.0102 -0.3315  0.0777
 7032TIP3    H142511   5.658   3.476  13.141 -0.6585  0.8211  0.0143
 7032TIP3    H242512   5.699   3.483  12.996  0.9385 -2.0924  0.2361
 7033TIP3   OH242513   1.097   1.687   4.838 -0.3319  0.0266 -0.5450
 7033TIP3    H142514   1.055   1.696   4.924  0.1264 -0.7785 -0.2241
 7033TIP3    H242515   1.189   1.671   4.858  0.3469  2.5634 -1.2427
 7034TIP3   OH242516   6.470   0.204  15.492 -0.1371  0.4260 -0.1843
 7034TIP3    H142517   6.507   0.167  15.411 -0.7506  0.2227 -0.3752
 7034TIP3    H242518   6.377   0.214  15.473 -0.2423  0.6020  0.4194
 7035TIP3   OH242519   6.376   0.329  17.235  0.4404 -0.0569 -0.1383
 7035TIP3    H142520   6.286   0.311  17.262  0.6867 -0.3692  0.4978
 7035TIP3    H242521   6.424   0.250  17.258  1.1379  0.6219  0.7907
 7036TIP3   OH242522   1.821   1.202   3.406  0.2641 -0.0509 -0.5547
 7036TIP3    H142523   1.882   1.145   3.360  0.2937  0.3336 -1.0012
 7036TIP3    H242524   1.823   1.284   3.357 -0.2049  0.1465 -0.2556
 7037TIP3   OH242525   6.633   1.722   5.563  0.0302  0.1197 -0.5239
 7037TIP3    H142526   6.607   1.789   5.627  0.6104  0.0042 -0.1527
 7037TIP3    H242527   6.585   1.644   5.590  2.1568 -0.6530  1.3855
 7038TIP3   OH242528   6.129   2.927   4.022 -0.1702  0.0575  0.4547
 7038TIP3    H142529   6.039   2.956   4.029  0.1780  1.1151  0.6263
 7038TIP3    H242530   6.175   2.972   4.092  0.5525 -0.2407  0.1885
 7039TIP3   OH242531   6.300   5.346   4.814  0.1447  0.3227  0.2569
 7039TIP3    H142532   6.347   5.403   4.875 -0.7884 -0.1433  1.4494
 7039TIP3    H242533   6.253   5.284   4.870  0.8015 -1.3767 -0.9897
 7040TIP3   OH242534   2.857   3.298  15.523 -0.3480 -0.0532 -0.4037
 7040TIP3    H142535   2.771   3.265  15.550  0.4618 -1.8103  0.1830
 7040TIP3    H242536   2.882   3.241  15.450  0.7543 -0.2464  0.1053
 7041TIP3   OH242537   5.187   5.536   0.304 -0.2563 -0.4376  0.0447
 7041TIP3    H142538   5.194   5.520   0.210 -2.2230  1.1433 -0.4279
 7041TIP3    H242539   5.238   5.616   0.319 -1.1074  0.1171  0.0455
 7042TIP3   OH242540   3.598   1.955  11.255  0.1588 -0.1297 -0.1452
 7042TIP3    H142541   3.518   2.007  11.256  0.6013  0.5696 -0.3534
 7042TIP3    H242542   3.600   1.916  11.167  0.6515  0.8194 -0.5613
 7043TIP3   OH242543   0.291   6.219   3.272 -0.0164  0.1128 -0.0077
 7043TIP3    H142544   0.379   6.209   3.309  0.4817 -0.0529 -1.1962
 7043TIP3    H242545   0.238   6.157   3.322  0.8650 -0.9093 -0.2845
 7044TIP3   OH242546   0.294   0.837   2.454  0.0405  0.1787 -0.1525
 7044TIP3    H142547   0.294   0.825   2.549  1.0983 -0.4102 -0.2049
 7044TIP3    H242548   0.227   0.776   2.422  0.9251 -0.9668  0.0994
 7045TIP3   OH242549   3.216   0.978   3.575  0.4399  0.1227 -0.0295
 7045TIP3    H142550   3.252   1.030   3.647 -0.8703  0.6509  0.2709
 7045TIP3    H242551   3.252   0.890   3.589 -0.2527  0.0613  1.6497
 7046TIP3   OH242552   0.704   0.417   5.864 -0.4093  0.7824 -0.6280
 7046TIP3    H142553   0.753   0.485   5.817  1.9774  0.1510  0.7882
 7046TIP3    H242554   0.758   0.397   5.940 -0.4225 -3.4427 -1.4804
 7047TIP3   OH242555   5.581   0.105  12.485 -0.1804 -0.3065  0.7833
 7047TIP3    H142556   5.559   0.194  12.457  0.3226  0.2728  2.1698
 7047TIP3    H242557   5.633   0.069  12.413  0.9448  1.0859  0.8742
 7048TIP3   OH242558   4.759   0.690   1.256 -0.1336 -1.0037  0.1476
 7048TIP3    H142559   4.733   0.666   1.167 -1.1145 -1.7796  0.6301
 7048TIP3    H242560   4.798   0.777   1.247 -0.8856 -0.7624 -0.9344
 7049TIP3   OH242561   0.357   0.103  14.913 -0.3692  0.4062 -0.3171
 7049TIP3    H142562   0.411   0.070  14.841 -0.3646 -0.1100 -0.0833
 7049TIP3    H242563   0.355   0.198  14.900 -1.2361  0.2438 -1.6190
 7050TIP3   OH242564   5.639   5.715   0.710 -0.1260  0.6121 -0.1242
 7050TIP3    H142565   5.675   5.700   0.623  0.6408  0.4211  0.2193
 7050TIP3    H242566   5.595   5.800   0.704  0.3040  0.8063 -0.5743
 7051TIP3   OH242567   4.188   1.580   4.415  0.1652 -0.1503 -0.2660
 7051TIP3    H142568   4.206   1.658   4.363 -1.1897  0.4431  0.1209
 7051TIP3    H242569   4.199   1.608   4.506  0.1235 -0.5373 -0.1368
 7052TIP3   OH242570   4.726   5.400   4.430  0.6486 -0.3454  0.5022
 7052TIP3    H142571   4.678   5.352   4.363 -1.0842  1.9025  0.0050
 7052TIP3    H242572   4.818   5.386   4.409  0.2011  0.9609 -2.9427
 7053TIP3   OH242573   1.742   5.020   1.727  0.4505 -0.1226  0.0301
 7053TIP3    H142574   1.812   5.041   1.789 -0.2308 -2.3217  1.6787
 7053TIP3    H242575   1.785   5.016   1.642  2.1523 -0.5682  0.8648
 7054TIP3   OH242576   0.787   0.531   0.135 -0.2786 -0.2468  0.1605
 7054TIP3    H142577   0.860   0.527   0.196 -1.2633 -0.9856  1.3300
 7054TIP3    H242578   0.731   0.457   0.160 -1.9155  0.8839 -0.0613
 7055TIP3   OH242579   5.286   3.890   3.114 -0.5765 -0.2377  0.2431
 7055TIP3    H142580   5.358   3.933   3.066  0.6292 -0.9469  1.3567
 7055TIP3    H242581   5.328   3.818   3.161 -2.1531 -1.1016  0.3862
 7056TIP3   OH242582   4.039   1.788   0.105 -0.0639  0.4448  0.0377
 7056TIP3    H142583   4.100   1.743   0.047  1.0226  1.5243  0.2837
 7056TIP3    H242584   4.018   1.724   0.173 -2.1620 -1.1942 -2.0115
 7057TIP3   OH242585   1.007   5.580   3.682 -0.2963  0.2952  1.0018
 7057TIP3    H142586   1.067   5.642   3.723  1.5621 -0.4639 -0.4297
 7057TIP3    H242587   1.004   5.606   3.590 -3.0102  0.9093  1.1810
 7058TIP3   OH242588   2.294   6.649  11.120  0.0035 -0.1657  0.4634
 7058TIP3    H142589   2.245   6.726  11.149 -0.3778 -0.2689  0.1109
 7058TIP3    H242590   2.370   6.685  11.075 -0.0865  0.0035  0.4453
 7059TIP3   OH242591   0.152   6.465   3.734  1.0790  0.2409 -0.3090
 7059TIP3    H142592   0.178   6.500   3.649  1.7550 -0.8558 -0.5762
 7059TIP3    H242593   0.184   6.529   3.797  1.3934  0.6142 -0.8373
 7060TIP3   OH242594   6.672   1.524   0.825  0.6264  0.3988  0.3869
 7060TIP3    H142595   6.665   1.429   0.831 -4.2324  0.5397  0.6870
 7060TIP3    H242596   6.603   1.550   0.764  0.9676  3.7978  1.2026
 7061TIP3   OH242597   0.933   1.353  12.408 -0.2799 -0.5522  0.2399
 7061TIP3    H142598   0.985   1.285  12.451  0.1652 -0.8222 -0.6946
 7061TIP3    H242599   0.879   1.390  12.478  1.3720 -0.0589  1.3093
 7062TIP3   OH242600   6.671   3.628  15.521 -0.2674 -0.7201  0.4285
 7062TIP3    H142601   6.690   3.585  15.604 -0.9220  0.4483  1.1955
 7062TIP3    H242602   6.588   3.673  15.535  1.2391  2.3256  0.2859
 7063TIP3   OH242603   6.745   1.481   5.108  0.0219  0.3030 -0.3179
 7063TIP3    H142604   6.832   1.477   5.069 -0.0690  0.9945 -0.6179
 7063TIP3    H242605   6.736   1.572   5.137 -1.5235  0.9571 -2.5462
 7064TIP3   OH242606   3.915   1.631   2.200  0.0309  0.2533 -0.1451
 7064TIP3    H142607   3.988   1.676   2.157  0.3127 -0.1292 -0.0721
 7064TIP3    H242608   3.848   1.624   2.132  1.8794 -3.8280 -1.8726
 7065TIP3   OH242609   1.356   3.196  13.850  0.3606 -0.0526  0.7533
 7065TIP3    H142610   1.333   3.128  13.786  0.2190  0.2533  0.4775
 7065TIP3    H242611   1.337   3.278  13.806  1.1938  0.1937  0.8291
 7066TIP3   OH242612   2.904   1.866  16.665  0.2478  0.2765  0.6711
 7066TIP3    H142613   2.955   1.805  16.719 -1.3065 -0.1163  1.7869
 7066TIP3    H242614   2.874   1.813  16.591  0.7669  0.2858  0.4553
 7067TIP3   OH242615   3.382   0.568  14.307 -0.8497  0.1648 -0.1379
 7067TIP3    H142616   3.387   0.506  14.235 -0.9636 -0.8265  0.6856
 7067TIP3    H242617   3.429   0.526  14.379 -0.4804  1.2618  0.2819
 7068TIP3   OH242618   3.213   3.939   5.327 -0.0962 -0.3238 -0.0994
 7068TIP3    H142619   3.295   3.986   5.344 -0.1166 -1.1938  3.0201
 7068TIP3    H242620   3.145   3.992   5.369 -1.6118  1.3347 -4.1351
 7069TIP3   OH242621   6.017   6.315   0.004  0.0607 -0.7275  0.6545
 7069TIP3    H142622   5.964   6.272  -0.062  0.2324 -0.2636  0.2116
 7069TIP3    H242623   5.986   6.280   0.087 -0.3757 -1.0671  0.3457
 7070TIP3   OH242624   3.984   5.914   1.493 -0.0184 -0.5789 -0.0334
 7070TIP3    H142625   3.955   5.856   1.564  0.1348 -1.1188 -0.4088
 7070TIP3    H242626   4.078   5.922   1.507  0.4055 -2.4410 -1.4165
 7071TIP3   OH242627   4.364   5.849  17.040  0.4708 -0.5317  0.8258
 7071TIP3    H142628   4.373   5.939  17.069  0.7786 -0.1223 -0.4866
 7071TIP3    H242629   4.273   5.841  17.012  1.1771  0.3688 -2.0975
 7072TIP3   OH242630   1.883   0.068  14.862 -0.1862  0.1306 -0.4598
 7072TIP3    H142631   1.939   0.117  14.922  0.2488 -0.1497 -0.6255
 7072TIP3    H242632   1.882   0.122  14.782  1.4819 -0.7945 -1.1602
 7073TIP3   OH242633   4.538   3.437  11.754 -0.0339  0.5179 -0.0709
 7073TIP3    H142634   4.500   3.443  11.666  1.2434 -1.7359 -0.8558
 7073TIP3    H242635   4.471   3.393  11.806  0.3806 -0.9374 -0.7363
 7074TIP3   OH242636   6.658   2.303  16.358 -0.3539  0.3962  0.7791
 7074TIP3    H142637   6.568   2.283  16.382  0.2972 -0.9912  2.2714
 7074TIP3    H242638   6.702   2.218  16.357  0.9331  1.0448  0.0816
 7075TIP3   OH242639   4.970   1.433  10.546  0.4531 -0.1895 -0.1670
 7075TIP3    H142640   4.993   1.459  10.635  1.0599 -0.6369 -0.1927
 7075TIP3    H242641   4.955   1.516  10.501  0.6028  0.0574  0.2315
 7076TIP3   OH242642   6.432   6.148  13.072  0.6981 -0.8462  0.4019
 7076TIP3    H142643   6.500   6.174  13.134  1.0152 -0.8640  0.0658
 7076TIP3    H242644   6.350   6.164  13.118  0.8355  1.4248 -0.0273
 7077TIP3   OH242645   1.588   1.446   3.426 -0.2510  0.2453 -0.1679
 7077TIP3    H142646   1.595   1.390   3.349 -0.3247 -0.6973  0.4979
 7077TIP3    H242647   1.678   1.467   3.449 -0.2419  0.8593 -0.7365
 7078TIP3   OH242648   1.746   3.332   3.547 -0.4562  0.2578 -0.1356
 7078TIP3    H142649   1.773   3.423   3.561 -0.2836  0.3320 -0.8964
 7078TIP3    H242650   1.781   3.284   3.622  2.0460  0.2921 -1.1938
 7079TIP3   OH242651   0.220   3.668  11.512 -0.0623 -0.0519 -0.1069
 7079TIP3    H142652   0.295   3.623  11.551 -0.2098 -1.0020 -0.8738
 7079TIP3    H242653   0.151   3.659  11.577 -0.5788 -2.4092 -0.8528
 7080TIP3   OH242654   4.150   3.253   5.172  0.9922  0.6180  0.2793
 7080TIP3    H142655   4.097   3.275   5.096  1.4046  1.2211  0.1574
 7080TIP3    H242656   4.239   3.241   5.138  0.9914 -0.1351  0.5166
 7081TIP3   OH242657   3.998   3.644  12.565  0.1333 -0.1667 -0.4165
 7081TIP3    H142658   4.020   3.724  12.613  0.0494 -0.0982 -0.4906
 7081TIP3    H242659   4.048   3.575  12.609  0.4097 -0.0319 -0.5161
 7082TIP3   OH242660   6.514   0.698   2.657  0.6420  0.0463 -0.5069
 7082TIP3    H142661   6.489   0.790   2.661  2.2195  0.5595 -1.7030
 7082TIP3    H242662   6.446   0.656   2.604 -0.6928  0.2576  0.9653
 7083TIP3   OH242663   1.716   1.782   4.392 -0.1197  0.2986  0.0902
 7083TIP3    H142664   1.794   1.837   4.401  1.2547 -1.8190  2.1929
 7083TIP3    H242665   1.708   1.767   4.298  0.5627  2.4736 -0.3812
 7084TIP3   OH242666   3.046   3.467   2.723 -0.0135  0.2535 -0.7701
 7084TIP3    H142667   3.104   3.540   2.702 -0.2547  0.8469  0.5290
 7084TIP3    H242668   3.069   3.399   2.659  2.4393  0.2963 -0.0317
 7085TIP3   OH242669   5.942   3.922   3.704 -0.5678 -0.4658  0.1526
 7085TIP3    H142670   6.018   3.895   3.653 -0.9234 -0.1485 -0.5540
 7085TIP3    H242671   5.891   3.978   3.645 -1.0037 -0.1177  0.8380
 7086TIP3   OH242672   0.655   1.768  13.070 -0.1988  0.2909 -0.0767
 7086TIP3    H142673   0.677   1.805  13.155 -0.3233 -0.7775  0.4377
 7086TIP3    H242674   0.684   1.677  13.075 -2.3159 -0.4563 -0.3224
 7087TIP3   OH242675   5.687   6.712  13.303 -0.0278  0.8616 -0.0543
 7087TIP3    H142676   5.605   6.756  13.282  0.0261  0.7255 -0.5711
 7087TIP3    H242677   5.676   6.680  13.392  0.2503  2.6746  0.6770
 7088TIP3   OH242678   5.537   4.826  17.199  0.7777 -0.7018  0.0526
 7088TIP3    H142679   5.546   4.891  17.268 -1.5311  0.9095 -1.0107
 7088TIP3    H242680   5.479   4.867  17.135  0.1564 -3.3861 -1.2643
 7089TIP3   OH242681   4.020   1.875   1.119  0.1528 -0.4034 -0.0264
 7089TIP3    H142682   3.994   1.920   1.039  0.5750  0.9124  0.5436
 7089TIP3    H242683   3.991   1.784   1.107 -1.2333  0.1463 -0.9685
 7090TIP3   OH242684   3.273   2.677   2.986 -0.0828 -0.5443 -0.4539
 7090TIP3    H142685   3.295   2.738   3.057 -1.0761  0.8727 -1.3117
 7090TIP3    H242686   3.293   2.726   2.906  1.7072 -2.3602 -1.2191
 7091TIP3   OH242687   0.143   6.599  15.618  0.6209 -0.6180  0.3578
 7091TIP3    H142688   0.165   6.686  15.652  1.6165  0.5577 -2.8631
 7091TIP3    H242689   0.047   6.596  15.622  0.4938  1.0796 -0.3221
 7092TIP3   OH242690   1.796   3.592   5.867  0.4560  0.0420 -0.1080
 7092TIP3    H142691   1.885   3.616   5.843 -0.1186  1.0741 -1.3669
 7092TIP3    H242692   1.773   3.521   5.807 -0.0610  0.7792 -0.7947
 7093TIP3   OH242693   0.200   2.350   1.621  0.3723  0.1153 -0.6470
 7093TIP3    H142694   0.249   2.272   1.648  0.4841  0.3963 -0.0148
 7093TIP3    H242695   0.117   2.316   1.588  0.3480 -0.2600 -0.2038
 7094TIP3   OH242696   5.076   6.703   5.459  0.2475 -0.0864  0.0526
 7094TIP3    H142697   5.154   6.654   5.432  0.4501  1.5035 -2.5785
 7094TIP3    H242698   5.005   6.661   5.411 -0.0924  0.2328  0.2784
 7095TIP3   OH242699   6.393   2.525   3.354 -0.1430 -0.7092 -0.4766
 7095TIP3    H142700   6.376   2.433   3.373  0.4905 -0.5867  0.7564
 7095TIP3    H242701   6.396   2.567   3.439 -0.5188  0.4850 -1.0342
 7096TIP3   OH242702   5.805   6.620   5.790 -0.3329 -0.2877  0.3847
 7096TIP3    H142703   5.779   6.710   5.808 -1.3718 -0.0255 -1.9161
 7096TIP3    H242704   5.885   6.607   5.840  1.2350  2.7488 -1.0510
 7097TIP3   OH242705   4.038   0.292   5.692  0.2112 -0.0800  0.1544
 7097TIP3    H142706   4.116   0.307   5.745 -0.0673  3.3436 -0.1535
 7097TIP3    H242707   3.978   0.362   5.717 -1.0577 -0.0308 -2.6000
 7098TIP3   OH242708   4.188   0.544   4.484 -0.1057 -0.1372 -0.0882
 7098TIP3    H142709   4.152   0.605   4.420  0.4251 -0.8627 -1.1155
 7098TIP3    H242710   4.257   0.593   4.528 -0.2956  0.2897 -0.2616
 7099TIP3   OH242711   5.570   5.806  12.845  0.4222  0.3165 -0.0373
 7099TIP3    H142712   5.597   5.897  12.858  1.6816  0.0315 -0.4585
 7099TIP3    H242713   5.483   5.812  12.807  1.3362  1.4430 -2.1122
 7100TIP3   OH242714   3.303   1.987  13.222  1.0978  0.1069 -0.4003
 7100TIP3    H142715   3.324   2.027  13.138  1.0447  1.0018 -0.0040
 7100TIP3    H242716   3.301   2.061  13.284  1.3102 -0.5553  0.4150
 7101TIP3   OH242717   2.710   3.848   4.270  0.1585  0.3077 -0.4384
 7101TIP3    H142718   2.670   3.881   4.351  2.5695 -0.0243  0.9778
 7101TIP3    H242719   2.645   3.867   4.202 -1.9138  0.7202  1.5270
 7102TIP3   OH242720   1.423   3.264   0.100  0.1692  0.5285  0.1880
 7102TIP3    H142721   1.482   3.305   0.163  1.3812 -0.5322 -0.2296
 7102TIP3    H242722   1.434   3.170   0.115 -1.8924  0.2937  0.5240
 7103TIP3   OH242723   2.718   0.701  15.890  0.4074 -0.2668 -0.5336
 7103TIP3    H142724   2.754   0.683  15.977  0.6297 -1.2080 -0.8000
 7103TIP3    H242725   2.778   0.655  15.830 -0.2297 -0.3605 -1.1097
 7104TIP3   OH242726   3.769   0.088  11.583  0.1041  0.0426 -0.4691
 7104TIP3    H142727   3.710   0.155  11.617 -0.5678  0.0548 -1.6014
 7104TIP3    H242728   3.813   0.131  11.509  2.0722  0.2682  0.7630
 7105TIP3   OH242729   2.203   5.560   1.390  0.1130 -0.4321 -0.1367
 7105TIP3    H142730   2.172   5.626   1.452  1.6246  2.1037 -1.9459
 7105TIP3    H242731   2.149   5.483   1.409 -2.1888  1.4712  1.6314
 7106TIP3   OH242732   0.364   1.252  12.869 -0.1726 -0.5132  0.0327
 7106TIP3    H142733   0.445   1.303  12.880 -0.6043  0.2673 -0.3493
 7106TIP3    H242734   0.319   1.261  12.953 -1.0057  1.1121 -0.5322
 7107TIP3   OH242735   5.842   6.641  11.141  0.5844 -0.3348  0.2236
 7107TIP3    H142736   5.777   6.654  11.073  0.0073  2.0641  1.1434
 7107TIP3    H242737   5.817   6.559  11.183  1.0774 -1.9857 -2.4814
 7108TIP3   OH242738   6.095   2.403  16.476  0.1753  0.3778  0.4711
 7108TIP3    H142739   6.100   2.312  16.507  0.6228  0.4207  0.5369
 7108TIP3    H242740   6.011   2.435  16.508 -1.3536 -0.8940 -1.9994
 7109TIP3   OH242741   2.470   3.842  11.726  0.0372 -0.0205  0.2050
 7109TIP3    H142742   2.537   3.785  11.761 -0.4318 -0.6359  0.1263
 7109TIP3    H242743   2.398   3.837  11.789 -0.6955 -0.9050 -0.6576
 7110TIP3   OH242744   2.921   1.491   6.208  0.1168  0.3720 -0.1447
 7110TIP3    H142745   2.915   1.403   6.169 -1.0730  0.3138  0.1134
 7110TIP3    H242746   2.891   1.479   6.298 -2.2172  1.3760 -0.6985
 7111TIP3   OH242747   5.138   3.797   2.898  0.4008 -0.3557  0.0626
 7111TIP3    H142748   5.203   3.734   2.866  0.2661 -1.1310  1.2764
 7111TIP3    H242749   5.183   3.844   2.968 -0.6018 -1.5494  1.5725
 7112TIP3   OH242750   6.728   6.249  12.355  0.9140  0.4635  0.5803
 7112TIP3    H142751   6.805   6.253  12.299  1.6165  1.6337  1.5636
 7112TIP3    H242752   6.666   6.311  12.316  0.4189 -0.4956 -0.2242
 7113TIP3   OH242753   1.288   3.714  16.090  0.1829  0.0931 -0.4179
 7113TIP3    H142754   1.313   3.677  16.005 -1.7325  0.3756 -1.1484
 7113TIP3    H242755   1.210   3.767  16.071 -0.1998  0.2762  1.5024
 7114TIP3   OH242756   0.933   2.638  12.593  0.0303  0.7574  0.3413
 7114TIP3    H142757   0.895   2.578  12.528  1.5568  0.1770 -0.0406
 7114TIP3    H242758   0.945   2.720  12.545  2.2666 -0.0013 -0.5431
 7115TIP3   OH242759   1.859   3.923   4.459 -0.9103 -0.0188  0.2779
 7115TIP3    H142760   1.916   3.999   4.470 -0.9610 -0.1962  2.1467
 7115TIP3    H242761   1.833   3.925   4.367 -0.1617  1.6832  0.0732
 7116TIP3   OH242762   3.758   1.132  12.388  0.2781  0.1511 -0.0589
 7116TIP3    H142763   3.796   1.200  12.443 -0.5710  0.9204 -0.3874
 7116TIP3    H242764   3.799   1.051  12.417  2.0616  0.9180 -0.3377
 7117TIP3   OH242765   4.429   3.890   4.383  0.6603  0.2151  0.7047
 7117TIP3    H142766   4.357   3.830   4.403 -0.9335  1.3505 -1.2359
 7117TIP3    H242767   4.493   3.835   4.338 -0.5188 -0.2165 -0.5376
 7118TIP3   OH242768   4.061   3.560  13.839 -0.1520  0.0040 -0.7897
 7118TIP3    H142769   4.132   3.557  13.775 -0.2918  2.8450 -1.2474
 7118TIP3    H242770   3.981   3.565  13.786 -0.3905  0.6179 -0.3957
 7119TIP3   OH242771   1.623   6.545   6.082 -0.3704  0.1698  0.3055
 7119TIP3    H142772   1.683   6.513   6.149  1.1180  0.4057 -0.8487
 7119TIP3    H242773   1.536   6.534   6.120  0.4354  0.7905  2.4708
 7120TIP3   OH242774   3.522   2.902   0.554  0.0630  0.3329  0.0631
 7120TIP3    H142775   3.575   2.887   0.633  0.4492  0.9263 -0.0773
 7120TIP3    H242776   3.570   2.858   0.484 -1.5282 -2.3919  0.5254
 7121TIP3   OH242777   0.787   3.996  12.933 -0.7639  0.3981  0.3670
 7121TIP3    H142778   0.845   3.931  12.973 -1.7781 -1.4461 -1.0086
 7121TIP3    H242779   0.717   4.007  12.997 -1.5488 -1.3277 -0.1301
 7122TIP3   OH242780   6.497   5.115  10.562 -0.3546 -0.4075  0.0095
 7122TIP3    H142781   6.532   5.173  10.629 -1.2278  1.3003 -0.9522
 7122TIP3    H242782   6.573   5.090  10.509  0.0150 -0.0368  0.3654
 7123TIP3   OH242783   2.943   2.900   1.399 -0.6127  0.1073  0.2659
 7123TIP3    H142784   2.988   2.980   1.372 -1.4257  0.1874 -0.9643
 7123TIP3    H242785   2.913   2.917   1.488 -1.0415  1.3057 -0.0894
 7124TIP3   OH242786   2.149   1.752  10.697 -0.0733  0.6231 -0.1504
 7124TIP3    H142787   2.128   1.691  10.768 -0.5403  0.2381 -0.6103
 7124TIP3    H242788   2.068   1.759  10.646 -0.4636  2.7261  0.6695
 7125TIP3   OH242789   4.139   2.147  15.280 -0.0895  0.3846 -0.5041
 7125TIP3    H142790   4.224   2.121  15.316 -0.1986 -1.0936 -1.2180
 7125TIP3    H242791   4.115   2.226  15.328  1.2958  0.3423  0.3019
 7126TIP3   OH242792   1.463   2.849   1.715 -1.0512  0.5459 -0.2463
 7126TIP3    H142793   1.399   2.829   1.647 -1.6959  0.1743  0.4586
 7126TIP3    H242794   1.417   2.906   1.777 -0.3202  1.2940 -0.3651
 7127TIP3   OH242795   2.405   1.660  16.439 -0.2067 -0.0232  0.3669
 7127TIP3    H142796   2.345   1.715  16.389 -1.0437  0.0009  1.3810
 7127TIP3    H242797   2.491   1.701  16.426 -0.8367  1.6334  1.2411
 7128TIP3   OH242798   6.499   0.808   4.398  0.1098 -0.3007  0.8181
 7128TIP3    H142799   6.523   0.802   4.490  1.9091  0.6833  0.4554
 7128TIP3    H242800   6.506   0.901   4.377 -0.3854 -0.4947 -0.2956
 7129TIP3   OH242801   2.119   4.642   4.489 -0.2140 -0.0961  0.8030
 7129TIP3    H142802   2.203   4.659   4.531  0.7753 -1.6995 -0.4203
 7129TIP3    H242803   2.120   4.697   4.410 -0.3459 -0.0696  0.8195
 7130TIP3   OH242804   0.896   3.209   2.254 -0.0978 -0.3236 -0.2522
 7130TIP3    H142805   0.979   3.192   2.298  0.5454 -0.8277 -1.5876
 7130TIP3    H242806   0.836   3.144   2.290  0.2543 -0.3577  0.2835
 7131TIP3   OH242807   1.428   5.516   3.794  0.5684 -0.0519  0.2083
 7131TIP3    H142808   1.420   5.610   3.810  0.3589 -0.2085  1.0804
 7131TIP3    H242809   1.338   5.483   3.797  0.4424 -0.0144 -1.9475
 7132TIP3   OH242810   1.118   5.725   3.926 -0.6838 -0.7469 -0.3533
 7132TIP3    H142811   1.104   5.812   3.890  0.5365 -1.2671 -2.2284
 7132TIP3    H242812   1.032   5.698   3.959 -0.7606  1.7746  1.8775
 7133TIP3   OH242813   0.529   5.156  13.077  0.3270 -0.9171  0.4896
 7133TIP3    H142814   0.616   5.136  13.042  0.0164 -1.2240 -0.1133
 7133TIP3    H242815   0.468   5.119  13.013 -0.2568 -2.3032  1.7826
 7134TIP3   OH242816   3.446   0.387  12.353 -0.5865  0.5106 -0.8701
 7134TIP3    H142817   3.460   0.343  12.437 -0.3101 -1.7031 -2.0050
 7134TIP3    H242818   3.351   0.388  12.342 -0.6257  0.8662 -0.5085
 7135TIP3   OH242819   4.462   5.454   4.566  0.4113  0.3297  0.1455
 7135TIP3    H142820   4.519   5.442   4.490  1.4259  0.4022  0.8825
 7135TIP3    H242821   4.476   5.376   4.620 -0.5031  0.1489  0.1424
 7136TIP3   OH242822   0.510   4.304  15.607  0.0296 -0.0154  0.0991
 7136TIP3    H142823   0.534   4.277  15.696  1.2996  0.6281 -0.0260
 7136TIP3    H242824   0.509   4.400  15.611  1.1224  0.0527 -0.8154
 7137TIP3   OH242825   5.810   3.203   1.116 -0.2204  0.6051  0.0026
 7137TIP3    H142826   5.757   3.282   1.111 -1.4505 -0.2281 -0.8063
 7137TIP3    H242827   5.899   3.234   1.128 -0.9433  2.0478  2.2211
 7138TIP3   OH242828   2.318   5.933  14.417  0.7153 -0.6320 -0.2909
 7138TIP3    H142829   2.397   5.901  14.461  1.5592  1.0194 -0.5093
 7138TIP3    H242830   2.252   5.936  14.487  1.0772 -1.2363  0.0869
 7139TIP3   OH242831   4.089   3.439   6.045  0.2021 -0.1377 -0.3595
 7139TIP3    H142832   4.088   3.348   6.017  0.5918  1.3420 -6.8012
 7139TIP3    H242833   4.183   3.461   6.050  0.1065  0.0965  0.6455
 7140TIP3   OH242834   4.278   0.689  15.027 -0.1836  0.2143  0.1976
 7140TIP3    H142835   4.203   0.675  14.969  0.3511 -2.2434 -0.0151
 7140TIP3    H242836   4.269   0.620  15.093  2.5794 -1.0634 -0.6259
 7141TIP3   OH242837   0.769   5.277   3.990 -0.1881  0.5029  0.1612
 7141TIP3    H142838   0.797   5.274   4.081 -0.8014  0.9691  0.3692
 7141TIP3    H242839   0.766   5.370   3.968  0.5842  0.3834 -0.5419
 7142TIP3   OH242840   3.981   5.351  15.381  0.2043 -0.1681 -0.2771
 7142TIP3    H142841   3.917   5.422  15.374 -1.3659 -1.4497  0.3130
 7142TIP3    H242842   3.965   5.314  15.468 -0.3681 -2.4194 -1.2551
 7143TIP3   OH242843   0.705   5.436   2.462  0.0057 -0.5864  0.5560
 7143TIP3    H142844   0.649   5.499   2.508 -2.0125 -0.4923 -1.8113
 7143TIP3    H242845   0.661   5.352   2.472  1.6221 -1.3291  1.9799
 7144TIP3   OH242846   2.556   4.527   1.003 -0.2238 -0.1612  0.1705
 7144TIP3    H142847   2.651   4.513   1.005  0.0525  1.4296  2.0201
 7144TIP3    H242848   2.534   4.548   1.094 -2.7064 -2.4171  0.2037
 7145TIP3   OH242849   5.175   0.495  12.346 -0.0338 -0.6880  0.4915
 7145TIP3    H142850   5.143   0.446  12.270  0.6288  0.0669 -0.2901
 7145TIP3    H242851   5.249   0.443  12.378 -0.2094 -0.9211  0.5230
 7146TIP3   OH242852   5.592   4.183   1.656 -0.3626  0.3483  0.2051
 7146TIP3    H142853   5.604   4.140   1.571  0.5068  0.2206  0.3794
 7146TIP3    H242854   5.606   4.276   1.638 -0.0931  0.3119  0.2183
 7147TIP3   OH242855   4.005   1.919   2.188 -0.2627 -0.2452  0.7542
 7147TIP3    H142856   3.953   1.962   2.120 -0.7421  0.6278  1.6481
 7147TIP3    H242857   4.096   1.935   2.162 -0.4354 -0.2999  0.0934
 7148TIP3   OH242858   3.403   6.747   0.819 -0.1635  0.1505  0.5504
 7148TIP3    H142859   3.319   6.728   0.860 -1.1567  0.9092 -1.0398
 7148TIP3    H242860   3.409   6.684   0.747  0.2171  0.6706  0.1245
 7149TIP3   OH242861   2.376   0.144  14.519  0.0717  0.0450  0.3038
 7149TIP3    H142862   2.313   0.215  14.531  0.8652  0.4950  2.1317
 7149TIP3    H242863   2.344   0.097  14.443 -1.2855  1.5083 -0.0891
 7150TIP3   OH242864   5.155   0.677   3.093 -0.0508 -0.2924  0.6657
 7150TIP3    H142865   5.075   0.627   3.108  0.3883 -1.8667 -1.8835
 7150TIP3    H242866   5.224   0.612   3.088  0.6838  0.5706 -1.7785
 7151TIP3   OH242867   3.517   2.810   3.669  0.0280  0.1429 -0.1420
 7151TIP3    H142868   3.568   2.832   3.591  2.2003 -0.9754  0.8812
 7151TIP3    H242869   3.459   2.885   3.681  0.3272  0.7957 -2.2339
 7152TIP3   OH242870   1.169   6.384   2.051  0.0934 -0.6326 -0.0433
 7152TIP3    H142871   1.217   6.467   2.048  0.3386 -0.7770 -0.1588
 7152TIP3    H242872   1.116   6.390   2.130 -0.4482 -0.0596 -0.4470
 7153TIP3   OH242873   6.550   4.482  17.248  0.4779  0.5429 -0.1614
 7153TIP3    H142874   6.631   4.528  17.227  0.3644  0.8705  0.0899
 7153TIP3    H242875   6.481   4.538  17.212  0.3371  0.5819  0.1602
 7154TIP3   OH242876   1.100   5.486  15.000  0.6264  0.0892  0.3116
 7154TIP3    H142877   1.079   5.449  14.914 -0.9540 -0.6472  0.9739
 7154TIP3    H242878   1.194   5.502  14.996  0.2187  2.6649 -2.5197
 7155TIP3   OH242879   0.563   3.855  15.658  0.4911  0.4980 -0.0906
 7155TIP3    H142880   0.507   3.839  15.582  0.2773  1.1104 -0.0668
 7155TIP3    H242881   0.503   3.882  15.727  0.6383 -0.4481  0.4254
 7156TIP3   OH242882   6.376   0.349  13.345 -0.4946 -0.4058  0.5959
 7156TIP3    H142883   6.404   0.437  13.320 -1.9586 -0.0241  0.1911
 7156TIP3    H242884   6.443   0.291  13.309 -0.4329  0.4249 -0.6828
 7157TIP3   OH242885   3.036   0.196  15.688  0.2152 -0.5608  0.4290
 7157TIP3    H142886   3.008   0.109  15.661 -1.0233  0.1539 -0.7056
 7157TIP3    H242887   2.999   0.255  15.622  1.2615  0.8062  1.0086
 7158TIP3   OH242888   4.096   0.425  15.613  0.2280  0.3111 -0.3863
 7158TIP3    H142889   4.022   0.458  15.564  0.2741 -0.8825 -1.2982
 7158TIP3    H242890   4.139   0.503  15.648 -0.0273  1.1686 -1.9272
 7159TIP3   OH242891   6.295   0.316   3.064 -0.0505  0.6373 -0.1693
 7159TIP3    H142892   6.285   0.226   3.034 -3.2927  0.6685  0.3977
 7159TIP3    H242893   6.293   0.369   2.984  0.9398  0.2709 -0.4426
 7160TIP3   OH242894   0.122   1.090  16.473 -0.6447  0.4543 -0.4995
 7160TIP3    H142895   0.090   1.002  16.495  0.7585  0.0487  0.0767
 7160TIP3    H242896   0.165   1.120  16.553 -1.4726  1.8687 -0.5533
 7161TIP3   OH242897   2.684   0.365  14.184  0.3369  0.3705  0.1037
 7161TIP3    H142898   2.688   0.270  14.193 -1.1324 -0.4522 -4.6907
 7161TIP3    H242899   2.590   0.386  14.187  0.2483  0.8808 -2.7667
 7162TIP3   OH242900   3.727   0.757   1.679 -0.2474 -0.4438  0.2463
 7162TIP3    H142901   3.662   0.764   1.748  0.4489  1.3328  0.7664
 7162TIP3    H242902   3.697   0.818   1.611 -0.1778 -1.1085 -0.3907
 7163TIP3   OH242903   4.594   2.186   2.133 -0.5899 -0.4004 -0.0284
 7163TIP3    H142904   4.593   2.165   2.040 -2.4721  0.4377 -0.2464
 7163TIP3    H242905   4.617   2.104   2.176  1.2665 -0.5876 -1.2315
 7164TIP3   OH242906   4.359   1.246   3.774  0.1042 -0.2288 -0.6913
 7164TIP3    H142907   4.276   1.276   3.739 -1.6844 -2.6448  1.0937
 7164TIP3    H242908   4.344   1.154   3.796  2.3825 -0.0627  2.2060
 7165TIP3   OH242909   2.140   4.120  16.540  0.0968  0.2043  0.0782
 7165TIP3    H142910   2.170   4.178  16.470  0.0425  1.0173  0.7137
 7165TIP3    H242911   2.056   4.086  16.508 -0.0878  0.8261 -0.1195
 7166TIP3   OH242912   4.108   5.930   1.022  0.3394  0.4031  0.8445
 7166TIP3    H142913   4.131   6.008   0.972 -2.3929  1.5551  1.2075
 7166TIP3    H242914   4.059   5.963   1.097 -1.4709 -1.6743  0.6856
 7167TIP3   OH242915   1.750   2.796  14.297  0.3223 -0.3674 -0.3113
 7167TIP3    H142916   1.789   2.844  14.225 -0.5083  1.0452  0.1556
 7167TIP3    H242917   1.798   2.827  14.375 -0.1797 -0.3302 -0.0137
 7168TIP3   OH242918   6.109   5.239   5.493 -0.2062 -0.6329  0.3102
 7168TIP3    H142919   6.154   5.291   5.560 -2.8002  1.0887  0.8702
 7168TIP3    H242920   6.165   5.245   5.416  0.9562  0.6273  1.1977
 7169TIP3   OH242921   2.636   2.363   0.034  0.5689 -0.2558  0.4622
 7169TIP3    H142922   2.554   2.377   0.082  0.0475  0.7254 -0.6644
 7169TIP3    H242923   2.704   2.383   0.098 -0.0993  0.7019  0.8985
 7170TIP3   OH242924   5.324   3.263  12.187 -0.4685  0.4202 -0.0541
 7170TIP3    H142925   5.351   3.181  12.228  0.1430  1.1114  0.9572
 7170TIP3    H242926   5.231   3.271  12.210 -0.1845  0.7022  1.0591
 7171TIP3   OH242927   5.735   2.254  12.019 -0.5297 -0.5255 -0.4274
 7171TIP3    H142928   5.820   2.229  11.984 -1.0214 -1.5923 -0.8931
 7171TIP3    H242929   5.702   2.175  12.062 -0.7759  0.2103  0.7984
 7172TIP3   OH242930   3.889   4.247   0.954  0.0431 -0.1331  0.5715
 7172TIP3    H142931   3.851   4.308   0.891  1.1302 -1.2246 -1.2578
 7172TIP3    H242932   3.973   4.285   0.978  0.2114 -0.3401  0.3209
 7173TIP3   OH242933   6.331   5.759   2.365 -0.7227 -0.2030  0.4442
 7173TIP3    H142934   6.247   5.769   2.321 -0.8833 -1.7262  0.3593
 7173TIP3    H242935   6.378   5.840   2.345 -0.8319 -0.7453 -2.4333
 7174TIP3   OH242936   1.948   1.811  12.340  0.3240  0.2151 -0.0484
 7174TIP3    H142937   1.856   1.817  12.313  0.3383  0.2121 -0.0983
 7174TIP3    H242938   1.987   1.749  12.279  0.4915  0.6557 -0.3959
 7175TIP3   OH242939   1.462   0.767   2.677 -0.5881  0.0273  0.3659
 7175TIP3    H142940   1.466   0.678   2.712  0.7741 -0.5470 -1.0941
 7175TIP3    H242941   1.390   0.765   2.613  0.5594 -0.5799 -0.9597
 7176TIP3   OH242942   2.774   1.226  15.312  0.0338 -0.4596 -0.2854
 7176TIP3    H142943   2.865   1.242  15.339 -0.2907  0.5940  0.2425
 7176TIP3    H242944   2.759   1.290  15.243 -0.4149 -0.3908 -0.1231
 7177TIP3   OH242945   2.244   1.558  17.348 -0.1825  0.5868 -0.3515
 7177TIP3    H142946   2.214   1.633  17.297 -0.6885  0.2353 -0.5784
 7177TIP3    H242947   2.167   1.530  17.397  0.3349  1.0035  0.7238
 7178TIP3   OH242948   6.268   0.447   1.307  0.3812  0.2864 -0.9111
 7178TIP3    H142949   6.284   0.356   1.331  2.9095  1.1207  0.9186
 7178TIP3    H242950   6.173   0.452   1.296 -0.2281 -1.9334  1.9772
 7179TIP3   OH242951   1.220   6.387  11.101 -0.1337 -0.2113 -0.7050
 7179TIP3    H142952   1.166   6.331  11.045 -1.2507  0.7010 -0.5734
 7179TIP3    H242953   1.293   6.331  11.128 -1.5844 -1.8360 -0.0022
 7180TIP3   OH242954   5.683   5.989  14.569 -0.1083 -0.3449  0.1129
 7180TIP3    H142955   5.609   6.015  14.515 -1.0323  1.5460  2.1148
 7180TIP3    H242956   5.706   5.901  14.538 -2.2865 -0.4385 -1.4765
 7181TIP3   OH242957   6.463   6.385  17.160  0.1301  0.0779 -0.2721
 7181TIP3    H142958   6.475   6.304  17.111  2.3005  0.6592 -0.7955
 7181TIP3    H242959   6.386   6.369  17.214 -1.4114 -1.1824 -2.6423
 7182TIP3   OH242960   5.735   4.778  16.680  0.5012  0.1994  0.5364
 7182TIP3    H142961   5.805   4.715  16.664  0.6538  0.3909  0.4357
 7182TIP3    H242962   5.657   4.737  16.644  0.8910  0.7422 -1.0131
 7183TIP3   OH242963   4.123   2.295   0.539 -0.1249 -0.2408  0.5971
 7183TIP3    H142964   4.160   2.321   0.624 -1.3378  0.6227  0.8907
 7183TIP3    H242965   4.138   2.201   0.535  2.2369  0.0663  0.5948
 7184TIP3   OH242966   2.580   6.047   0.508  0.0275  0.1592 -0.0933
 7184TIP3    H142967   2.510   6.009   0.561 -1.4462  0.0852 -2.0264
 7184TIP3    H242968   2.535   6.105   0.447  1.8560  1.7046 -0.0602
 7185TIP3   OH242969   5.157   6.211  14.413 -0.0922  0.4365  0.1304
 7185TIP3    H142970   5.134   6.237  14.502  0.7929 -0.1870  0.5564
 7185TIP3    H242971   5.116   6.125  14.402  2.5200 -1.0699  1.1903
 7186TIP3   OH242972   1.889   5.590  11.846  0.2311  0.1273 -0.2138
 7186TIP3    H142973   1.968   5.544  11.817  0.7166 -0.1665  1.4341
 7186TIP3    H242974   1.861   5.543  11.924 -1.8558 -0.0201 -0.9854
 7187TIP3   OH242975   4.232   0.159   0.337  0.4456 -0.3139  0.4502
 7187TIP3    H142976   4.205   0.078   0.380 -1.9014  0.4031  0.4384
 7187TIP3    H242977   4.312   0.185   0.383  0.8026 -2.1923  0.9760
 7188TIP3   OH242978   2.369   0.559   1.905  0.2915 -0.0578  0.0695
 7188TIP3    H142979   2.323   0.525   1.982  0.2167 -0.4057 -0.1255
 7188TIP3    H242980   2.330   0.511   1.831 -0.6083  1.2487 -0.3437
 7189TIP3   OH242981   1.709   0.357  11.551 -0.1523  0.2624 -0.1488
 7189TIP3    H142982   1.708   0.261  11.558  1.6697  0.2866  1.2408
 7189TIP3    H242983   1.749   0.374  11.466  0.9539 -0.2409  0.2497
 7190TIP3   OH242984   0.770   4.452   1.227 -0.1771 -0.6180 -0.1831
 7190TIP3    H142985   0.751   4.384   1.162  0.6830 -0.9328 -0.1132
 7190TIP3    H242986   0.862   4.473   1.214  0.1729 -1.0960  1.2987
 7191TIP3   OH242987   1.045   1.690  15.868  0.0069  0.0511 -0.6000
 7191TIP3    H142988   1.130   1.733  15.876 -0.8229  1.4600  2.1362
 7191TIP3    H242989   1.041   1.632  15.944 -1.3763 -0.1564 -0.8122
 7192TIP3   OH242990   2.128   2.473   2.668  0.6121  0.0763  0.1178
 7192TIP3    H142991   2.048   2.429   2.698  0.3122  0.5215 -0.0140
 7192TIP3    H242992   2.154   2.528   2.741 -1.3149  2.8131 -1.0778
 7193TIP3   OH242993   1.071   5.457  15.972 -0.4351 -0.7843  0.3541
 7193TIP3    H142994   1.084   5.497  16.058 -0.0581 -3.0119  1.4317
 7193TIP3    H242995   0.979   5.431  15.971 -0.6179 -0.1370 -0.2269
 7194TIP3   OH242996   3.745   4.771   0.374  0.3811  0.2787 -0.2489
 7194TIP3    H142997   3.661   4.742   0.339  0.4466  0.9790 -1.0005
 7194TIP3    H242998   3.803   4.695   0.363 -0.9255 -1.4464  3.3202
 7195TIP3   OH242999   0.574   3.742   2.315 -0.0635 -0.4423 -0.0949
 7195TIP3    H143000   0.659   3.715   2.350  0.4933  0.9719 -0.2799
 7195TIP3    H243001   0.518   3.750   2.393 -0.0928 -1.5190  0.0131
 7196TIP3   OH243002   4.408   5.762  16.097  0.9387  0.5581  0.0930
 7196TIP3    H143003   4.346   5.755  16.170  0.3360  1.2229 -0.3435
 7196TIP3    H243004   4.450   5.676  16.093 -2.1283 -1.0038 -1.5442
 7197TIP3   OH243005   0.942   6.698   4.904 -0.0211  0.2639 -0.0711
 7197TIP3    H143006   0.905   6.685   4.991 -1.9766 -1.8582 -1.1088
 7197TIP3    H243007   1.015   6.637   4.899  0.1321  0.4326  0.0864
 7198TIP3   OH243008   1.912   4.530   1.000 -0.1615  0.1377 -0.1315
 7198TIP3    H143009   1.837   4.535   1.060 -0.9790  0.5280 -1.1710
 7198TIP3    H243010   1.903   4.444   0.959  0.5466 -0.2377  0.4713
 7199TIP3   OH243011   3.484   1.489   3.401 -0.8788 -0.2419  0.3793
 7199TIP3    H143012   3.528   1.542   3.467 -4.1232  0.7303  1.9295
 7199TIP3    H243013   3.460   1.409   3.447  1.3704 -1.9496 -1.1641
 7200TIP3   OH243014   4.599   6.142   5.156  0.1858  0.2379  0.3505
 7200TIP3    H143015   4.681   6.189   5.173  1.1703 -1.0715 -0.5509
 7200TIP3    H243016   4.588   6.085   5.232  0.0478  0.4980  0.5259
 7201TIP3   OH243017   2.791   5.574  11.704  0.1589 -0.4641 -0.1166
 7201TIP3    H143018   2.827   5.656  11.670 -0.7001  0.6071  1.4211
 7201TIP3    H243019   2.792   5.514  11.630 -1.7506  1.7676 -2.1077
 7202TIP3   OH243020   5.675   4.466   0.886 -0.3167 -0.6669  0.2225
 7202TIP3    H143021   5.733   4.513   0.946 -0.6472 -1.2830  1.0660
 7202TIP3    H243022   5.734   4.419   0.827  0.0559 -1.1272  0.9404
 7203TIP3   OH243023   2.798   5.940  17.047  0.6555  0.4279 -0.2908
 7203TIP3    H143024   2.849   5.970  17.122  1.0003 -0.7071 -0.0422
 7203TIP3    H243025   2.774   6.019  17.000  1.6558  1.0576  0.2378
 7204TIP3   OH243026   5.916   1.062  15.417  0.1282  0.3720 -0.0922
 7204TIP3    H143027   5.991   1.121  15.425 -0.0826  1.2844 -3.2175
 7204TIP3    H243028   5.950   0.987  15.369 -0.8620  0.7494 -1.4536
 7205TIP3   OH243029   3.524   2.797   2.051 -0.1713  0.7683 -0.5566
 7205TIP3    H143030   3.616   2.825   2.053  0.0894 -0.1285  1.0550
 7205TIP3    H243031   3.518   2.741   1.973  1.0156 -0.2938  0.0775
 7206TIP3   OH243032   3.022   1.828   6.025 -0.3808 -0.3167 -0.3239
 7206TIP3    H143033   2.963   1.836   6.101  0.4444  0.4071  0.2724
 7206TIP3    H243034   2.975   1.872   5.954 -1.7465 -2.1519 -0.6193
 7207TIP3   OH243035   0.139   1.237   4.367  0.1543 -0.2807 -0.6922
 7207TIP3    H143036   0.227   1.200   4.359  0.6314  1.1180 -2.8377
 7207TIP3    H243037   0.081   1.161   4.367  1.3058 -1.2122  0.4060
 7208TIP3   OH243038   2.215   2.169  15.080  0.3780  0.1823 -0.3982
 7208TIP3    H143039   2.280   2.140  15.016  0.8875  1.1377 -0.3229
 7208TIP3    H243040   2.234   2.118  15.159 -1.3377 -2.2882 -1.4651
 7209TIP3   OH243041   5.893   5.975  15.641  0.6714 -0.1540 -0.5415
 7209TIP3    H143042   5.803   6.006  15.631  0.3707 -0.3747  1.1602
 7209TIP3    H243043   5.935   6.041  15.696  0.7644 -1.3747  0.9242
 7210TIP3   OH243044   6.161   5.541   4.395  0.1768  0.2645 -0.1311
 7210TIP3    H143045   6.118   5.508   4.316 -3.5351  1.6414  1.1187
 7210TIP3    H243046   6.178   5.463   4.448 -0.5487 -0.3754 -0.8263
 7211TIP3   OH243047   6.617   2.066   2.866 -0.0012 -0.5657  0.7004
 7211TIP3    H143048   6.599   2.112   2.784 -0.7994 -0.4368  0.9432
 7211TIP3    H243049   6.660   1.985   2.839  0.0359 -0.3776  0.1778
 7212TIP3   OH243050   4.260   6.293   0.631  0.3232  0.2929  0.2820
 7212TIP3    H143051   4.240   6.376   0.675  0.7618  0.3977  0.2895
 7212TIP3    H243052   4.341   6.263   0.672  0.3696  0.0498  0.0167
 7213TIP3   OH243053   5.976   4.441   2.377 -0.0421  0.0918  0.3369
 7213TIP3    H143054   6.022   4.365   2.342 -0.1218 -0.6669  1.8021
 7213TIP3    H243055   6.041   4.511   2.377 -0.5930  0.7746 -3.2411
 7214TIP3   OH243056   3.478   1.447   0.365  0.3415 -0.8003  0.0435
 7214TIP3    H143057   3.401   1.440   0.309 -0.0432 -1.1780  0.6114
 7214TIP3    H243058   3.471   1.373   0.425  0.7172 -0.3725  0.6255
 7215TIP3   OH243059   2.381   0.346   4.089  0.7273  0.3545 -0.0901
 7215TIP3    H143060   2.362   0.262   4.047 -0.7386  1.1264 -1.0326
 7215TIP3    H243061   2.451   0.385   4.036  0.7452  0.1544 -0.2141
 7216TIP3   OH243062   1.204   6.670   3.736 -0.1320 -0.2937  0.2664
 7216TIP3    H143063   1.238   6.622   3.811 -0.6549 -0.7201  0.2321
 7216TIP3    H243064   1.146   6.608   3.691 -0.2650  0.1385 -0.1723
 7217TIP3   OH243065   0.202   0.480   6.028 -0.0784 -0.1368 -0.4206
 7217TIP3    H143066   0.169   0.445   6.110 -1.9753 -0.4325 -1.2370
 7217TIP3    H243067   0.160   0.566   6.020 -1.0378 -0.6869 -1.6883
 7218TIP3   OH243068   1.065   3.080   0.986 -0.5497 -0.0484 -0.1615
 7218TIP3    H143069   0.986   3.031   0.959  0.8150 -1.8505 -1.1059
 7218TIP3    H243070   1.078   3.144   0.917  0.5259 -1.8471 -1.7297
 7219TIP3   OH243071   3.346   5.877  11.161  0.2491  0.3900  0.1893
 7219TIP3    H143072   3.344   5.782  11.174 -1.7113  0.1227 -1.4522
 7219TIP3    H243073   3.289   5.892  11.086  0.4279  2.8987  0.4546
 7220TIP3   OH243074   3.450   5.578  12.808  0.1555  0.2095  0.1264
 7220TIP3    H143075   3.517   5.617  12.753 -1.1536  1.4309 -0.6700
 7220TIP3    H243076   3.420   5.502  12.757  1.1541 -0.5610  0.6543
 7221TIP3   OH243077   0.200   0.123   4.028 -0.6970  0.6025  0.4597
 7221TIP3    H143078   0.213   0.144   4.121 -0.6650  1.3906  0.2814
 7221TIP3    H243079   0.153   0.198   3.993 -0.4007  0.4604 -0.2446
 7222TIP3   OH243080   0.493   1.426   4.805  0.7962 -0.2131 -0.7974
 7222TIP3    H143081   0.472   1.333   4.802  1.4333 -0.3477 -1.1769
 7222TIP3    H243082   0.430   1.467   4.746 -0.5952 -0.1648  0.6359
 7223TIP3   OH243083   1.444   1.857  14.612  0.1871  0.5995 -0.1310
 7223TIP3    H143084   1.413   1.906  14.535  1.1051 -0.2538 -1.0834
 7223TIP3    H243085   1.444   1.921  14.682 -0.3444  1.5017 -0.9212
 7224TIP3   OH243086   1.439   3.059   5.624 -0.0460 -0.0934  0.2892
 7224TIP3    H143087   1.464   3.141   5.666 -1.3556  1.0772 -1.1024
 7224TIP3    H243088   1.495   3.053   5.546  0.2307 -0.6802  0.5217
 7225TIP3   OH243089   5.345   1.132   6.589 -1.2479 -0.1579 -0.7126
 7225TIP3    H143090   5.340   1.063   6.522 -0.4312  0.0140 -0.9634
 7225TIP3    H243091   5.357   1.213   6.540  1.1034 -0.2135 -0.3552
 7226TIP3   OH243092   1.635   2.186  16.453 -0.3375  0.7205 -0.0154
 7226TIP3    H143093   1.566   2.154  16.511 -1.8802  1.4800 -1.3453
 7226TIP3    H243094   1.701   2.117  16.454 -0.0121  0.9420  3.0194
 7227TIP3   OH243095   2.993   1.694  13.449  0.9841 -0.4015  0.2641
 7227TIP3    H143096   2.960   1.607  13.475  2.1105 -1.5508 -1.8921
 7227TIP3    H243097   3.087   1.683  13.442  1.5635  1.8934  2.8829
 7228TIP3   OH243098   0.887   0.727   6.032 -0.3114  0.4683  0.1197
 7228TIP3    H143099   0.902   0.791   5.963 -0.5581  1.1419  0.6832
 7228TIP3    H243100   0.928   0.647   6.000 -0.8368  0.6400 -1.0174
 7229TIP3   OH243101   2.567   5.348  17.247  0.0533  0.3587  0.2857
 7229TIP3    H143102   2.492   5.295  17.222  0.0143  0.2234  0.6786
 7229TIP3    H243103   2.588   5.399  17.169 -0.9991  1.0559  0.4288
 7230TIP3   OH243104   0.017   0.277  12.441 -0.5592 -0.2365 -0.6529
 7230TIP3    H143105   0.072   0.299  12.516  0.7686  1.8075 -2.1286
 7230TIP3    H243106   0.063   0.206  12.397 -0.1054  0.1584 -0.8174
 7231TIP3   OH243107   0.938   4.735  17.181 -0.0161 -0.1516  0.5598
 7231TIP3    H143108   1.001   4.672  17.146  0.8235  0.1484  1.4734
 7231TIP3    H243109   0.983   4.819  17.176  0.0398 -0.0628  2.0707
 7232TIP3   OH243110   5.168   6.011  13.569  0.0585 -0.1821  0.8116
 7232TIP3    H143111   5.247   6.001  13.516  0.1863 -1.6585  1.2353
 7232TIP3    H243112   5.117   6.079  13.524  0.3770 -1.0612 -0.9504
 7233TIP3   OH243113   5.538   0.964  14.638 -0.1548 -0.1171 -0.0095
 7233TIP3    H143114   5.524   0.924  14.552 -0.4916 -1.0827  0.4720
 7233TIP3    H243115   5.558   1.055  14.620  1.1081 -0.6046 -1.1793
 7234TIP3   OH243116   5.791   5.935  13.692  0.1744 -0.3120  0.2018
 7234TIP3    H143117   5.743   5.874  13.637  0.2498 -0.5028  0.3437
 7234TIP3    H243118   5.833   5.996  13.631 -0.7302  0.2242  0.1025
 7235TIP3   OH243119   2.145   5.284  15.790 -0.1520 -0.2422 -0.1908
 7235TIP3    H143120   2.214   5.314  15.731 -1.4941  1.4602 -0.9866
 7235TIP3    H243121   2.174   5.311  15.877  1.8334 -2.7481  0.0405
 7236TIP3   OH243122   4.073   0.956  13.616 -0.1713  0.0043 -0.0922
 7236TIP3    H143123   3.979   0.947  13.601 -0.3977  1.1070  0.5562
 7236TIP3    H243124   4.081   0.984  13.708  0.7851 -0.1423 -0.1156
 7237TIP3   OH243125   3.035   4.672   1.197  0.3533  0.4403 -0.3418
 7237TIP3    H143126   3.067   4.744   1.143 -1.7196 -0.1163 -2.5018
 7237TIP3    H243127   2.967   4.712   1.252  1.5893  0.7440  1.0520
 7238TIP3   OH243128   1.084   3.407  13.363 -0.4851 -0.5468  0.2948
 7238TIP3    H143129   1.023   3.436  13.295  2.0421  1.7762 -1.1692
 7238TIP3    H243130   1.101   3.485  13.415 -0.6968 -1.7840  2.3506
 7239TIP3   OH243131   5.885   1.039  11.828 -0.1508  0.2806 -0.1495
 7239TIP3    H143132   5.892   1.037  11.732  0.5057 -0.6990 -0.0968
 7239TIP3    H243133   5.881   0.946  11.853  3.2095  0.3029  0.9861
 7240TIP3   OH243134   0.519   4.516  11.658 -0.3851  0.5000 -0.1635
 7240TIP3    H143135   0.431   4.488  11.682 -0.3504 -1.0289 -1.6622
 7240TIP3    H243136   0.510   4.610  11.641 -2.1285  0.0721 -1.9523
 7241TIP3   OH243137   0.774   3.480  12.099  0.1073  0.4570 -0.4377
 7241TIP3    H143138   0.782   3.500  12.006  0.1915 -0.3096 -0.6059
 7241TIP3    H243139   0.864   3.460  12.127  0.4684  2.8097  0.3440
 7242TIP3   OH243140   0.553   2.781   3.420 -0.0456  0.4609 -0.0511
 7242TIP3    H143141   0.463   2.804   3.443 -0.4898 -0.9553 -0.2971
 7242TIP3    H243142   0.570   2.699   3.465  1.0527  0.5980 -0.1842
 7243TIP3   OH243143   4.140   5.153   3.765 -0.1564  0.2960  0.0658
 7243TIP3    H143144   4.182   5.142   3.679  0.3349  1.1311  0.1894
 7243TIP3    H243145   4.056   5.108   3.757 -0.5453  1.1907 -1.1809
 7244TIP3   OH243146   4.709   6.407  16.529  0.5721 -0.3084  0.2025
 7244TIP3    H143147   4.696   6.340  16.597  0.7359 -1.6526 -1.0403
 7244TIP3    H243148   4.625   6.411  16.484  0.3303  0.8933  0.7442
 7245TIP3   OH243149   6.735   5.681  16.765  0.5532  0.4221  0.1220
 7245TIP3    H143150   6.798   5.618  16.801  3.2664  2.3993 -0.8263
 7245TIP3    H243151   6.655   5.666  16.815  2.2732 -1.1100  2.6628
 7246TIP3   OH243152   0.720   4.119   2.679 -0.2267  0.7105  0.1388
 7246TIP3    H143153   0.770   4.086   2.604  0.5892  0.3020  0.8406
 7246TIP3    H243154   0.766   4.199   2.705 -0.3688  0.7282  0.3415
 7247TIP3   OH243155   2.327   3.873   3.108 -0.0504  0.3667  0.4440
 7247TIP3    H143156   2.306   3.898   3.198  0.1120 -0.5482  0.7376
 7247TIP3    H243157   2.375   3.949   3.073 -0.0931  0.7132  1.1288
 7248TIP3   OH243158   0.085   6.500  14.729  0.2389  0.1458  0.1926
 7248TIP3    H143159   0.052   6.588  14.712 -2.4201 -0.9406 -0.8587
 7248TIP3    H243160   0.039   6.444  14.666  0.2366 -2.2617  2.1437
 7249TIP3   OH243161   0.698   0.534  15.662  0.1374  0.2764 -0.1977
 7249TIP3    H143162   0.655   0.453  15.634  1.1520  0.1126 -1.3502
 7249TIP3    H243163   0.792   0.515  15.656  0.3941  1.5437 -0.5180
 7250TIP3   OH243164   6.272   5.938  16.323  0.1740  0.1380  0.3787
 7250TIP3    H143165   6.315   5.939  16.237  1.5735 -0.2725  1.0469
 7250TIP3    H243166   6.179   5.947  16.303  0.4672 -0.0096 -1.1905
 7251TIP3   OH243167   2.520   0.876   2.630  0.9478  0.3503  0.5178
 7251TIP3    H143168   2.579   0.898   2.558 -0.7815  0.5379 -0.8954
 7251TIP3    H243169   2.518   0.780   2.630 -0.6361  0.3287 -1.1116
 7252TIP3   OH243170   1.317   4.964  14.060  0.1448 -0.5461 -0.4657
 7252TIP3    H143171   1.323   5.045  14.010  1.0814 -0.0762  0.3722
 7252TIP3    H243172   1.328   4.894  13.995 -2.2180 -0.1060 -1.4478
 7253TIP3   OH243173   0.875   6.667  14.733  0.2902 -0.0486  0.2128
 7253TIP3    H143174   0.878   6.758  14.704 -1.3558  0.2158  0.7781
 7253TIP3    H243175   0.789   6.636  14.705 -0.6632 -0.3085  3.1453
 7254TIP3   OH243176   4.185   2.405   5.809  0.1476  0.2384  0.0719
 7254TIP3    H143177   4.153   2.366   5.890  1.7001 -1.2746  0.0149
 7254TIP3    H243178   4.138   2.358   5.740  1.5345 -1.1873  0.0273
 7255TIP3   OH243179   5.146   1.519  14.088  0.3621 -0.2562  0.1282
 7255TIP3    H143180   5.085   1.590  14.106  0.2094 -0.3807  0.1036
 7255TIP3    H243181   5.091   1.446  14.059  0.4453 -0.6391  0.9059
 7256TIP3   OH243182   1.615   5.509  13.739 -0.5290  0.9282 -0.1191
 7256TIP3    H143183   1.705   5.489  13.716 -0.6397 -1.4793  1.2394
 7256TIP3    H243184   1.615   5.512  13.835 -1.6788  2.1621 -0.1274
 7257TIP3   OH243185   3.771   0.202   4.818  0.0400 -0.0032 -0.2251
 7257TIP3    H143186   3.805   0.258   4.887 -0.4873 -0.2430  0.2375
 7257TIP3    H243187   3.685   0.238   4.797  0.0062 -0.2023 -0.4392
 7258TIP3   OH243188   6.615   0.363   2.173 -0.3899  0.2214 -0.2418
 7258TIP3    H143189   6.586   0.274   2.194 -0.2328  0.5117  1.3905
 7258TIP3    H243190   6.697   0.351   2.125 -0.8043 -0.5198 -0.7772
 7259TIP3   OH243191   3.046   4.918   0.476  0.2333  0.0644  0.2455
 7259TIP3    H143192   3.091   4.862   0.412  2.2702  1.4161  0.4281
 7259TIP3    H243193   3.037   5.003   0.431  1.5224  0.9784  1.6428
 7260TIP3   OH243194   5.328   2.132   6.303  0.1715 -0.2681  0.5855
 7260TIP3    H143195   5.423   2.118   6.300 -0.1066 -2.4876  0.3609
 7260TIP3    H243196   5.315   2.220   6.267  2.1249  0.0704  0.6044
 7261TIP3   OH243197   2.108   2.855  14.002  0.3772  0.4882  0.2462
 7261TIP3    H143198   2.178   2.858  13.936 -1.4232  1.0310 -1.7516
 7261TIP3    H243199   2.090   2.946  14.023  0.2213  0.3584  0.6906
 7262TIP3   OH243200   0.414   3.531  14.877  0.5204 -0.5072  0.0469
 7262TIP3    H143201   0.444   3.443  14.901 -1.8749 -1.6748 -0.9124
 7262TIP3    H243202   0.469   3.556  14.803  0.5927 -1.6252 -0.2916
 7263TIP3   OH243203   2.719   5.201   1.149 -0.0672  0.2279  0.0601
 7263TIP3    H143204   2.758   5.166   1.070  1.2164  1.9372 -0.1221
 7263TIP3    H243205   2.639   5.243   1.120  0.9225  1.7635 -0.5479
 7264TIP3   OH243206   4.089   4.775  12.269 -0.0165  0.2535  0.1183
 7264TIP3    H143207   4.097   4.682  12.251  0.7069  0.4789 -0.7971
 7264TIP3    H243208   4.172   4.800  12.308  0.0954  0.6687 -0.3701
 7265TIP3   OH243209   6.601   1.138   2.208 -0.3354 -0.3951 -0.5202
 7265TIP3    H143210   6.607   1.066   2.146  1.4412 -3.1927  2.5902
 7265TIP3    H243211   6.673   1.197   2.185 -1.0413 -0.1962 -2.3340
 7266TIP3   OH243212   0.791   1.947   0.461 -0.1909  0.1929 -0.6744
 7266TIP3    H143213   0.723   2.006   0.493 -0.6967 -0.3765 -0.6922
 7266TIP3    H243214   0.746   1.887   0.402  0.8623  1.8260 -3.3538
 7267TIP3   OH243215   2.350   5.996  15.530  0.3874  0.0757 -0.0273
 7267TIP3    H143216   2.336   5.903  15.509 -1.1099  0.5276 -1.2384
 7267TIP3    H243217   2.443   6.010  15.513  0.5532 -1.1104 -0.2167
 7268TIP3   OH243218   5.996   2.185  11.927 -0.0717 -0.3935 -0.4539
 7268TIP3    H143219   6.024   2.268  11.887  1.3969 -0.4850  0.3071
 7268TIP3    H243220   6.072   2.157  11.979 -1.9714 -0.1594  2.6458
 7269TIP3   OH243221   1.711   2.484  17.100  0.4832  0.1142 -0.0640
 7269TIP3    H143222   1.715   2.470  17.194  1.0669  0.6798  0.0070
 7269TIP3    H243223   1.620   2.507  17.083  0.0070 -1.4846  0.1217
 7270TIP3   OH243224   1.480   3.953   2.148 -0.2785  0.0075 -0.5172
 7270TIP3    H143225   1.482   3.967   2.243 -0.8167  0.5994 -0.5878
 7270TIP3    H243226   1.542   4.017   2.113 -0.1611 -0.1375 -0.5760
 7271TIP3   OH243227   6.295   3.195   1.599 -0.7113  0.2383  0.0801
 7271TIP3    H143228   6.377   3.180   1.552 -0.4908  0.7676  0.2911
 7271TIP3    H243229   6.319   3.254   1.671 -1.0274 -0.6038  0.8952
 7272TIP3   OH243230   0.797   2.437   3.136 -0.0075  0.6551  0.3603
 7272TIP3    H143231   0.743   2.516   3.134  0.5186  1.1278  2.4482
 7272TIP3    H243232   0.841   2.440   3.221 -1.2413 -2.7202  1.2766
 7273TIP3   OH243233   4.892   0.961   1.255  0.6590 -0.3586 -0.2291
 7273TIP3    H143234   4.826   0.968   1.324 -1.0515  1.6814 -1.9540
 7273TIP3    H243235   4.971   0.998   1.295 -0.2241  0.5954  0.7306
 7274TIP3   OH243236   2.254   1.759  12.996  0.2028  0.3003  0.3207
 7274TIP3    H143237   2.291   1.762  12.908 -1.3314  2.0158 -0.3339
 7274TIP3    H243238   2.160   1.749  12.982 -0.0480  0.3619  1.7753
 7275TIP3   OH243239   6.465   4.106  15.517 -0.1899  0.1999 -0.2040
 7275TIP3    H143240   6.450   4.044  15.588  3.5508 -0.9870 -0.2242
 7275TIP3    H243241   6.424   4.065  15.441  0.8434 -1.5755  0.1157
 7276TIP3   OH243242   0.044   6.474   5.100 -0.1712  0.2792 -0.4898
 7276TIP3    H143243   0.103   6.437   5.034 -0.3541 -1.1930  0.1346
 7276TIP3    H243244  -0.039   6.485   5.055  0.1012  0.7036 -0.8999
 7277TIP3   OH243245   3.286   5.903   4.571  0.2658 -0.2729  0.1678
 7277TIP3    H143246   3.359   5.964   4.571  0.3993 -0.4353 -0.3940
 7277TIP3    H243247   3.227   5.935   4.502 -0.2691 -0.0540  0.7139
 7278TIP3   OH243248   4.183   5.393   1.336  0.5260 -0.7393  0.5389
 7278TIP3    H143249   4.254   5.434   1.287  0.6536 -0.4883  0.9257
 7278TIP3    H243250   4.112   5.457   1.334 -0.1402 -1.4880 -0.8817
 7279TIP3   OH243251   2.480   5.592  15.740  0.1554  0.1600 -0.3111
 7279TIP3    H143252   2.460   5.550  15.824  2.1008 -0.3139 -0.0133
 7279TIP3    H243253   2.511   5.519  15.685  1.8016  0.8746 -0.3992
 7280TIP3   OH243254   3.955   0.324  12.774 -0.0812 -0.0497 -0.2676
 7280TIP3    H143255   4.035   0.361  12.738 -0.5435  1.3086  0.0429
 7280TIP3    H243256   3.983   0.275  12.851  0.7454 -1.8301 -1.6396
 7281TIP3   OH243257   3.635   1.193   0.215  0.5614 -0.4033 -0.2762
 7281TIP3    H143258   3.672   1.272   0.176  1.6489 -0.9302 -0.3582
 7281TIP3    H243259   3.638   1.208   0.309 -0.0138 -0.0196 -0.3140
 7282TIP3   OH243260   2.219   5.211  16.109 -0.3771 -0.4407 -0.2270
 7282TIP3    H143261   2.234   5.278  16.176 -1.4813 -0.3282 -0.0845
 7282TIP3    H243262   2.206   5.130  16.158  1.7954 -0.9689 -0.4217
 7283TIP3   OH243263   1.877   6.530   4.707  0.5727  0.5683  0.5516
 7283TIP3    H143264   1.893   6.580   4.627 -1.4262  0.8054  0.2358
 7283TIP3    H243265   1.862   6.441   4.677  2.7610 -0.0120  0.9930
 7284TIP3   OH243266   1.856   4.324   5.446  0.3579  0.0418  0.4394
 7284TIP3    H143267   1.860   4.354   5.537 -0.6791  0.5463  0.3314
 7284TIP3    H243268   1.786   4.375   5.407 -0.5259 -1.5332 -0.1278
 7285TIP3   OH243269   1.459   1.275   4.573  0.2719  0.0123 -0.0944
 7285TIP3    H143270   1.367   1.263   4.552 -0.2566  0.3934  1.7663
 7285TIP3    H243271   1.500   1.298   4.490 -1.1734 -0.8074 -1.0823
 7286TIP3   OH243272   5.032   6.164   3.734 -0.4470  0.3493 -0.1414
 7286TIP3    H143273   5.009   6.080   3.774 -0.4826  0.4600  0.0698
 7286TIP3    H243274   5.057   6.141   3.644  0.1882  0.0246  0.1128
 7287TIP3   OH243275   0.594   3.518  14.575  0.1919 -0.2158  0.6053
 7287TIP3    H143276   0.579   3.591  14.635 -1.3962 -1.2451  1.5246
 7287TIP3    H243277   0.606   3.560  14.490 -0.7220  1.1237  1.1006
 7288TIP3   OH243278   4.916   2.643  11.804  0.1947  0.3485 -0.0432
 7288TIP3    H143279   4.876   2.703  11.866  1.1596 -0.3266  1.3009
 7288TIP3    H243280   4.884   2.670  11.718 -1.4504  1.0943  0.7828
 7289TIP3   OH243281   4.371   6.641   0.353 -0.0903 -0.0066  0.0579
 7289TIP3    H143282   4.414   6.699   0.416 -0.8910  1.2944 -0.5540
 7289TIP3    H243283   4.442   6.607   0.299  0.2721  1.5585 -0.4964
 7290TIP3   OH243284   4.228   0.559   2.657 -0.0212  0.6124 -1.0691
 7290TIP3    H143285   4.324   0.565   2.665  0.1959 -1.7612 -1.2424
 7290TIP3    H243286   4.211   0.569   2.564  0.1277  0.3406 -1.1259
 7291TIP3   OH243287   2.656   0.909  15.257 -0.1035 -0.0250  0.1116
 7291TIP3    H143288   2.684   0.876  15.172  0.3821 -0.0767  0.2894
 7291TIP3    H243289   2.685   1.000  15.259 -0.2625  0.0264  0.1599
 7292TIP3   OH243290   1.061   2.769  13.106  0.2786  0.0469 -0.7531
 7292TIP3    H143291   1.125   2.757  13.036  1.0474  0.4660 -0.1409
 7292TIP3    H243292   0.976   2.757  13.063  0.7777 -1.8784 -1.3172
 7293TIP3   OH243293   4.571   3.521  13.298  0.3287  0.3408 -0.0790
 7293TIP3    H143294   4.497   3.508  13.238  0.3136  1.0786 -0.2194
 7293TIP3    H243295   4.545   3.477  13.379 -0.0386  0.1470 -0.3022
 7294TIP3   OH243296   1.006   2.377   5.271 -0.1024 -0.1307  0.3810
 7294TIP3    H143297   1.094   2.408   5.250  0.2837 -1.6456 -0.4151
 7294TIP3    H243298   0.950   2.418   5.204 -0.0193  0.8101  0.8692
 7295TIP3   OH243299   0.199   0.339   3.047 -0.7453  0.2859  0.2532
 7295TIP3    H143300   0.230   0.429   3.045 -1.9311  1.0606  4.5163
 7295TIP3    H243301   0.278   0.286   3.048  0.1039  1.5221  0.7413
 7296TIP3   OH243302   5.485   0.107   0.663 -0.2778  0.2181  0.4482
 7296TIP3    H143303   5.534   0.189   0.652 -0.7163  0.4356  0.0853
 7296TIP3    H243304   5.522   0.047   0.599  1.3805 -0.5166  2.0236
 7297TIP3   OH243305   2.893   1.241  14.163  0.0633  0.1094  0.3675
 7297TIP3    H143306   2.819   1.189  14.130  1.8517 -1.9009 -0.7627
 7297TIP3    H243307   2.864   1.332  14.152 -2.3571 -0.5744  0.3072
 7298TIP3   OH243308   1.498   4.183   5.845 -0.0518 -0.3557 -0.0899
 7298TIP3    H143309   1.514   4.103   5.795 -0.3256 -1.5281  1.6228
 7298TIP3    H243310   1.496   4.154   5.936 -0.8056  1.5110  0.5237
 7299TIP3   OH243311   5.082   4.640  13.738  0.0579 -0.3834 -0.1912
 7299TIP3    H143312   5.158   4.623  13.795  1.5366  3.0900 -0.8243
 7299TIP3    H243313   5.014   4.670  13.798  0.1246 -0.8430  0.1212
 7300TIP3   OH243314   2.867   0.789  14.626 -0.3685 -0.0563  0.0409
 7300TIP3    H143315   2.930   0.852  14.663  1.5553 -1.7274 -0.1987
 7300TIP3    H243316   2.840   0.828  14.543 -0.4107  1.1470  0.6016
 7301TIP3   OH243317   4.352   5.318   2.966 -0.3240  0.1878  0.2754
 7301TIP3    H143318   4.414   5.389   2.949 -1.7304  1.4542  0.2222
 7301TIP3    H243319   4.402   5.238   2.949  1.8717  1.0527  2.1248
 7302TIP3   OH243320   0.691   5.668   1.677  0.2915 -0.0139 -0.1364
 7302TIP3    H143321   0.686   5.585   1.630 -1.5465  0.5906 -1.1227
 7302TIP3    H243322   0.767   5.712   1.639 -0.0596 -0.3139 -1.2477
 7303TIP3   OH243323   2.295   5.088   4.608  0.7075 -0.3187 -0.0823
 7303TIP3    H143324   2.269   4.997   4.593 -0.7221 -0.2977  1.8394
 7303TIP3    H243325   2.360   5.106   4.541  0.9634 -2.7337 -0.5724
 7304TIP3   OH243326   3.098   3.578   4.880 -0.7541 -0.2463  0.1822
 7304TIP3    H143327   3.006   3.587   4.854 -0.6611 -2.3080 -1.1229
 7304TIP3    H243328   3.100   3.609   4.970 -1.8541  3.7879 -0.9836
 7305TIP3   OH243329   4.705   2.676  14.889  0.3574 -0.8093 -0.2121
 7305TIP3    H143330   4.639   2.728  14.843  0.8215 -1.3765 -1.5728
 7305TIP3    H243331   4.655   2.610  14.937 -0.2592  0.9704  1.7299
 7306TIP3   OH243332   3.858   4.530  12.433 -0.1775 -0.0952 -0.5438
 7306TIP3    H143333   3.812   4.455  12.394  0.6836 -0.7167 -0.3991
 7306TIP3    H243334   3.858   4.596  12.365 -2.4643  0.4511 -0.0999
 7307TIP3   OH243335   0.479   5.785  16.853  0.3998  0.6680  0.1470
 7307TIP3    H143336   0.562   5.740  16.841  0.1879  0.1806  0.4797
 7307TIP3    H243337   0.415   5.715  16.870  0.2091  1.1232  1.4390
 7308TIP3   OH243338   1.871   1.920   4.644  0.0840 -0.0848 -0.4205
 7308TIP3    H143339   1.913   1.930   4.558  0.7730 -2.5914 -0.4638
 7308TIP3    H243340   1.944   1.911   4.705 -0.4119  0.1711  0.2192
 7309TIP3   OH243341   1.162   1.049  12.982  0.0578  0.0048 -0.5403
 7309TIP3    H143342   1.126   1.024  13.068  1.2336  2.8237  0.9008
 7309TIP3    H243343   1.244   0.999  12.976 -0.3704 -0.7376 -0.3543
 7310TIP3   OH243344   6.308   4.406  12.532  0.0616  0.0929  0.2249
 7310TIP3    H143345   6.294   4.445  12.618  1.2655 -1.2086  1.0587
 7310TIP3    H243346   6.236   4.439  12.478  0.4394  2.6376  1.1082
 7311TIP3   OH243347   2.256   2.742  12.890 -0.3541 -0.0930 -0.3494
 7311TIP3    H143348   2.219   2.787  12.966  0.1513 -0.1499 -0.0588
 7311TIP3    H243349   2.308   2.671  12.928  0.9933  0.6857 -0.6788
 7312TIP3   OH243350   0.578   2.668  16.011  0.0519 -0.1417  0.0528
 7312TIP3    H143351   0.540   2.735  16.067  1.5601  1.4449 -0.6949
 7312TIP3    H243352   0.505   2.637  15.957 -0.7123  0.8417  0.4862
 7313TIP3   OH243353   0.582   1.455   1.502  0.0444 -0.1832 -0.1525
 7313TIP3    H143354   0.569   1.533   1.556 -0.6365 -0.6285  0.3253
 7313TIP3    H243355   0.549   1.382   1.554 -1.8474 -0.4778 -1.6407
 7314TIP3   OH243356   1.762   2.246   1.122  0.2288  0.1257  0.0937
 7314TIP3    H143357   1.776   2.208   1.035  0.8535  0.3894  0.0725
 7314TIP3    H243358   1.844   2.291   1.142 -0.4784  1.4179  0.1405
 7315TIP3   OH243359   4.992   1.656  11.655 -0.1500 -0.5099 -0.3198
 7315TIP3    H143360   4.924   1.723  11.645 -0.0854 -0.5897 -1.3407
 7315TIP3    H243361   5.073   1.700  11.631 -0.0446 -0.8233 -0.5426
 7316TIP3   OH243362   6.424   6.290  11.628 -0.2495 -0.0906 -0.5385
 7316TIP3    H143363   6.414   6.238  11.708  0.7817 -0.9347 -0.9334
 7316TIP3    H243364   6.357   6.255  11.569 -1.9787  1.4880  0.3850
 7317TIP3   OH243365   3.006   3.076   3.500  0.0210  0.1846 -0.1109
 7317TIP3    H143366   3.048   3.095   3.584 -0.5321  2.1160 -0.2310
 7317TIP3    H243367   2.951   2.999   3.518  1.3141 -0.5681  0.7931
 7318TIP3   OH243368   2.891   4.868  10.947  0.4423 -0.0237 -0.0556
 7318TIP3    H143369   2.819   4.808  10.929 -0.6308  1.2252 -0.0849
 7318TIP3    H243370   2.854   4.933  11.007  1.4866  0.7543 -0.2205
 7319TIP3   OH243371   0.810   2.282   4.565  0.4565 -0.4417 -0.1029
 7319TIP3    H143372   0.878   2.244   4.620  0.9172  1.0297  0.3880
 7319TIP3    H243373   0.854   2.351   4.517 -0.9489  1.5592  1.3156
 7320TIP3   OH243374   2.274   3.327  12.542 -0.9311  0.4349  0.0305
 7320TIP3    H143375   2.347   3.291  12.492 -0.8666  0.5465  0.0446
 7320TIP3    H243376   2.310   3.403  12.587 -1.1237  0.6586 -0.1838
 7321TIP3   OH243377   1.958   6.467  15.479  0.6764  0.1345 -0.3918
 7321TIP3    H143378   2.019   6.486  15.408 -0.1224  0.7601 -0.9381
 7321TIP3    H243379   1.897   6.402  15.442  0.8288 -0.2625  0.0444
 7322TIP3   OH243380   4.328   0.595  12.827  0.0248  0.2955  0.0803
 7322TIP3    H143381   4.303   0.653  12.755  0.3643 -0.2214 -0.4680
 7322TIP3    H243382   4.377   0.650  12.887 -1.8956  1.1910  0.8867
 7323TIP3   OH243383   1.633   0.564  17.077  0.6621 -0.4255 -0.3722
 7323TIP3    H143384   1.662   0.475  17.097  1.5072 -0.1811 -0.4829
 7323TIP3    H243385   1.537   0.560  17.083  0.7847 -0.6960  2.3504
 7324TIP3   OH243386   6.182   0.234  15.432  0.1959  0.4974 -0.1263
 7324TIP3    H143387   6.101   0.227  15.381 -0.3803  2.2596  0.4689
 7324TIP3    H243388   6.220   0.318  15.406  2.2555 -0.6130 -0.9229
 7325TIP3   OH243389   5.099   4.712   3.300  0.0755 -0.1731 -0.0998
 7325TIP3    H143390   5.187   4.704   3.264  0.1893 -0.2264  0.1845
 7325TIP3    H243391   5.103   4.664   3.384 -0.3029 -0.4289 -0.2239
 7326TIP3   OH243392   3.756   6.636  12.817  0.0564 -0.3028 -0.0653
 7326TIP3    H143393   3.793   6.561  12.770 -2.0581 -1.6928  0.3476
 7326TIP3    H243394   3.738   6.602  12.904  0.8300  1.2949  0.7571
 7327TIP3   OH243395   1.204   3.998  17.224  0.2635  0.4200  0.3706
 7327TIP3    H143396   1.190   3.935  17.153  1.1353  0.4517  0.1590
 7327TIP3    H243397   1.197   4.084  17.182 -0.0166  0.4506  0.4798
 7328TIP3   OH243398   4.802   1.222   5.939  0.4211 -0.0498  0.1600
 7328TIP3    H143399   4.863   1.188   5.874  2.0977  1.4061  0.8648
 7328TIP3    H243400   4.758   1.295   5.895  1.9995  1.3300  0.7687
 7329TIP3   OH243401   4.930   2.071  12.037  0.3020  0.2496  0.6178
 7329TIP3    H143402   4.907   2.055  11.945  2.5412 -0.8298  0.1780
 7329TIP3    H243403   4.848   2.094  12.079 -0.7486  1.0512 -1.7213
 7330TIP3   OH243404   3.559   4.885   2.868 -0.0033 -0.0350 -0.0751
 7330TIP3    H143405   3.611   4.936   2.930 -0.4251 -0.7532  0.8932
 7330TIP3    H243406   3.476   4.869   2.913 -0.3343 -0.5433 -0.8379
 7331TIP3   OH243407   2.333   5.409  12.018 -0.3321  0.0429 -0.1084
 7331TIP3    H143408   2.282   5.347  12.071 -0.9694  0.7370  0.1011
 7331TIP3    H243409   2.290   5.493  12.032  1.0731  0.7130  0.3242
 7332TIP3   OH243410   3.911   5.343   4.650 -0.2069 -0.0374 -0.5289
 7332TIP3    H143411   3.850   5.271   4.660 -0.4051  0.1342 -0.4990
 7332TIP3    H243412   3.935   5.367   4.739  0.2670 -0.4131 -0.5541
 7333TIP3   OH243413   5.434   3.636   5.278 -0.0832  0.3073  0.8744
 7333TIP3    H143414   5.417   3.542   5.276  0.1436  0.2558 -0.9678
 7333TIP3    H243415   5.360   3.675   5.230  0.9996  0.8126 -0.4547
 7334TIP3   OH243416   4.455   5.099  13.379 -0.3469  0.0363  0.2549
 7334TIP3    H143417   4.417   5.057  13.302  0.4126 -0.8008  0.3235
 7334TIP3    H243418   4.471   5.190  13.352 -0.1555 -0.2359 -0.5528
 7335TIP3   OH243419   5.334   2.261   2.417  0.1688  0.0046 -0.1932
 7335TIP3    H143420   5.259   2.320   2.413  0.0528 -0.0683  0.5724
 7335TIP3    H243421   5.323   2.215   2.501 -0.8587 -2.5751 -1.5972
 7336TIP3   OH243422   1.584   2.450   5.134 -0.4199  0.0166 -0.5156
 7336TIP3    H143423   1.668   2.422   5.171 -1.7559 -0.8107  2.1452
 7336TIP3    H243424   1.596   2.543   5.116  0.4323  0.4693  1.9690
 7337TIP3   OH243425   5.633   2.126   5.071 -0.5272 -0.6323 -0.2551
 7337TIP3    H143426   5.641   2.171   4.987 -2.4022 -0.2963 -0.2979
 7337TIP3    H243427   5.644   2.195   5.137  0.6418 -0.8459 -0.1990
 7338TIP3   OH243428   0.480   0.256   0.523 -0.5444 -0.2053 -0.1489
 7338TIP3    H143429   0.417   0.328   0.526 -0.5928 -0.2207 -0.7985
 7338TIP3    H243430   0.503   0.241   0.615 -0.7898  0.4108  0.0182
 7339TIP3   OH243431   1.583   6.661   3.544  0.0955 -0.2101 -0.2188
 7339TIP3    H143432   1.547   6.749   3.536 -2.5701 -1.3055 -1.2971
 7339TIP3    H243433   1.547   6.627   3.626  1.1722 -0.3350  0.2339
 7340TIP3   OH243434   0.776   5.922   4.751 -0.3455 -0.8061  0.0644
 7340TIP3    H143435   0.834   5.993   4.781  1.2368 -1.7200 -0.6924
 7340TIP3    H243436   0.758   5.943   4.660 -0.8476 -0.7629  0.1746
 7341TIP3   OH243437   2.905   5.692  15.531 -0.2238  0.0746  0.6895
 7341TIP3    H143438   2.933   5.781  15.508  1.8824 -0.5482  0.6640
 7341TIP3    H243439   2.918   5.687  15.626  2.4588 -1.0651  0.3280
 7342TIP3   OH243440   5.663   2.052  14.596 -0.9826 -0.1989 -0.2887
 7342TIP3    H143441   5.655   2.131  14.649 -1.4437 -1.0473  0.9738
 7342TIP3    H243442   5.695   2.082  14.511  1.3123  1.0832  0.9160
 7343TIP3   OH243443   3.447   0.723   3.544  0.4563 -0.4339  0.4386
 7343TIP3    H143444   3.519   0.764   3.593  1.0857 -0.7634 -0.1991
 7343TIP3    H243445   3.453   0.630   3.566  0.5851 -0.5452 -0.0737
 7344TIP3   OH243446   4.626   4.756   0.460 -0.1072 -0.0291  0.3655
 7344TIP3    H143447   4.652   4.792   0.375 -2.2432  0.6553 -0.0472
 7344TIP3    H243448   4.697   4.782   0.519  0.3934  1.3342 -0.7662
 7345TIP3   OH243449   1.879   6.283   2.400  0.7214  0.0996 -0.4624
 7345TIP3    H143450   1.821   6.206   2.396 -0.5918  1.0167  0.2544
 7345TIP3    H243451   1.920   6.286   2.314  2.0203 -2.2977 -0.0108
 7346TIP3   OH243452   4.761   1.298  12.602  0.0307 -0.1454 -0.1584
 7346TIP3    H143453   4.754   1.285  12.697  0.5129 -0.0582 -0.1065
 7346TIP3    H243454   4.671   1.293  12.570 -0.1025 -0.5102  0.2621
 7347TIP3   OH243455   2.206   3.170  13.546  0.2705 -0.1274  0.3422
 7347TIP3    H143456   2.162   3.246  13.508 -1.5709 -0.9845  0.6708
 7347TIP3    H243457   2.139   3.127  13.598  1.5571 -1.4313  0.9794
 7348TIP3   OH243458   0.123   6.417   1.234 -0.1014 -0.4364 -0.2350
 7348TIP3    H143459   0.176   6.354   1.185  1.7352  0.8000  0.0691
 7348TIP3    H243460   0.097   6.370   1.313  1.3702 -0.8027  0.0658
 7349TIP3   OH243461   4.504   2.724  16.702  0.3048 -0.1926  0.4064
 7349TIP3    H143462   4.473   2.744  16.614  1.1674 -2.0481 -0.3718
 7349TIP3    H243463   4.596   2.749  16.701  0.1931  0.2592  0.9643
 7350TIP3   OH243464   0.847   5.026  16.653  0.3392  0.3318  0.2745
 7350TIP3    H143465   0.758   5.000  16.631  0.7881 -1.2708  0.2321
 7350TIP3    H243466   0.836   5.091  16.723 -0.8383 -1.1707  1.5593
 7351TIP3   OH243467   1.403   5.322  15.694  0.2593  0.3470 -0.1793
 7351TIP3    H143468   1.387   5.351  15.783  2.8367  3.3280 -0.4838
 7351TIP3    H243469   1.441   5.235  15.704 -0.8058  0.0263  1.4839
 7352TIP3   OH243470   6.502   6.211  15.829  0.3873 -0.1265 -0.1882
 7352TIP3    H143471   6.560   6.204  15.753 -0.6953  0.7219 -1.1438
 7352TIP3    H243472   6.419   6.173  15.800  0.2866 -0.8250  0.9626
 7353TIP3   OH243473   3.413   5.784  14.609 -0.2750  0.0641 -0.1459
 7353TIP3    H143474   3.473   5.810  14.678 -1.0606  1.6878 -0.0263
 7353TIP3    H243475   3.341   5.741  14.656  0.2982 -0.9829 -0.1991
 7354TIP3   OH243476   1.992   5.716   3.849  0.2593  0.1510  0.0387
 7354TIP3    H143477   2.006   5.702   3.942 -0.9080  0.6051  0.2996
 7354TIP3    H243478   2.043   5.647   3.806 -0.8332 -1.3753  1.0904
 7355TIP3   OH243479   4.274   0.811  14.738  0.7038  0.0856 -0.0445
 7355TIP3    H143480   4.311   0.729  14.706 -0.4036 -0.5747  0.2927
 7355TIP3    H243481   4.283   0.805  14.833  1.5472  0.8321 -0.0637
 7356TIP3   OH243482   4.963   3.948  15.066  0.5087  0.5583 -0.7762
 7356TIP3    H143483   4.877   3.990  15.057  0.6865  1.1344  0.1440
 7356TIP3    H243484   4.972   3.932  15.160  1.6564  1.0002 -0.8058
 7357TIP3   OH243485   0.851   2.018  11.760 -0.0495 -0.3100  0.4770
 7357TIP3    H143486   0.869   2.108  11.735 -3.2124  1.0060  2.2460
 7357TIP3    H243487   0.829   2.023  11.853 -1.4819 -2.6769  0.3485
 7358TIP3   OH243488   0.639   5.764  11.506  0.1558  1.1092  0.2794
 7358TIP3    H143489   0.585   5.773  11.585  1.1198 -0.4133  1.1747
 7358TIP3    H243490   0.720   5.811  11.527 -0.3755  2.4755 -0.6430
 7359TIP3   OH243491   0.982   5.453  14.493 -0.2100  0.6986  0.0750
 7359TIP3    H143492   0.917   5.453  14.422  0.8969  1.3153 -0.9642
 7359TIP3    H243493   0.947   5.390  14.557 -1.4639  0.4771 -0.7866
 7360TIP3   OH243494   3.025   1.172  12.826 -0.1071  0.9017 -0.3738
 7360TIP3    H143495   2.931   1.190  12.825 -0.4239 -0.5744 -2.0984
 7360TIP3    H243496   3.041   1.129  12.910 -0.9373  1.2601 -0.0192
 7361TIP3   OH243497   6.147   3.302   3.878 -0.2925 -0.4058 -0.2737
 7361TIP3    H143498   6.108   3.306   3.966 -1.3900 -0.1548 -0.7634
 7361TIP3    H243499   6.239   3.327   3.892 -0.2026 -1.3303  0.9392
 7362TIP3   OH243500   3.132   0.362   2.219  0.5685 -0.2298 -0.1190
 7362TIP3    H143501   3.054   0.361   2.164  1.5068 -0.7214 -1.4912
 7362TIP3    H243502   3.099   0.353   2.308 -1.0075  0.7009 -0.5733
 7363TIP3   OH243503   1.166   5.142   1.987 -0.0819  0.7378  0.1078
 7363TIP3    H143504   1.157   5.233   2.017 -1.7807  0.4841  0.4812
 7363TIP3    H243505   1.088   5.127   1.934  1.2011  0.1129 -1.6830
 7364TIP3   OH243506   0.435   2.137   3.366 -0.5234 -0.3232  0.2621
 7364TIP3    H143507   0.479   2.155   3.283  0.6318 -2.3067  0.3758
 7364TIP3    H243508   0.347   2.174   3.355 -0.4173 -0.5809 -1.8680
 7365TIP3   OH243509   0.611   0.070   4.985  0.3322 -0.3049  0.3069
 7365TIP3    H143510   0.622   0.073   4.890 -1.2216  0.8374  0.1246
 7365TIP3    H243511   0.648   0.153   5.015 -2.3957  1.0513  0.2463
 7366TIP3   OH243512   3.089   2.447  15.831 -0.2165 -0.0526 -0.2698
 7366TIP3    H143513   3.071   2.513  15.897  2.6713 -0.9828  1.6515
 7366TIP3    H243514   3.097   2.365  15.881 -0.7555 -1.3236 -2.1635
 7367TIP3   OH243515   5.551   0.908  11.907  0.0763 -0.1713  0.4078
 7367TIP3    H143516   5.563   0.828  11.958 -0.2436 -0.5427 -0.0849
 7367TIP3    H243517   5.545   0.978  11.973 -0.1204 -0.6120  0.8686
 7368TIP3   OH243518   3.085   1.609   3.684  0.1520  0.4860  0.4652
 7368TIP3    H143519   3.147   1.562   3.740  0.7032  1.9343  1.1133
 7368TIP3    H243520   3.003   1.560   3.692  0.3881  0.2918  2.0402
 7369TIP3   OH243521   5.518   0.178   3.446  0.2091  0.0610  0.0772
 7369TIP3    H143522   5.593   0.170   3.388 -0.2156  0.6295 -0.5660
 7369TIP3    H243523   5.477   0.091   3.446  1.3257 -0.4941  1.0978
 7370TIP3   OH243524   4.238   5.870   1.524 -0.3553 -0.0579 -0.2793
 7370TIP3    H143525   4.244   5.837   1.613 -0.9187  1.3862  0.3150
 7370TIP3    H243526   4.320   5.916   1.509 -0.4362  0.0627 -0.3558
 7371TIP3   OH243527   0.224   3.365   3.377 -0.0238  0.9160  0.3534
 7371TIP3    H143528   0.276   3.358   3.296 -0.8445  0.9518 -0.1858
 7371TIP3    H243529   0.214   3.459   3.390 -1.4565  0.9209 -0.5478
 7372TIP3   OH243530   6.279   4.268   6.524 -0.0161 -0.4795 -0.7505
 7372TIP3    H143531   6.190   4.236   6.536  0.8048 -2.9238 -0.5033
 7372TIP3    H243532   6.296   4.320   6.602  0.2744 -3.9995  1.8011
 7373TIP3   OH243533   2.220   3.985  12.831 -0.0665 -0.5028 -0.0247
 7373TIP3    H143534   2.205   4.079  12.846 -1.5889 -0.8027  0.4575
 7373TIP3    H243535   2.143   3.956  12.783  0.9634 -1.2812 -1.2446
 7374TIP3   OH243536   5.490   2.345  15.184  0.1033  0.6299  0.1237
 7374TIP3    H143537   5.585   2.358  15.179  0.1015  0.6260  0.0832
 7374TIP3    H243538   5.457   2.427  15.220  0.1216  0.6324  0.1357
 7375TIP3   OH243539   2.364   2.842   5.189 -0.0193  0.2090 -0.4947
 7375TIP3    H143540   2.333   2.854   5.099 -2.6173  0.6411  0.3536
 7375TIP3    H243541   2.308   2.900   5.241  1.3823 -0.0621  1.4252
 7376TIP3   OH243542   2.196   5.285  13.825 -0.3285  0.0771  0.4326
 7376TIP3    H143543   2.181   5.359  13.766 -0.3416  0.0014  0.3423
 7376TIP3    H243544   2.264   5.233  13.783 -0.0170  0.2622  0.7008
 7377TIP3   OH243545   6.521   1.126   2.482 -0.6097 -0.5169 -0.2639
 7377TIP3    H143546   6.470   1.207   2.478 -0.2349  0.0093  3.1463
 7377TIP3    H243547   6.557   1.117   2.393 -0.9027  2.8788 -0.8659
 7378TIP3   OH243548   3.209   6.314  16.290  0.1846  0.0458 -0.3375
 7378TIP3    H143549   3.145   6.301  16.220  0.8123 -1.1664 -0.7036
 7378TIP3    H243550   3.253   6.396  16.268 -0.3255  0.1988 -0.8026
 7379TIP3   OH243551   2.826   0.007   2.155  0.5195  0.4390 -0.3419
 7379TIP3    H143552   2.767   0.034   2.085 -0.6422 -1.7449 -0.2632
 7379TIP3    H243553   2.768  -0.010   2.230  1.0052 -2.8348 -0.5806
 7380TIP3   OH243554   2.739   1.450  16.361 -0.6692  0.5731  0.2672
 7380TIP3    H143555   2.808   1.506  16.327 -1.0015  0.7945 -0.0519
 7380TIP3    H243556   2.765   1.432  16.451  0.7925 -0.9406 -0.4054
 7381TIP3   OH243557   1.665   5.529  17.181 -0.3084  0.3553 -0.1542
 7381TIP3    H143558   1.680   5.595  17.248  0.6004 -0.3495  0.3569
 7381TIP3    H243559   1.708   5.564  17.103  1.7474 -0.3834  0.5725
 7382TIP3   OH243560   6.310   2.867   1.692 -0.0950 -0.2848 -0.2918
 7382TIP3    H143561   6.329   2.876   1.598  0.8904  0.2602 -0.0502
 7382TIP3    H243562   6.355   2.940   1.733 -2.5234  0.9299  0.3863
 7383TIP3   OH243563   0.392   5.372  13.174  0.1081 -0.1256 -0.4424
 7383TIP3    H143564   0.379   5.351  13.267 -2.3985 -0.3724 -0.7798
 7383TIP3    H243565   0.429   5.292  13.137 -1.5403 -1.0931 -0.1309
 7384TIP3   OH243566   5.498   2.068   2.894  0.4961 -0.2224 -0.0417
 7384TIP3    H143567   5.520   2.133   2.827 -0.7478 -0.6285 -0.8852
 7384TIP3    H243568   5.571   2.072   2.956  0.9275  1.2651 -0.5955
 7385TIP3   OH243569   0.452   6.586  12.265  0.0039 -0.2740  0.4160
 7385TIP3    H143570   0.381   6.560  12.323 -0.3695  0.4293  0.2938
 7385TIP3    H243571   0.503   6.507  12.252 -0.5526 -0.7045  0.8001
 7386TIP3   OH243572   1.579   0.968   4.979  0.2071 -0.1799 -0.1881
 7386TIP3    H143573   1.635   1.046   4.976 -0.0599  0.0110 -2.1629
 7386TIP3    H243574   1.629   0.901   4.932 -0.9632 -0.1492 -1.5427
 7387TIP3   OH243575   4.092   2.299  16.391  0.7330 -0.0719 -0.1695
 7387TIP3    H143576   4.034   2.326  16.320  1.3253  0.8191 -0.3224
 7387TIP3    H243577   4.035   2.295  16.468  0.3015 -0.0192 -0.4826
 7388TIP3   OH243578   3.872   3.805   2.777 -0.0098 -0.1774 -0.1585
 7388TIP3    H143579   3.894   3.857   2.699  0.7482  0.8474  0.7051
 7388TIP3    H243580   3.952   3.806   2.829 -0.6011 -0.5743  0.7766
 7389TIP3   OH243581   2.167   0.183   3.766 -0.4926  0.0734  0.5576
 7389TIP3    H143582   2.239   0.191   3.829 -0.8098  1.7725  0.7550
 7389TIP3    H243583   2.162   0.089   3.747  2.4689 -0.0413 -0.2759
 7390TIP3   OH243584   4.517   6.641  11.217 -0.2281  0.4171  0.0219
 7390TIP3    H143585   4.544   6.606  11.301 -0.3293 -0.8608 -0.4420
 7390TIP3    H243586   4.426   6.669  11.231 -0.7878 -1.2275 -0.0098
 7391TIP3   OH243587   6.581   0.888   5.173 -0.0318  0.0922  0.2866
 7391TIP3    H143588   6.623   0.936   5.102  0.8007  0.4781  1.0236
 7391TIP3    H243589   6.495   0.864   5.139 -0.4157  1.9711 -0.1652
 7392TIP3   OH243590   5.112   3.891   4.878 -0.5727 -0.0416 -0.2362
 7392TIP3    H143591   5.020   3.867   4.890 -0.9152  0.8877 -0.8628
 7392TIP3    H243592   5.110   3.986   4.869  0.8050  0.3885  2.8684
 7393TIP3   OH243593   1.567   5.197  15.034  0.0960 -0.1617 -0.0111
 7393TIP3    H143594   1.479   5.233  15.044 -0.2295 -0.8111 -0.4938
 7393TIP3    H243595   1.553   5.109  14.999  1.0198  0.5626 -2.3896
 7394TIP3   OH243596   2.147   2.151   3.873  0.0221  0.2812 -1.0312
 7394TIP3    H143597   2.071   2.093   3.873  0.6355 -0.5379 -0.9232
 7394TIP3    H243598   2.133   2.208   3.797 -1.2702  0.9258 -0.3417
 7395TIP3   OH243599   1.905   1.028  12.811  0.0885 -0.1310 -0.4283
 7395TIP3    H143600   1.888   0.991  12.897  1.8562 -2.1925 -0.8864
 7395TIP3    H243601   1.829   1.001  12.759 -0.3338 -0.0490  0.1341
 7396TIP3   OH243602   2.267   3.347   2.439 -0.0525 -0.4566  0.1003
 7396TIP3    H143603   2.286   3.284   2.508 -1.2982 -0.5683  0.3616
 7396TIP3    H243604   2.339   3.338   2.377  0.3223 -1.3849  0.6633
 7397TIP3   OH243605   3.688   3.275   4.099  0.4578 -0.2790  0.3081
 7397TIP3    H143606   3.609   3.222   4.109  0.9461 -1.7500 -2.4695
 7397TIP3    H243607   3.760   3.213   4.112  1.0585 -0.1628 -2.0225
 7398TIP3   OH243608   2.220   5.836  13.975  0.0213  0.3379  0.0575
 7398TIP3    H143609   2.151   5.773  13.995  0.9664 -0.6141  0.4801
 7398TIP3    H243610   2.178   5.904  13.923 -1.2067 -0.2409  0.2720
 7399TIP3   OH243611   5.984   5.947   3.672  0.1830 -0.0199 -0.0866
 7399TIP3    H143612   5.977   6.042   3.660  0.6928  0.0220 -0.0638
 7399TIP3    H243613   6.044   5.918   3.603  0.2169 -0.2927  0.0555
 7400TIP3   OH243614   0.548   6.640  14.117 -0.8915  0.2568  0.2987
 7400TIP3    H143615   0.576   6.655  14.027  1.0637 -0.1241  0.7803
 7400TIP3    H243616   0.473   6.698  14.129 -0.9493  0.6006 -1.4456
 7401TIP3   OH243617   4.019   3.524   5.126  0.4560  0.1568  0.2742
 7401TIP3    H143618   3.947   3.462   5.131  0.5070  0.1114  0.4588
 7401TIP3    H243619   4.037   3.548   5.217 -0.7920  1.8833  0.1203
 7402TIP3   OH243620   2.439   2.034  12.941 -0.0478  0.8784  0.1718
 7402TIP3    H143621   2.405   2.019  13.029 -2.8988 -1.2403 -1.1067
 7402TIP3    H243622   2.363   2.064  12.891  1.8212  3.5084 -1.3337
 7403TIP3   OH243623   1.712   4.970   2.761 -0.3480  0.2961  0.1644
 7403TIP3    H143624   1.721   4.952   2.667 -0.4232 -1.7045  0.4929
 7403TIP3    H243625   1.637   5.029   2.767 -0.4465  0.3175 -1.0237
 7404TIP3   OH243626   5.762   2.958   2.466 -0.1438  0.1523  1.0501
 7404TIP3    H143627   5.750   3.049   2.437  0.9906  0.5077  1.6081
 7404TIP3    H243628   5.674   2.921   2.465 -0.3163  0.3832 -1.9449
 7405TIP3   OH243629   1.676   5.472  11.644 -0.5952 -0.4591  0.2680
 7405TIP3    H143630   1.681   5.509  11.556 -0.3318 -0.9500  0.0729
 7405TIP3    H243631   1.704   5.543  11.701 -2.0917  0.3180  0.0819
 7406TIP3   OH243632   4.798   0.395   4.159  0.0027  0.6429 -0.3569
 7406TIP3    H143633   4.872   0.335   4.160 -0.1622  0.3903  1.4217
 7406TIP3    H243634   4.732   0.352   4.214 -0.9630  1.4581 -0.8388
 7407TIP3   OH243635   5.726   1.536  13.099 -0.5332 -0.0662  0.1490
 7407TIP3    H143636   5.774   1.478  13.159  0.4918 -1.4023 -1.8649
 7407TIP3    H243637   5.635   1.524  13.124 -0.2884 -1.9360  0.3647
 7408TIP3   OH243638   6.167   0.999  11.603  0.3476 -0.0969  0.0706
 7408TIP3    H143639   6.206   0.912  11.597  0.0891 -0.2542  0.6453
 7408TIP3    H243640   6.073   0.984  11.593  0.3336  0.1563 -0.1876
 7409TIP3   OH243641   5.215   3.433   1.982  0.0914  0.0588 -0.0222
 7409TIP3    H143642   5.221   3.475   1.896  2.3550  0.5782  0.3290
 7409TIP3    H243643   5.195   3.504   2.042  2.0684  0.3908  0.3163
 7410TIP3   OH243644   6.616   3.618  11.971  1.0300  0.3384  0.7976
 7410TIP3    H143645   6.553   3.620  11.899  0.7303 -4.7063  0.5501
 7410TIP3    H243646   6.568   3.654  12.046 -0.8581 -0.0047 -0.1843
 7411TIP3   OH243647   4.284   0.884   4.696  0.1364 -0.5528  0.0277
 7411TIP3    H143648   4.363   0.852   4.741  0.5218 -0.5297 -0.6257
 7411TIP3    H243649   4.314   0.910   4.609 -0.5781 -0.4387 -0.1941
 7412TIP3   OH243650   6.661   1.712   0.298  0.1690  0.5342 -0.4392
 7412TIP3    H143651   6.618   1.630   0.275  0.4713  0.1618  0.2760
 7412TIP3    H243652   6.600   1.756   0.358  1.4074 -0.7585  1.9234
 7413TIP3   OH243653   4.104   3.619   4.674 -0.2407 -1.3088 -0.0783
 7413TIP3    H143654   4.030   3.593   4.619 -0.0879 -0.5896 -0.6488
 7413TIP3    H243655   4.064   3.645   4.757 -0.5164 -1.9955  0.0138
 7414TIP3   OH243656   6.579   4.408  12.579 -0.2499 -0.3353  0.0265
 7414TIP3    H143657   6.493   4.401  12.537 -0.2678  2.5362 -0.6186
 7414TIP3    H243658   6.640   4.381  12.510 -0.3768  3.0149 -1.6251
 7415TIP3   OH243659   0.305   4.067  16.423  0.2018  0.8583  0.2329
 7415TIP3    H143660   0.236   4.093  16.362  0.4107  0.0159 -0.3905
 7415TIP3    H243661   0.260   4.046  16.504 -0.4143 -0.5783 -0.4421
 7416TIP3   OH243662   3.416   3.454   1.222 -0.3625 -0.5224 -0.5631
 7416TIP3    H143663   3.500   3.436   1.180 -1.4103 -2.6163 -1.9371
 7416TIP3    H243664   3.353   3.455   1.150 -1.9272 -2.0835  0.7029
 7417TIP3   OH243665   4.962   2.619  13.263 -0.0209  0.1894  0.1552
 7417TIP3    H143666   4.926   2.662  13.185  0.3207  0.7474  0.2929
 7417TIP3    H243667   5.046   2.663  13.277  0.0708 -0.1367  0.6471
 7418TIP3   OH243668   4.476   0.391   3.588  0.1567 -0.0061  0.4150
 7418TIP3    H143669   4.405   0.456   3.588  0.3943  0.2784  1.5938
 7418TIP3    H243670   4.449   0.326   3.523 -1.3605 -0.0963  1.0999
 7419TIP3   OH243671   6.666   5.389   0.323 -0.3086 -0.3151  0.1711
 7419TIP3    H143672   6.577   5.398   0.288  0.2898 -0.7644 -1.6011
 7419TIP3    H243673   6.710   5.332   0.260  1.9284  1.8054 -0.2959
 7420TIP3   OH243674   4.523   2.224   6.754  0.0443 -0.4937  0.0690
 7420TIP3    H143675   4.438   2.264   6.772  0.0399  0.5155 -1.8779
 7420TIP3    H243676   4.501   2.138   6.719 -0.1513 -0.5113  0.2318
 7421TIP3   OH243677   0.559   6.434  12.015  0.3920 -0.3984 -0.1733
 7421TIP3    H143678   0.567   6.388  12.099 -0.3475 -1.1712 -0.5120
 7421TIP3    H243679   0.597   6.521  12.032 -2.4573  0.6307  1.8929
 7422TIP3   OH243680   5.082   0.095   0.579 -0.4153 -0.2551 -0.6447
 7422TIP3    H143681   5.096   0.051   0.663 -1.1283 -0.0076 -0.3909
 7422TIP3    H243682   5.081   0.189   0.601  0.7347 -0.1076 -1.1292
 7423TIP3   OH243683   2.452   4.840   1.377 -0.1415  0.0746 -0.2583
 7423TIP3    H143684   2.523   4.898   1.404  0.2570 -1.1094  1.3434
 7423TIP3    H243685   2.458   4.837   1.281  0.0714  2.3244 -0.3674
 7424TIP3   OH243686   5.853   4.798  13.568  0.2358 -0.1398 -0.5529
 7424TIP3    H143687   5.916   4.868  13.582  1.7548 -1.0787 -2.2932
 7424TIP3    H243688   5.769   4.844  13.557 -0.1343  1.0089  4.4861
 7425TIP3   OH243689   4.865   1.793   2.048  0.3705 -0.2123  0.0465
 7425TIP3    H143690   4.784   1.761   2.008  1.4938 -2.1344 -0.8041
 7425TIP3    H243691   4.893   1.865   1.992 -0.8340  0.6392  0.4896
 7426TIP3   OH243692   2.839   1.643   4.197  0.1513  0.4020 -0.3548
 7426TIP3    H143693   2.851   1.656   4.103  0.4996  0.2361 -0.3355
 7426TIP3    H243694   2.925   1.663   4.235  0.1099  0.1225 -0.1108
 7427TIP3   OH243695   5.311   4.561  11.144 -0.5420 -0.2221  0.0993
 7427TIP3    H143696   5.245   4.604  11.199 -0.8861 -1.7752  0.9704
 7427TIP3    H243697   5.298   4.600  11.057 -1.0792  1.1231  0.7437
 7428TIP3   OH243698   0.241   1.300  13.411  0.0770 -0.3292  0.2625
 7428TIP3    H143699   0.245   1.389  13.377  2.3168 -0.0221  1.1446
 7428TIP3    H243700   0.270   1.308  13.502 -1.2441 -1.7602  0.8537
 7429TIP3   OH243701   3.400   6.396   3.706 -0.2611  0.5546 -0.1798
 7429TIP3    H143702   3.454   6.425   3.633  1.6694  0.5160  1.1433
 7429TIP3    H243703   3.443   6.316   3.737 -0.8382  0.7410  1.1806
 7430TIP3   OH243704   4.254   1.631   1.686 -0.0534 -0.8765 -0.0385
 7430TIP3    H143705   4.242   1.638   1.591  1.2404 -1.2944 -0.2498
 7430TIP3    H243706   4.328   1.572   1.696  1.4081  1.0646  1.1656
 7431TIP3   OH243707   0.176   4.325  11.349  0.4058  0.2225  0.0913
 7431TIP3    H143708   0.087   4.292  11.347  0.1977  0.6544 -2.7619
 7431TIP3    H243709   0.167   4.420  11.345  0.9274  0.2423 -1.4321
 7432TIP3   OH243710   2.132   0.410   6.140 -0.1298 -0.0343 -0.7795
 7432TIP3    H143711   2.112   0.484   6.082  0.3292 -1.5588 -3.0137
 7432TIP3    H243712   2.214   0.374   6.106 -0.1840 -1.3970  0.4359
 7433TIP3   OH243713   1.962   2.240  13.907  0.2278  0.0694  0.1129
 7433TIP3    H143714   1.983   2.149  13.891  0.9948  0.2300  0.1683
 7433TIP3    H243715   1.936   2.275  13.822 -3.0888 -0.9344  0.5881
 7434TIP3   OH243716   6.213   2.503  11.571 -0.3917 -0.4280 -0.0973
 7434TIP3    H143717   6.301   2.508  11.532 -0.2113 -1.0629  0.2018
 7434TIP3    H243718   6.154   2.524  11.499 -0.0078 -0.2804 -0.3781
 7435TIP3   OH243719   6.086   4.736  13.826 -0.4028 -0.0603 -0.0882
 7435TIP3    H143720   6.036   4.816  13.805 -1.3623 -0.6378 -0.0631
 7435TIP3    H243721   6.033   4.691  13.891  0.9313  0.0677  1.1273
 7436TIP3   OH243722   2.737   5.757  13.971 -0.8770  0.0464 -0.0115
 7436TIP3    H143723   2.692   5.841  13.954 -1.1279  0.0549  0.6383
 7436TIP3    H243724   2.755   5.759  14.065 -1.8706 -1.1046  0.2229
 7437TIP3   OH243725   0.544   4.622  12.097  0.1550  0.1861  0.3734
 7437TIP3    H143726   0.611   4.556  12.083  0.0108  0.1315 -0.1002
 7437TIP3    H243727   0.556   4.651  12.187  0.6390 -0.0142  0.3751
 7438TIP3   OH243728   1.801   5.547   4.991 -0.0602 -0.3771  0.6931
 7438TIP3    H143729   1.838   5.629   4.959 -0.7839 -0.4810 -0.4673
 7438TIP3    H243730   1.806   5.553   5.086  1.7888  0.1341  0.6082
 7439TIP3   OH243731   2.916   2.718   6.521 -0.0158 -0.3762  0.2012
 7439TIP3    H143732   2.901   2.695   6.613 -1.3638 -1.6126 -0.2757
 7439TIP3    H243733   2.860   2.793   6.505  0.8440  0.3594  0.5813
 7440TIP3   OH243734   2.188   3.443  16.930 -0.4848  0.1245  0.2190
 7440TIP3    H143735   2.264   3.498  16.950 -1.1021  0.3493  2.1284
 7440TIP3    H243736   2.113   3.502  16.939 -1.0086 -0.5070  0.0703
 7441TIP3   OH243737   3.237   6.176   0.199 -0.1246  0.4740  0.7647
 7441TIP3    H143738   3.310   6.218   0.153 -0.8150  0.5123 -0.3432
 7441TIP3    H243739   3.210   6.105   0.140 -0.8956  0.3907  1.2085
 7442TIP3   OH243740   5.562   6.637  12.016 -0.3166 -0.0031 -0.5304
 7442TIP3    H143741   5.557   6.581  11.939 -0.7323  1.2494 -1.4311
 7442TIP3    H243742   5.619   6.589  12.077 -0.4060 -1.2430 -1.3956
 7443TIP3   OH243743   3.382   1.473   4.353  0.7237 -0.2654  0.0356
 7443TIP3    H143744   3.399   1.382   4.375  0.9602 -0.0613  0.7203
 7443TIP3    H243745   3.461   1.501   4.307  1.1507 -0.0794  0.8615
 7444TIP3   OH243746   4.145   3.399  12.077  0.0194 -0.0577 -0.1460
 7444TIP3    H143747   4.088   3.321  12.076  0.8446 -0.6656 -0.5858
 7444TIP3    H243748   4.084   3.472  12.091 -0.9139 -0.6590 -0.8872
 7445TIP3   OH243749   3.715   4.678  10.895  0.1267  0.1753 -0.2609
 7445TIP3    H143750   3.804   4.690  10.862  0.1364 -0.2008 -0.3854
 7445TIP3    H243751   3.658   4.704  10.822  0.1177  1.2432  0.1146
 7446TIP3   OH243752   3.000   5.465   3.402 -0.2290 -0.1204 -0.0150
 7446TIP3    H143753   3.081   5.417   3.420 -0.3888 -0.9296 -1.3409
 7446TIP3    H243754   3.017   5.553   3.436  1.3929 -0.1449 -0.6577
 7447TIP3   OH243755   6.277   5.875  11.804 -0.4971 -0.1771 -0.7492
 7447TIP3    H143756   6.318   5.791  11.784  0.1240 -0.1646  0.4002
 7447TIP3    H243757   6.298   5.930  11.729 -0.0801 -0.7567 -1.0654
 7448TIP3   OH243758   1.005   5.074   3.448 -0.0497  0.2545  0.3877
 7448TIP3    H143759   0.994   5.166   3.474  0.2825  0.3365  0.2434
 7448TIP3    H243760   0.957   5.067   3.365  0.8321  0.5698 -0.1566
 7449TIP3   OH243761   0.125   6.184  15.949  0.2079 -0.3329 -0.2700
 7449TIP3    H143762   0.106   6.212  15.859 -1.4275 -0.6154 -0.0271
 7449TIP3    H243763   0.046   6.139  15.978  1.0176 -0.9735  1.0401
 7450TIP3   OH243764   2.499   6.392   0.884  0.6272  0.4523  0.1408
 7450TIP3    H143765   2.421   6.358   0.840  0.2279 -0.8726  1.7863
 7450TIP3    H243766   2.554   6.423   0.812 -1.0222  0.6431 -1.1202
 7451TIP3   OH243767   6.521   0.593   5.981  0.1375  0.5843 -0.0050
 7451TIP3    H143768   6.503   0.555   6.067  1.7992 -0.4116 -0.0485
 7451TIP3    H243769   6.597   0.649   5.996  0.1314  0.7848 -0.7274
 7452TIP3   OH243770   2.674   1.113  12.170 -0.8031 -0.1072 -0.2187
 7452TIP3    H143771   2.604   1.104  12.106 -1.7148  1.6865  0.4433
 7452TIP3    H243772   2.737   1.045  12.147 -1.8305 -0.5132 -2.0308
 7453TIP3   OH243773   3.165   6.189  17.165  0.0845 -0.1223  0.1949
 7453TIP3    H143774   3.105   6.262  17.184 -1.2713 -0.6586 -1.7267
 7453TIP3    H243775   3.240   6.229  17.123 -0.3633  0.2555 -0.2609
 7454TIP3   OH243776   1.947   0.012   1.410 -0.2514  0.2587 -0.3213
 7454TIP3    H143777   1.908   0.028   1.324 -1.0151 -0.3121 -0.0905
 7454TIP3    H243778   1.937  -0.082   1.424  0.4147  0.2484  0.1306
 7455TIP3   OH243779   0.015   0.253  16.571 -0.2820 -0.0395  0.6009
 7455TIP3    H143780   0.041   0.247  16.663 -1.2862 -3.1965  0.8265
 7455TIP3    H243781  -0.072   0.294  16.573  0.3269  1.2809  0.8621
 7456TIP3   OH243782   4.806   4.785   4.423  0.5279  0.1227  0.0587
 7456TIP3    H143783   4.849   4.868   4.403 -1.0091  0.8474 -0.3558
 7456TIP3    H243784   4.834   4.725   4.353  1.0779  0.4961 -0.0423
 7457TIP3   OH243785   4.528   5.612  15.670  0.3023  0.1963 -0.3939
 7457TIP3    H143786   4.523   5.537  15.729 -0.1725 -1.0196 -1.9003
 7457TIP3    H243787   4.594   5.588  15.606 -1.6974 -0.1725 -2.4529
 7458TIP3   OH243788   1.817   6.063   1.429  0.4666 -0.5904 -0.2660
 7458TIP3    H143789   1.766   6.007   1.487  1.1839 -0.4449  0.5256
 7458TIP3    H243790   1.755   6.128   1.398 -0.4503 -1.9693 -1.4247
 7459TIP3   OH243791   0.632   2.284   2.880  0.2383  0.4191  0.1536
 7459TIP3    H143792   0.584   2.242   2.809  1.6219 -0.0920 -0.5095
 7459TIP3    H243793   0.723   2.258   2.867  0.5512  0.3886  2.0621
 7460TIP3   OH243794   5.180   2.813  15.464  0.0699 -0.0596  0.6518
 7460TIP3    H143795   5.218   2.863  15.391 -0.9691  0.7220  0.6250
 7460TIP3    H243796   5.251   2.807  15.528  0.9198 -0.5213 -0.2989
 7461TIP3   OH243797   5.398   0.309  13.152  0.3556  0.6310 -0.2340
 7461TIP3    H143798   5.411   0.403  13.165  0.7305  0.4185  1.1813
 7461TIP3    H243799   5.427   0.270  13.235  1.0743 -0.8074 -1.1336
 7462TIP3   OH243800   3.496   5.539   5.547  0.2361  0.0937  0.0616
 7462TIP3    H143801   3.507   5.558   5.641 -1.2470  0.8769  0.1068
 7462TIP3    H243802   3.404   5.516   5.538  0.6525 -1.2995 -1.0217
 7463TIP3   OH243803   2.677   6.208   2.715  0.0443  0.1021 -0.8659
 7463TIP3    H143804   2.678   6.182   2.807  0.5416  0.1376 -0.8597
 7463TIP3    H243805   2.700   6.128   2.667  1.7500  0.5404 -0.8356
 7464TIP3   OH243806   2.986   1.900   2.664 -0.6448  0.3669 -0.1574
 7464TIP3    H143807   2.934   1.978   2.682 -1.4206  0.3120 -1.9653
 7464TIP3    H243808   2.976   1.885   2.570  0.0382 -1.5162  0.0211
 7465TIP3   OH243809   1.823   4.245  17.088 -0.6856 -0.3006 -0.1229
 7465TIP3    H143810   1.759   4.315  17.095 -1.1363 -0.8502  2.0916
 7465TIP3    H243811   1.795   4.180  17.152  0.2305 -2.1096 -1.4522
 7466TIP3   OH243812   6.433   5.406  14.656  0.9055 -0.4483  0.7535
 7466TIP3    H143813   6.431   5.410  14.751  0.9535 -0.9726  0.7774
 7466TIP3    H243814   6.342   5.419  14.629  0.9863  0.3685  0.8354
 7467TIP3   OH243815   5.005   2.879  13.587 -0.3260  0.5265 -0.2727
 7467TIP3    H143816   5.001   2.965  13.629 -0.8006 -0.3641  1.6109
 7467TIP3    H243817   5.074   2.888  13.521  2.0424  1.4425  2.1631
 7468TIP3   OH243818   2.217   0.750   3.274  0.5529  0.2990 -0.5256
 7468TIP3    H143819   2.217   0.757   3.179 -0.2561  4.5274 -0.4049
 7468TIP3    H243820   2.124   0.738   3.297  0.8941 -2.4956 -0.1730
 7469TIP3   OH243821   5.119   5.244   5.612 -0.7404 -0.0964 -0.2502
 7469TIP3    H143822   5.061   5.306   5.568  1.3038  1.7839 -0.4467
 7469TIP3    H243823   5.197   5.240   5.558  0.1918 -0.9046  1.0846
 7470TIP3   OH243824   0.275   4.719   0.421  0.0505 -0.1356  0.0904
 7470TIP3    H143825   0.260   4.631   0.385 -0.6440 -0.3388  0.8353
 7470TIP3    H243826   0.299   4.704   0.512 -0.8287  0.4659  0.4413
 7471TIP3   OH243827   2.426   0.367   4.343 -0.5186 -0.4137  0.2285
 7471TIP3    H143828   2.405   0.372   4.250 -1.6903  0.4069  0.5091
 7471TIP3    H243829   2.386   0.286   4.373 -0.0504 -0.7312  0.0093
 7472TIP3   OH243830   4.250   3.860   2.053 -0.3589  0.0590  0.4317
 7472TIP3    H143831   4.329   3.910   2.035  0.4639 -0.9291  1.1719
 7472TIP3    H243832   4.277   3.796   2.119 -0.4797 -3.4624 -2.6028
 7473TIP3   OH243833   6.555   0.502  14.382  0.0199 -0.0879  0.3004
 7473TIP3    H143834   6.571   0.506  14.287 -0.1398 -2.1784  0.1490
 7473TIP3    H243835   6.641   0.517  14.421 -0.0764  1.7964 -0.0974
 7474TIP3   OH243836   4.917   6.017   5.422 -0.8136  0.2655  0.4943
 7474TIP3    H143837   4.933   5.925   5.400  0.1525  0.3333  0.8826
 7474TIP3    H243838   4.863   6.049   5.349  0.2010 -0.1819 -0.4884
 7475TIP3   OH243839   2.466   1.430   4.688  0.3643 -0.5482  0.1106
 7475TIP3    H143840   2.412   1.423   4.766 -0.1651 -1.4032 -0.3146
 7475TIP3    H243841   2.555   1.415   4.719  0.3847  0.8850  0.8177
 7476TIP3   OH243842   3.008   6.037   5.284  0.0811 -0.0581  0.6311
 7476TIP3    H143843   2.998   5.953   5.329  0.8532 -0.6432 -0.2503
 7476TIP3    H243844   3.100   6.062   5.299 -0.3074  0.9772  1.4431
 7477TIP3   OH243845   3.637   5.147  16.274  0.0216 -0.3992 -0.0908
 7477TIP3    H143846   3.617   5.172  16.364  2.5546 -2.0913  1.0429
 7477TIP3    H243847   3.641   5.052  16.275  1.8239 -0.3901 -1.5678
 7478TIP3   OH243848   2.250   1.328  14.411  0.3089 -0.2533 -0.7706
 7478TIP3    H143849   2.173   1.274  14.393  0.5768 -0.7431 -0.4989
 7478TIP3    H243850   2.249   1.339  14.507  0.4136 -0.0173 -0.7966
 7479TIP3   OH243851   1.046   3.420  15.090  0.8530 -0.0715 -0.1002
 7479TIP3    H143852   1.008   3.343  15.048 -0.1822 -0.9358  2.2557
 7479TIP3    H243853   1.117   3.446  15.031 -0.8283 -0.7861 -2.6571
 7480TIP3   OH243854   1.115   4.519  12.753 -0.4771  0.3143  0.0762
 7480TIP3    H143855   1.143   4.474  12.674  0.1616  0.1442  0.3941
 7480TIP3    H243856   1.022   4.496  12.762 -0.2826 -0.5522 -0.0211
 7481TIP3   OH243857   1.094   5.488   0.407  0.3093  0.3441  0.3244
 7481TIP3    H143858   1.047   5.519   0.329 -0.3847  0.4407  0.7668
 7481TIP3    H243859   1.025   5.474   0.472  0.7990 -0.4704  0.6831
 7482TIP3   OH243860   1.043   2.620   5.593  0.3207  0.4162 -0.0833
 7482TIP3    H143861   1.032   2.664   5.678 -2.7874  0.5162 -0.4202
 7482TIP3    H243862   1.013   2.530   5.609  0.9878  0.0591 -0.7881
 7483TIP3   OH243863   3.396   3.540   1.990  0.2332 -0.6899  0.2223
 7483TIP3    H143864   3.448   3.608   1.947  0.4579 -1.1917 -0.3184
 7483TIP3    H243865   3.334   3.588   2.044  1.1583 -0.0789  0.7647
 7484TIP3   OH243866   5.889   5.012  11.063  0.3897 -0.3311 -0.2204
 7484TIP3    H143867   5.829   5.028  11.136 -0.4331  0.3443 -1.0287
 7484TIP3    H243868   5.866   5.078  10.997  1.4803 -0.5810 -0.8790
 7485TIP3   OH243869   6.145   3.271  15.494  0.1670  0.0757 -0.3743
 7485TIP3    H143870   6.097   3.354  15.499 -1.2154 -0.6986 -0.1236
 7485TIP3    H243871   6.117   3.232  15.411  1.3212  0.1434 -0.8141
 7486TIP3   OH243872   5.672   6.610  14.951  0.5242  0.1404  0.2821
 7486TIP3    H143873   5.632   6.523  14.946  0.8893  0.0028 -0.3241
 7486TIP3    H243874   5.600   6.671  14.937  0.6772 -0.1255 -1.9589
 7487TIP3   OH243875   0.975   1.236   5.802  0.4461 -0.1083  0.1649
 7487TIP3    H143876   0.909   1.179   5.762  0.4613 -0.2885  0.3873
 7487TIP3    H243877   0.997   1.299   5.734 -1.6242  1.3974  0.8094
 7488TIP3   OH243878   4.236   1.646  13.312 -0.4343 -0.3339  0.2001
 7488TIP3    H143879   4.141   1.661  13.316 -0.9399 -2.8020 -1.0010
 7488TIP3    H243880   4.246   1.561  13.270  2.3009 -0.9645  1.8656
 7489TIP3   OH243881   2.075   3.908   6.398  0.0741 -0.4969  0.0191
 7489TIP3    H143882   2.151   3.951   6.359 -0.5701  1.0021  0.3336
 7489TIP3    H243883   2.023   3.979   6.435 -1.8000 -1.3927 -0.7101
 7490TIP3   OH243884   0.278   4.915   4.245 -0.1927 -0.5353  0.6988
 7490TIP3    H143885   0.313   4.935   4.332  0.5441 -2.7567  0.9971
 7490TIP3    H243886   0.313   4.828   4.225 -0.3691 -0.1073 -1.8289
 7491TIP3   OH243887   2.160   4.378  15.800 -0.2770 -0.8412 -0.3200
 7491TIP3    H143888   2.206   4.320  15.739  0.8124 -1.0625  0.6690
 7491TIP3    H243889   2.067   4.359  15.787 -0.0541 -1.0756 -1.6947
 7492TIP3   OH243890   2.113   3.875  12.378  0.3355 -0.1759 -0.1595
 7492TIP3    H143891   2.208   3.864  12.375  0.4806  0.8745  0.1649
 7492TIP3    H243892   2.097   3.960  12.337 -0.5181 -0.5323 -0.6134
 7493TIP3   OH243893   6.467   4.536  16.628 -0.1194 -0.1753  0.3954
 7493TIP3    H143894   6.536   4.515  16.565 -0.2784 -0.2582  0.2479
 7493TIP3    H243895   6.388   4.496  16.592 -0.5107  0.9739 -0.0855
 7494TIP3   OH243896   5.292   6.385  14.230  0.7547  0.3931  0.6345
 7494TIP3    H143897   5.239   6.328  14.286 -0.9541  0.9313 -0.3679
 7494TIP3    H243898   5.272   6.474  14.260  0.1598  0.6641 -0.4978
 7495TIP3   OH243899   0.892   5.317   3.434 -0.0439  0.3825 -0.1394
 7495TIP3    H143900   0.817   5.293   3.380 -1.0140 -1.5291  1.8639
 7495TIP3    H243901   0.855   5.333   3.521  1.4598  3.1519  0.1116
 7496TIP3   OH243902   2.146   1.604   1.554  0.4880 -0.6320 -0.5556
 7496TIP3    H143903   2.192   1.687   1.538  1.5937 -1.2057 -0.3890
 7496TIP3    H243904   2.053   1.629   1.554  0.8314  0.8092  0.6775
 7497TIP3   OH243905   5.936   2.685   1.015 -0.0456  0.2697  0.2357
 7497TIP3    H143906   5.872   2.719   1.077 -1.4445 -0.1270 -0.9482
 7497TIP3    H243907   5.893   2.689   0.930  1.2574 -0.6334 -0.5138
 7498TIP3   OH243908   6.175   4.836   4.732 -0.2899 -0.1613 -0.1802
 7498TIP3    H143909   6.082   4.826   4.755 -0.2490 -0.0901  0.0155
 7498TIP3    H243910   6.215   4.753   4.757 -0.2449 -0.0826  0.0145
 7499TIP3   OH243911   0.446   0.423   1.905 -0.4136 -0.1562 -0.1744
 7499TIP3    H143912   0.380   0.459   1.845  0.3725  2.2561  0.2666
 7499TIP3    H243913   0.483   0.501   1.948  2.8966 -1.3722 -0.5889
 7500TIP3   OH243914   1.783   0.179   3.465  0.4770 -0.2273  0.3956
 7500TIP3    H143915   1.689   0.189   3.481  0.0178  0.6453 -2.3836
 7500TIP3    H243916   1.818   0.148   3.549 -2.2987 -0.8062  1.4486
 7501TIP3   OH243917   5.092   1.330  11.592  0.2380  0.3355 -0.4251
 7501TIP3    H143918   5.106   1.372  11.507  0.3293  1.0525 -0.0647
 7501TIP3    H243919   5.136   1.387  11.654 -0.2025  0.0491  0.1569
 7502TIP3   OH243920   0.217   4.443   0.328  0.0598  0.2185  0.1052
 7502TIP3    H143921   0.250   4.428   0.240 -0.2718 -1.0106  0.1771
 7502TIP3    H243922   0.293   4.433   0.385  0.0081 -0.3389  0.0756
 7503TIP3   OH243923   2.899   0.629  15.682  0.1059 -0.2785 -0.4600
 7503TIP3    H143924   2.836   0.681  15.632  1.3697  0.5961 -1.2018
 7503TIP3    H243925   2.890   0.541  15.647 -1.3613 -0.3822  0.1098
 7504TIP3   OH243926   5.102   1.390   4.954  0.7404 -0.9263 -0.4743
 7504TIP3    H143927   5.094   1.485   4.944 -0.3302 -0.9416  0.1371
 7504TIP3    H243928   5.143   1.361   4.872  1.9872  0.1607 -0.2781
 7505TIP3   OH243929   4.866   5.908   4.454  0.0229 -0.4248  0.2076
 7505TIP3    H143930   4.822   5.823   4.451 -0.1409 -0.3281 -0.1604
 7505TIP3    H243931   4.858   5.943   4.365 -2.3969  1.2304  0.9689
 7506TIP3   OH243932   3.338   4.223  12.138  0.8179  0.4815 -0.1544
 7506TIP3    H143933   3.329   4.163  12.063 -0.5221 -0.4419  0.6952
 7506TIP3    H243934   3.423   4.202  12.175  1.1896  0.4501 -1.0121
 7507TIP3   OH243935   1.678   4.440  15.218 -0.4725  0.5352  0.2189
 7507TIP3    H143936   1.644   4.371  15.275  1.2576 -1.3694 -0.9226
 7507TIP3    H243937   1.772   4.443  15.235 -0.4406  2.4161 -0.0123
 7508TIP3   OH243938   1.421   6.434   6.269 -0.5604  0.2305  0.6187
 7508TIP3    H143939   1.443   6.353   6.223 -2.3124 -0.4834  0.9338
 7508TIP3    H243940   1.330   6.451   6.245 -0.6592  1.3413  1.6655
 7509TIP3   OH243941   1.232   2.955   1.884 -0.2786 -0.3512 -0.2896
 7509TIP3    H143942   1.150   2.993   1.917  0.9068  0.3338  2.1756
 7509TIP3    H243943   1.235   2.868   1.923  0.2677 -0.2787 -0.1617
 7510TIP3   OH243944   3.705   2.522   4.889  0.2873 -0.2387  0.1327
 7510TIP3    H143945   3.654   2.506   4.809  0.3544 -0.7560  0.1880
 7510TIP3    H243946   3.788   2.557   4.858  0.3273 -0.4719 -0.0295
 7511TIP3   OH243947   4.852   6.616  15.403  0.3738  0.2879 -0.1124
 7511TIP3    H143948   4.836   6.666  15.323  2.2947  0.4386 -0.4480
 7511TIP3    H243949   4.886   6.680  15.466 -1.5260  0.2667  1.0398
 7512TIP3   OH243950   3.460   0.010  12.950  0.2989  0.4310 -0.5955
 7512TIP3    H143951   3.526   0.071  12.918  0.4824  0.3443 -0.3929
 7512TIP3    H243952   3.457  -0.059  12.884  2.3194 -0.9366  0.5873
 7513TIP3   OH243953   4.560   4.922   5.495 -0.2834 -0.1021 -0.0679
 7513TIP3    H143954   4.490   4.909   5.559 -0.0764 -0.5849  0.0686
 7513TIP3    H243955   4.596   4.834   5.482  2.6219  0.5635  2.4729
 7514TIP3   OH243956   1.205   4.663  11.903 -0.0692  0.3205  0.1717
 7514TIP3    H143957   1.218   4.747  11.860 -0.5690 -0.3107 -1.2831
 7514TIP3    H243958   1.280   4.654  11.962  0.8244  1.0855 -0.8187
 7515TIP3   OH243959   2.618   2.486   4.958 -0.0514 -0.1260 -0.4857
 7515TIP3    H143960   2.670   2.414   4.920 -1.4153 -1.0351 -0.7154
 7515TIP3    H243961   2.588   2.536   4.882  0.7479  0.6080 -0.3344
 7516TIP3   OH243962   0.241   5.424   0.258  0.6339  0.2492  0.0055
 7516TIP3    H143963   0.284   5.478   0.191 -0.0536 -0.2132 -0.8372
 7516TIP3    H243964   0.299   5.429   0.334  1.0291  1.4388 -0.3542
 7517TIP3   OH243965   4.399   0.498   0.869 -0.2024 -0.2828 -0.0008
 7517TIP3    H143966   4.313   0.498   0.911  0.3579 -0.1408  1.1881
 7517TIP3    H243967   4.456   0.454   0.931  0.3810 -1.4091 -1.2804
 7518TIP3   OH243968   0.463   2.427   2.033  0.1525 -0.2824  0.0441
 7518TIP3    H143969   0.517   2.371   2.089  1.2028  0.3196 -0.3291
 7518TIP3    H243970   0.522   2.453   1.963 -0.3058  1.3062  0.2229
 7519TIP3   OH243971   4.742   2.752   1.096  0.1681  0.5443  0.1090
 7519TIP3    H143972   4.759   2.659   1.108 -0.0986  0.5490  0.5473
 7519TIP3    H243973   4.817   2.795   1.139 -0.3606  0.5462  1.0629
 7520TIP3   OH243974   1.404   3.744  14.137 -0.0299  0.0953 -0.4955
 7520TIP3    H143975   1.381   3.663  14.183  0.6902 -1.2317 -2.3460
 7520TIP3    H243976   1.438   3.802  14.205 -2.2247 -0.4468  1.1783
 7521TIP3   OH243977   4.418   0.216  15.694  0.7106  0.4247  0.1095
 7521TIP3    H143978   4.435   0.202  15.787 -0.6774  0.6137  0.4011
 7521TIP3    H243979   4.456   0.302  15.675  4.0247 -0.9551 -0.3330
 7522TIP3   OH243980   3.073   2.026  12.250  0.0230 -0.2260  0.3467
 7522TIP3    H143981   3.144   2.040  12.313  0.6705 -0.4954 -0.3071
 7522TIP3    H243982   3.089   1.938  12.216  0.2804  0.3073 -0.9475
 7523TIP3   OH243983   6.585   4.707   6.898  0.3961  0.9321 -0.7414
 7523TIP3    H143984   6.520   4.716   6.829 -0.8702  0.9754  0.4077
 7523TIP3    H243985   6.538   4.666   6.971  2.3012 -1.4923 -0.7280
 7524TIP3   OH243986   2.975   5.536  16.877  0.3963  0.2954 -0.0109
 7524TIP3    H143987   2.974   5.498  16.789 -2.0642  1.0935 -0.4134
 7524TIP3    H243988   3.040   5.606  16.872 -0.6690  1.2426 -1.6728
 7525TIP3   OH243989   3.683   2.649  15.706 -0.6790  0.0279  0.5581
 7525TIP3    H143990   3.731   2.720  15.663 -2.6918  1.3610  0.4084
 7525TIP3    H243991   3.659   2.590  15.634 -0.2715 -0.0634  0.4890
 7526TIP3   OH243992   4.813   4.879  12.458  0.1214 -0.4549 -0.1643
 7526TIP3    H143993   4.791   4.832  12.378 -0.8118  0.5492 -0.5206
 7526TIP3    H243994   4.731   4.881  12.507  0.1571  0.7449 -0.1393
 7527TIP3   OH243995   4.441   4.544   3.527  0.1150 -0.3959  0.3843
 7527TIP3    H143996   4.387   4.549   3.448  0.9937  1.6192 -0.1709
 7527TIP3    H243997   4.521   4.500   3.498  0.0878 -0.4337  0.3663
 7528TIP3   OH243998   5.025   3.173   1.107  0.0194 -0.1382 -0.1113
 7528TIP3    H143999   5.120   3.161   1.110  0.3239  0.9865 -2.8442
 7528TIP3    H244000   5.012   3.268   1.106 -1.2821 -0.2270  1.6267
 7529TIP3   OH244001   6.145   5.302   2.535 -0.3074  0.0964 -0.5362
 7529TIP3    H144002   6.233   5.273   2.558 -0.3970  0.8542  0.8743
 7529TIP3    H244003   6.090   5.272   2.607 -1.0586  0.3261 -1.0044
 7530TIP3   OH244004   6.201   4.334   2.090 -0.4933 -0.1166 -0.1271
 7530TIP3    H144005   6.231   4.401   2.030 -0.2561 -1.0813 -1.1241
 7530TIP3    H244006   6.131   4.289   2.042  0.5152 -1.6864 -0.2057
 7531TIP3   OH244007   0.534   0.592   0.973 -0.4826 -0.5132 -0.3287
 7531TIP3    H144008   0.484   0.612   1.052 -0.7795 -0.0640 -0.6285
 7531TIP3    H244009   0.559   0.500   0.983 -0.5549 -0.4671  0.2680
 7532TIP3   OH244010   2.125   5.855   0.188 -0.4993 -0.5680 -0.0701
 7532TIP3    H144011   2.220   5.858   0.201 -0.6190 -1.3834  1.1222
 7532TIP3    H244012   2.098   5.947   0.191  0.4821 -0.1084 -2.6806
 7533TIP3   OH244013   5.899   4.008   5.797 -0.3613 -0.1587 -0.2135
 7533TIP3    H144014   5.830   3.959   5.752  0.7044 -0.2055 -1.8709
 7533TIP3    H244015   5.914   3.960   5.879 -2.5286  0.0774  0.3854
 7534TIP3   OH244016   3.956   5.237   2.423  0.1771 -0.0680 -0.0784
 7534TIP3    H144017   3.878   5.182   2.417 -1.3112  2.0594 -1.5356
 7534TIP3    H244018   3.969   5.271   2.335  1.6125  1.1335  0.5486
 7535TIP3   OH244019   1.186   2.776   2.792  0.5340  0.6739 -0.2889
 7535TIP3    H144020   1.091   2.764   2.787  0.6888 -1.1354  0.3979
 7535TIP3    H244021   1.202   2.861   2.751 -1.5101  1.6750  0.8989
 7536TIP3   OH244022   3.094   5.526  16.110  0.2577  0.3900  0.0815
 7536TIP3    H144023   3.033   5.531  16.037  0.2922  3.2111  0.1094
 7536TIP3    H244024   3.149   5.450  16.092 -2.4352 -1.5342 -0.5545
 7537TIP3   OH244025   2.923   2.049   2.963 -0.0169  0.1698 -0.0283
 7537TIP3    H144026   2.939   2.092   3.047 -0.7772  1.3478 -0.4647
 7537TIP3    H244027   2.834   2.075   2.939 -0.3109 -1.2549 -0.5682
 7538TIP3   OH244028   4.391   0.090   4.177 -0.0200  0.3002  0.1717
 7538TIP3    H144029   4.310   0.116   4.221  0.2015 -1.0274  1.4492
 7538TIP3    H244030   4.393  -0.005   4.186  2.4566  0.4080  1.6166
 7539TIP3   OH244031   6.048   3.461  15.819  0.3645  0.3703 -0.0504
 7539TIP3    H144032   6.142   3.446  15.806  0.8062 -0.5636  3.3281
 7539TIP3    H244033   6.044   3.545  15.865 -0.5991  0.9530 -1.1450
 7540TIP3   OH244034   5.811   1.506   1.973  0.5150 -0.1310  0.0339
 7540TIP3    H144035   5.827   1.585   1.921  1.1838 -0.3876 -0.1729
 7540TIP3    H244036   5.897   1.463   1.976  0.2257 -0.6854  0.4088
 7541TIP3   OH244037   1.510   1.399  14.310  0.1623  0.0014 -0.4794
 7541TIP3    H144038   1.586   1.456  14.305 -0.2022  0.4070 -1.6485
 7541TIP3    H244039   1.514   1.346  14.231 -0.4294 -0.4070 -0.2425
 7542TIP3   OH244040   3.453   6.420   4.527 -0.3393 -0.2639  0.2482
 7542TIP3    H144041   3.400   6.477   4.583 -1.6063 -1.1529  0.0276
 7542TIP3    H244042   3.388   6.362   4.485  0.9122 -2.3578  1.0555
 7543TIP3   OH244043   2.812   6.602  15.752  0.4646  0.2488  0.1542
 7543TIP3    H144044   2.820   6.636  15.841  1.5122  0.7577 -0.1274
 7543TIP3    H244045   2.766   6.519  15.762  0.2443  0.4781  1.1243
 7544TIP3   OH244046   3.814   2.652  11.326 -0.0089  0.7341 -0.4601
 7544TIP3    H144047   3.828   2.569  11.282 -0.3378  0.7945 -0.6814
 7544TIP3    H244048   3.746   2.696  11.275 -0.0603  1.0055 -0.1672
 7545TIP3   OH244049   2.568   2.690  15.201 -0.8651 -0.1284  0.4152
 7545TIP3    H144050   2.550   2.723  15.289 -0.8587 -0.0430  0.3841
 7545TIP3    H244051   2.638   2.747  15.168 -0.6134 -0.3879  0.4942
 7546TIP3   OH244052   6.571   6.685  14.732 -0.0582  0.4162 -0.1985
 7546TIP3    H144053   6.519   6.718  14.658 -1.1807  0.2902  0.5055
 7546TIP3    H244054   6.549   6.592  14.736  0.1383  0.3841  0.1747
 7547TIP3   OH244055   0.627   3.559  14.045  0.1447  0.2768 -0.4827
 7547TIP3    H144056   0.576   3.596  13.972 -0.5157  0.2298 -0.0572
 7547TIP3    H244057   0.605   3.466  14.044 -1.2880  0.5552  0.8635
 7548TIP3   OH244058   2.152   0.288   6.378 -0.6471  0.1397 -0.4671
 7548TIP3    H144059   2.063   0.278   6.409 -0.0290 -0.1588  1.3161
 7548TIP3    H244060   2.143   0.325   6.290 -2.5783 -1.9543 -1.2653
 7549TIP3   OH244061   4.597   5.399   2.797 -0.2631  0.5061 -0.0094
 7549TIP3    H144062   4.663   5.384   2.730  0.1012 -3.0455  0.9355
 7549TIP3    H244063   4.514   5.402   2.749  0.1967  0.3525 -0.8225
 7550TIP3   OH244064   0.388   1.637  16.059  0.9004  0.9086 -0.0147
 7550TIP3    H144065   0.433   1.660  16.140  0.5667  0.9682  0.1582
 7550TIP3    H244066   0.308   1.691  16.060  1.0293  1.1192 -0.5192
 7551TIP3   OH244067   5.635   0.306  14.981  0.1320 -0.3176 -0.1769
 7551TIP3    H144068   5.649   0.248  15.056  1.3390 -0.9815 -0.8737
 7551TIP3    H244069   5.695   0.273  14.914 -0.1460  0.9100 -1.0722
 7552TIP3   OH244070   1.417   0.939   5.614  0.1209  0.6346  0.0497
 7552TIP3    H144071   1.506   0.910   5.592 -0.0168 -0.1502  0.5250
 7552TIP3    H244072   1.428   0.995   5.691  0.1501  0.1622  0.3887
 7553TIP3   OH244073   3.311   4.474   0.716 -0.6707 -0.3438 -0.3724
 7553TIP3    H144074   3.242   4.506   0.775  0.1399  0.7451  0.0073
 7553TIP3    H244075   3.358   4.408   0.768  0.6390  1.2863  0.5931
 7554TIP3   OH244076   4.524   0.295   1.817 -0.0636 -0.3734 -0.3010
 7554TIP3    H144077   4.594   0.230   1.817 -0.6112 -0.9785 -1.4937
 7554TIP3    H244078   4.504   0.310   1.725  0.1198  1.5865 -0.0680
 7555TIP3   OH244079   1.133   5.048  16.675 -0.0230 -0.6026 -0.0992
 7555TIP3    H144080   1.039   5.027  16.672 -0.3275  0.5864  0.3360
 7555TIP3    H244081   1.176   4.974  16.633 -1.3658  0.1166 -3.0043
 7556TIP3   OH244082   3.730   4.794  12.624  0.3602 -0.3348  0.4474
 7556TIP3    H144083   3.792   4.729  12.591  0.9215 -0.4645  1.6861
 7556TIP3    H244084   3.730   4.863  12.558  2.7207  0.2090  0.9268
 7557TIP3   OH244085   5.566   2.273  16.095 -0.4299  0.0590  0.1150
 7557TIP3    H144086   5.528   2.189  16.122  0.4155 -0.4901 -0.3704
 7557TIP3    H244087   5.641   2.249  16.041 -0.1404  1.1360  0.0211
 7558TIP3   OH244088   3.901   4.630   1.327 -0.1220 -0.1549 -0.3187
 7558TIP3    H144089   3.906   4.696   1.396  0.1528  0.0292 -0.5171
 7558TIP3    H244090   3.825   4.576   1.352  0.4916 -0.6183  0.5920
 7559TIP3   OH244091   3.986   5.676   0.640  0.3912 -0.2359 -0.9140
 7559TIP3    H144092   3.989   5.594   0.590  0.4117  0.2588 -1.7459
 7559TIP3    H244093   3.994   5.745   0.574 -2.3442  0.5465 -0.5756
 7560TIP3   OH244094   3.954   4.018  16.534 -0.0794  0.1498 -0.0227
 7560TIP3    H144095   3.926   4.047  16.447 -0.3615  0.7887  0.2728
 7560TIP3    H244096   4.013   3.945  16.517 -0.1985  0.2141 -0.7491
 7561TIP3   OH244097   5.430   4.801  12.308  0.5887  0.5167  0.0887
 7561TIP3    H144098   5.401   4.732  12.249 -0.0770  0.2983  0.6618
 7561TIP3    H244099   5.493   4.758  12.366  2.2964  1.0379 -1.2900
 7562TIP3   OH244100   4.928   0.562  12.416  0.5008  0.4058 -0.3034
 7562TIP3    H144101   5.014   0.559  12.375  0.5825  0.1128 -0.1145
 7562TIP3    H244102   4.869   0.591  12.346  0.4213 -1.3321 -1.0170
 7563TIP3   OH244103   4.559   1.261   0.251  0.1173 -0.5100  0.3538
 7563TIP3    H144104   4.556   1.350   0.216 -0.3300 -0.5343  0.3200
 7563TIP3    H244105   4.643   1.255   0.295  0.8082 -0.5570 -0.9361
 7564TIP3   OH244106   6.464   0.044   5.056  0.4640  0.1713  0.4923
 7564TIP3    H144107   6.557   0.045   5.081  0.6634 -0.7375 -0.1869
 7564TIP3    H244108   6.419   0.009   5.132  0.4799  2.0390  1.4096
 7565TIP3   OH244109   3.200   3.503  16.162  0.0045  0.2939 -0.2286
 7565TIP3    H144110   3.249   3.522  16.241 -0.3776 -0.7498  0.2838
 7565TIP3    H244111   3.207   3.408  16.151 -2.4668 -0.0323  0.2819
 7566TIP3   OH244112   4.807   6.028   0.578  0.2050  0.0776  0.0372
 7566TIP3    H144113   4.790   6.051   0.670  3.1211 -0.6098  0.8274
 7566TIP3    H244114   4.867   6.096   0.548  2.6226 -1.9769 -0.0161
 7567TIP3   OH244115   2.674   4.344  17.197  0.2461 -1.2441  0.3966
 7567TIP3    H144116   2.730   4.389  17.260  1.2327  0.8038 -1.7698
 7567TIP3    H244117   2.637   4.415  17.143 -1.8397 -2.7749 -0.2991
 7568TIP3   OH244118   0.366   1.715  12.037 -0.2941 -0.2572  0.6971
 7568TIP3    H144119   0.417   1.687  12.113  0.1006 -0.5504  0.3261
 7568TIP3    H244120   0.348   1.808  12.053 -0.6796 -0.4454  1.4078
 7569TIP3   OH244121   0.237   5.835   2.487 -0.3146  0.5558  0.3595
 7569TIP3    H144122   0.202   5.747   2.500 -0.0888  0.5486  0.9322
 7569TIP3    H244123   0.282   5.831   2.403 -0.2392  0.1048  0.4204
 7570TIP3   OH244124   0.281   5.014  17.228  0.6363 -0.4665 -0.4053
 7570TIP3    H144125   0.352   5.045  17.283  0.4759 -0.2146 -0.3377
 7570TIP3    H244126   0.261   5.087  17.170  1.1185 -0.8927 -1.1158
 7571TIP3   OH244127   6.741   3.975   1.046 -0.4976  0.3973 -0.6535
 7571TIP3    H144128   6.658   3.962   1.000 -0.6912  0.4069 -0.3092
 7571TIP3    H244129   6.749   4.070   1.057 -1.5886  0.3153  1.3708
 7572TIP3   OH244130   5.045   5.772   1.770 -0.4112 -0.8790  0.2915
 7572TIP3    H144131   5.134   5.768   1.806 -0.6043 -2.4998  0.6582
 7572TIP3    H244132   4.995   5.823   1.833  0.5278  1.2346 -0.5860
 7573TIP3   OH244133   0.250   0.403   5.206 -0.4440  0.5181 -0.4819
 7573TIP3    H144134   0.229   0.339   5.138 -2.9627 -2.9793  3.1602
 7573TIP3    H244135   0.342   0.387   5.227 -0.7951 -1.4422 -0.2447
 7574TIP3   OH244136   3.300   2.506  16.532  0.6134 -0.1851  0.3771
 7574TIP3    H144137   3.359   2.464  16.594  1.8039 -0.2385 -0.7560
 7574TIP3    H244138   3.355   2.525  16.456 -0.1435  2.4246  0.4135
 7575TIP3   OH244139   1.555   2.187   5.653  0.2531 -0.0084 -0.1714
 7575TIP3    H144140   1.467   2.163   5.680  0.5211 -0.1638  0.6020
 7575TIP3    H244141   1.573   2.270   5.699  0.8352 -0.4413  0.4185
 7576TIP3   OH244142   5.837   2.726   1.735 -0.4306  0.7870  0.1555
 7576TIP3    H144143   5.912   2.673   1.708  0.3710  1.6680  0.5967
 7576TIP3    H244144   5.790   2.670   1.796 -1.2550 -0.5238 -1.6023
 7577TIP3   OH244145   6.240   3.212   1.913  0.1405  0.3372 -0.0931
 7577TIP3    H144146   6.267   3.157   1.986  0.7940 -0.6869 -1.0765
 7577TIP3    H244147   6.146   3.196   1.905 -0.4497  2.2994  2.0034
 7578TIP3   OH244148   0.415   1.481   2.866 -0.0739  0.5425  0.1075
 7578TIP3    H144149   0.378   1.411   2.921  2.3146  0.6158  1.9788
 7578TIP3    H244150   0.422   1.556   2.925  2.4671  0.6698 -0.2484
 7579TIP3   OH244151   3.296   1.607   5.313  0.2287  0.4829 -0.3288
 7579TIP3    H144152   3.292   1.671   5.242  0.6891 -0.9123 -1.6645
 7579TIP3    H244153   3.380   1.623   5.355  0.4347  0.6411 -0.7888
 7580TIP3   OH244154   6.689   0.659   6.678 -0.3539  0.3010 -0.0347
 7580TIP3    H144155   6.624   0.679   6.611  0.3270 -2.7057 -1.8062
 7580TIP3    H244156   6.639   0.622   6.751 -0.8578  0.8871 -0.0752
 7581TIP3   OH244157   2.957   4.647   3.272 -0.1676  0.3660 -0.2506
 7581TIP3    H144158   2.994   4.716   3.217 -2.2760  1.3873 -0.4712
 7581TIP3    H244159   2.869   4.633   3.238 -0.1940 -1.6621  0.5141
 7582TIP3   OH244160   6.210   6.074   1.239  0.2028 -0.5699 -0.3473
 7582TIP3    H144161   6.303   6.056   1.256  0.7359  1.4439 -0.8501
 7582TIP3    H244162   6.180   5.998   1.189  1.8595 -0.8305 -1.0299
 7583TIP3   OH244163   1.479   2.360  14.507 -0.4976  0.3330  0.0383
 7583TIP3    H144164   1.472   2.344  14.413 -2.4166  1.1709 -0.0131
 7583TIP3    H244165   1.552   2.306  14.536 -0.9377 -1.2528 -1.6463
 7584TIP3   OH244166   3.312   4.417   3.090  0.4496  0.1329 -0.3333
 7584TIP3    H144167   3.270   4.460   3.165  1.8699 -1.8464  1.7197
 7584TIP3    H244168   3.400   4.455   3.086  2.2140 -3.1765  2.3522
 7585TIP3   OH244169   1.999   4.834  14.482  0.2857  0.2198 -0.3925
 7585TIP3    H144170   1.946   4.822  14.403 -3.7352 -1.6053  2.2428
 7585TIP3    H244171   1.972   4.919  14.516  1.5290  0.7127 -0.5875
 7586TIP3   OH244172   4.286   0.797  13.115 -0.1214  0.0685  0.2110
 7586TIP3    H144173   4.323   0.740  13.183  1.3326  0.2901 -0.3687
 7586TIP3    H244174   4.232   0.738  13.062  0.5064 -0.5483  0.2494
 7587TIP3   OH244175   4.178   0.099   0.633 -0.7131  0.1327  0.0385
 7587TIP3    H144176   4.084   0.085   0.647 -0.6295 -1.2532 -0.6080
 7587TIP3    H244177   4.188   0.194   0.630 -1.8136  0.3496  1.8684
 7588TIP3   OH244178   4.417   1.993  15.741  0.0763 -0.6003  0.3710
 7588TIP3    H144179   4.501   2.039  15.735  0.2035 -0.4258  2.4978
 7588TIP3    H244180   4.436   1.905  15.709  0.9272 -0.3933  0.2651
 7589TIP3   OH244181   5.904   1.314  12.458 -0.2071 -0.6388 -0.0152
 7589TIP3    H144182   5.918   1.351  12.545 -0.5129 -0.2805 -0.1127
 7589TIP3    H244183   5.878   1.389  12.404 -0.9402 -1.0037 -0.1930
 7590TIP3   OH244184   0.966   0.214   3.933 -0.0964 -0.6478  0.6217
 7590TIP3    H144185   1.049   0.196   3.889 -0.1563  3.6754 -1.8348
 7590TIP3    H244186   0.982   0.294   3.983 -2.6974  0.2833  0.1154
 7591TIP3   OH244187   2.671   3.086   3.443  0.8199 -0.1340  0.0999
 7591TIP3    H144188   2.645   2.994   3.439  3.7195 -1.0298 -0.9330
 7591TIP3    H244189   2.752   3.086   3.494  0.7216  1.9133  0.3413
 7592TIP3   OH244190   2.422   2.688  16.379  0.2591 -0.1305  0.4001
 7592TIP3    H144191   2.446   2.769  16.425  0.6172  0.9156 -1.5121
 7592TIP3    H244192   2.504   2.656  16.341 -0.5414  1.6009 -3.3029
 7593TIP3   OH244193   1.736   1.130   4.784 -0.6593 -0.0464 -0.2973
 7593TIP3    H144194   1.797   1.200   4.763  1.2452 -0.2627  3.7382
 7593TIP3    H244195   1.650   1.173   4.788  0.5257  2.4093  2.8121
 7594TIP3   OH244196   5.286   2.292   6.000 -0.6320 -0.4512 -0.3997
 7594TIP3    H144197   5.316   2.349   5.929  2.3394 -1.1558  0.1499
 7594TIP3    H244198   5.323   2.331   6.079 -1.1933 -1.4226  0.3624
 7595TIP3   OH244199   3.671   6.204   2.655 -0.3148 -0.6384  0.3682
 7595TIP3    H144200   3.752   6.172   2.615 -0.1195  0.0849  0.1660
 7595TIP3    H244201   3.604   6.193   2.587 -0.0475  0.2936 -0.0621
 7596TIP3   OH244202   6.699   4.717   6.283  0.3985  0.2857 -0.7495
 7596TIP3    H144203   6.644   4.686   6.355  0.1647  1.3934 -0.4279
 7596TIP3    H244204   6.681   4.657   6.211  0.0394 -0.3629 -0.1376
 7597TIP3   OH244205   1.086   2.985  16.795  0.3695  0.1880  0.4237
 7597TIP3    H144206   1.108   2.900  16.833 -1.8810 -0.2304  0.8840
 7597TIP3    H244207   1.171   3.024  16.776  1.5678 -0.8025  3.1712
 7598TIP3   OH244208   1.806   4.481   3.677 -0.0549  0.3480 -0.2673
 7598TIP3    H144209   1.816   4.434   3.760 -0.5823 -1.1879 -1.0365
 7598TIP3    H244210   1.722   4.527   3.685  0.1973  0.7169  0.2828
 7599TIP3   OH244211   5.093   6.352  14.037  0.0957  0.1099 -0.2147
 7599TIP3    H144212   5.167   6.303  14.003  1.9893  1.1062  2.2151
 7599TIP3    H244213   5.122   6.385  14.122 -2.9662  0.9803  0.6315
 7600TIP3   OH244214   1.804   0.486   4.351 -0.1810  0.3905  0.0317
 7600TIP3    H144215   1.752   0.440   4.286 -0.0078  1.4690 -0.8959
 7600TIP3    H244216   1.895   0.467   4.328 -0.0955 -1.3432  1.5425
 7601TIP3   OH244217   3.526   3.243   0.804 -0.2751 -0.6803 -0.1979
 7601TIP3    H144218   3.574   3.292   0.737  0.1036 -1.4612 -0.5152
 7601TIP3    H244219   3.434   3.264   0.788 -0.1862 -0.8480 -0.9644
 7602TIP3   OH244220   4.890   3.008  12.446  0.3250  0.1895  0.5053
 7602TIP3    H144221   4.969   3.030  12.497  0.7012 -1.1482  0.5352
 7602TIP3    H244222   4.886   2.913  12.448 -0.6915  0.1931 -0.4428
 7603TIP3   OH244223   0.958   1.091  16.558  0.3174  0.2346 -0.4910
 7603TIP3    H144224   0.910   1.134  16.487 -0.0109  0.0094 -0.4033
 7603TIP3    H244225   0.993   1.011  16.519  1.0160  0.6227 -0.6795
 7604TIP3   OH244226   3.816   0.944  17.195 -0.0760  0.5235 -0.0457
 7604TIP3    H144227   3.804   0.913  17.285  0.7636  0.9749  0.2351
 7604TIP3    H244228   3.876   1.018  17.203 -0.5625  1.0321 -0.9084
 7605TIP3   OH244229   6.147   0.557  13.608 -0.0297  0.2984 -0.1982
 7605TIP3    H144230   6.228   0.560  13.659 -1.1582  3.2109  1.6793
 7605TIP3    H244231   6.077   0.552  13.674 -1.4545  0.4355 -1.6320
 7606TIP3   OH244232   5.754   4.429  15.713 -0.4597 -0.0864 -0.3680
 7606TIP3    H144233   5.695   4.360  15.683 -0.7087  0.2577 -0.6800
 7606TIP3    H244234   5.742   4.431  15.808 -1.7086  0.6522 -0.5112
 7607TIP3   OH244235   0.838   0.327   1.863  0.0016 -0.2604  0.2295
 7607TIP3    H144236   0.930   0.339   1.886  0.4512 -2.7350  0.0251
 7607TIP3    H244237   0.840   0.284   1.777 -1.3658 -0.1912  0.1359
 7608TIP3   OH244238   2.570   3.915   0.617  0.2363  0.1214 -0.1675
 7608TIP3    H144239   2.522   3.967   0.552 -0.8221 -0.3361  0.2212
 7608TIP3    H244240   2.638   3.974   0.650 -1.8042  1.8320  1.2950
 7609TIP3   OH244241   6.243   1.591   0.490 -0.0699  0.2018 -0.1282
 7609TIP3    H144242   6.152   1.594   0.521  0.3382  2.2551  1.0517
 7609TIP3    H244243   6.288   1.538   0.556 -0.2446 -0.1694 -0.3002
 7610TIP3   OH244244   5.020   1.463   3.881 -0.6080 -0.0342 -0.1837
 7610TIP3    H144245   5.004   1.421   3.965 -1.2931 -1.6714 -1.0929
 7610TIP3    H244246   4.967   1.543   3.884 -2.1494 -1.0243  0.2255
 7611TIP3   OH244247   6.011   2.545  13.876 -0.5000  0.1368  0.2916
 7611TIP3    H144248   5.918   2.560  13.892 -0.9230 -0.0539 -1.8039
 7611TIP3    H244249   6.025   2.571  13.785  1.2511 -0.9152  0.2066
 7612TIP3   OH244250   2.994   3.295   6.716 -0.0696 -0.5426  0.0150
 7612TIP3    H144251   2.917   3.243   6.740 -1.0461  0.3288 -1.0727
 7612TIP3    H244252   2.991   3.371   6.774 -0.7244  0.0699 -0.7881
 7613TIP3   OH244253   1.565   1.859   5.306 -0.3042 -0.0669 -0.2084
 7613TIP3    H144254   1.553   1.856   5.211 -0.6799  1.3219 -0.2251
 7613TIP3    H244255   1.481   1.890   5.340  0.0382  0.0894  0.5155
 7614TIP3   OH244256   4.586   1.376  11.175 -0.2210 -0.1881 -0.1814
 7614TIP3    H144257   4.625   1.301  11.130  0.2279 -0.0973  0.0557
 7614TIP3    H244258   4.593   1.448  11.112  1.5297  0.2492  0.4713
 7615TIP3   OH244259   1.797   5.006  10.754  0.3134 -0.2288 -0.3310
 7615TIP3    H144260   1.748   4.924  10.760 -0.0812 -0.0764 -1.2528
 7615TIP3    H244261   1.737   5.067  10.713  0.4101  0.7005  0.8656
 7616TIP3   OH244262   2.057   2.406  12.728  0.2699  0.2040  0.1458
 7616TIP3    H144263   2.107   2.484  12.703  0.1707  0.2714  0.1562
 7616TIP3    H244264   2.052   2.411  12.824  0.8552 -0.1801  0.2002
 7617TIP3   OH244265   6.079   4.640  12.811  0.2470  0.2125  0.5953
 7617TIP3    H144266   6.071   4.703  12.882 -0.8540  2.1552 -1.1372
 7617TIP3    H244267   6.165   4.599  12.825  0.0782  0.5096  2.9844
 7618TIP3   OH244268   0.501   3.460   4.813  0.1494 -0.5694 -0.5814
 7618TIP3    H144269   0.543   3.534   4.857  2.5617 -2.4959  0.6579
 7618TIP3    H244270   0.437   3.428   4.876  1.4386 -1.4559  0.3395
 7619TIP3   OH244271   0.148   1.721   1.319 -0.1207 -0.7622 -0.0931
 7619TIP3    H144272   0.208   1.795   1.325  0.3228 -1.2201  1.7715
 7619TIP3    H244273   0.183   1.667   1.248  3.1174 -2.1917  2.3389
 7620TIP3   OH244274   2.927   2.122  11.742  0.3217 -0.0088 -0.0496
 7620TIP3    H144275   2.930   2.093  11.833 -0.9318  0.1515  0.0577
 7620TIP3    H244276   3.013   2.160  11.726  1.0111 -1.2155  0.6661
 7621TIP3   OH244277   3.274   1.884   0.973 -0.3124  0.3949  0.1345
 7621TIP3    H144278   3.231   1.965   0.999 -0.4887 -0.0976  1.4178
 7621TIP3    H244279   3.343   1.912   0.913 -0.6770  1.4450  0.1874
 7622TIP3   OH244280   2.125   1.439   0.918 -0.0661 -0.0467  0.1013
 7622TIP3    H144281   2.082   1.432   1.003 -0.6410 -0.2820 -0.2022
 7622TIP3    H244282   2.215   1.413   0.934  0.3075  1.6396  1.0142
 7623TIP3   OH244283   4.451   5.412   6.226  0.4789 -0.5374 -0.0098
 7623TIP3    H144284   4.446   5.501   6.194 -0.1104 -0.4693  0.2521
 7623TIP3    H244285   4.543   5.388   6.218  0.4722 -0.2551 -1.0023
 7624TIP3   OH244286   5.321   4.208   5.167 -0.0861  0.2026  0.2656
 7624TIP3    H144287   5.249   4.271   5.168 -0.4459 -0.1997 -0.2318
 7624TIP3    H244288   5.285   4.130   5.209  0.5418  0.5045  1.4307
 7625TIP3   OH244289   0.658   4.116   3.734 -0.3027  0.1052  0.6469
 7625TIP3    H144290   0.594   4.116   3.805 -1.0063  0.2874  0.0168
 7625TIP3    H244291   0.655   4.027   3.699 -2.7190  0.9580 -1.5907
 7626TIP3   OH244292   2.747   4.225   5.470  0.1125  0.1355  0.1755
 7626TIP3    H144293   2.724   4.255   5.382 -0.6131 -1.7934 -0.3471
 7626TIP3    H244294   2.832   4.182   5.460  0.8984  1.5001  0.8056
 7627TIP3   OH244295   4.586   0.260  10.825  0.0710 -0.3287 -0.2458
 7627TIP3    H144296   4.664   0.261  10.769  1.0631 -0.0627  1.0858
 7627TIP3    H244297   4.562   0.167  10.832  1.0892 -0.5598  0.3970
 7628TIP3   OH244298   4.351   4.930  12.276  0.2050  0.1878  0.7822
 7628TIP3    H144299   4.371   4.953  12.185 -1.9004 -0.3329  0.1144
 7628TIP3    H244300   4.358   4.835  12.279  1.2347  0.2740  1.4499
 7629TIP3   OH244301   3.509   4.003   1.600 -0.1897  0.1345 -0.1043
 7629TIP3    H144302   3.507   3.918   1.556  1.4836  0.7839 -1.5671
 7629TIP3    H244303   3.520   4.067   1.529  1.0919  1.3643  1.1320
 7630TIP3   OH244304   2.416   4.716  16.716 -0.1147 -0.2236  0.4337
 7630TIP3    H144305   2.327   4.741  16.692  0.5022  2.1779  0.3886
 7630TIP3    H244306   2.448   4.666  16.641 -0.6560  0.9125 -0.5877
 7631TIP3   OH244307   5.259   1.621   0.025  0.3153  0.3754 -0.2213
 7631TIP3    H144308   5.201   1.569   0.081  1.9967 -0.2364  1.0201
 7631TIP3    H244309   5.294   1.558  -0.038 -0.4276  0.7638 -1.0355
 7632TIP3   OH244310   4.093   5.572   2.231  0.7178  0.3263  0.1844
 7632TIP3    H144311   4.054   5.529   2.155  1.2713  0.0288  0.0608
 7632TIP3    H244312   4.022   5.624   2.268  0.1454 -0.3642  0.0880
 7633TIP3   OH244313   5.459   2.160   5.796  0.3533  0.3152 -0.4220
 7633TIP3    H144314   5.496   2.247   5.808 -1.7938  1.3088 -0.5310
 7633TIP3    H244315   5.398   2.148   5.869 -1.5286  0.1511 -1.9274
 7634TIP3   OH244316   4.004   6.372   5.065 -0.0217 -0.1768  0.2624
 7634TIP3    H144317   3.978   6.390   4.974 -0.9948  1.1445  0.7777
 7634TIP3    H244318   3.961   6.440   5.116 -1.0182 -1.9734  1.9505
 7635TIP3   OH244319   3.801   1.470  14.698 -0.1141  0.1005  0.1463
 7635TIP3    H144320   3.870   1.405  14.683  0.4666  0.9994 -1.2342
 7635TIP3    H244321   3.840   1.553  14.674 -1.2275  0.8313  0.7566
 7636TIP3   OH244322   1.521   5.172   1.815  0.3527 -0.7528  0.1334
 7636TIP3    H144323   1.596   5.137   1.767  0.0650 -3.1198  1.2380
 7636TIP3    H244324   1.551   5.177   1.906 -0.0498  0.7574  0.2050
 7637TIP3   OH244325   1.972   4.251  14.319  0.0787  0.2375  0.2045
 7637TIP3    H144326   1.934   4.304  14.389 -0.7955 -0.1805  0.0646
 7637TIP3    H244327   1.987   4.165  14.360 -0.9750 -0.1810 -0.2599
 7638TIP3   OH244328   4.311   3.425   1.771 -0.1449  0.1822 -0.4978
 7638TIP3    H144329   4.311   3.509   1.818  1.1951  0.2314 -0.5313
 7638TIP3    H244330   4.303   3.450   1.678 -0.5400  0.2214 -0.4544
 7639TIP3   OH244331   2.803   5.199  15.900  0.3640  0.2463 -0.4039
 7639TIP3    H144332   2.808   5.203  15.804 -1.2549  4.0078 -0.5082
 7639TIP3    H244333   2.881   5.246  15.930  1.6888 -2.2389  0.2823
 7640TIP3   OH244334   6.548   3.419   3.825  0.8248 -0.5722 -0.0517
 7640TIP3    H144335   6.608   3.478   3.870  1.9973 -1.9748  0.3189
 7640TIP3    H244336   6.516   3.470   3.751 -1.6872  2.0534  2.5858
 7641TIP3   OH244337   6.173   4.845   5.517 -0.0439 -0.6147 -0.2634
 7641TIP3    H144338   6.123   4.781   5.568  0.6347 -0.4714  0.6066
 7641TIP3    H244339   6.150   4.826   5.426 -0.2012 -1.7889  0.0016
 7642TIP3   OH244340   6.481   5.259  13.205  0.5420 -0.2047  0.6115
 7642TIP3    H144341   6.569   5.230  13.179  1.6539  3.3147 -0.1492
 7642TIP3    H244342   6.468   5.220  13.291  2.1443 -2.1093  0.0767
 7643TIP3   OH244343   1.814   3.631   2.010  0.0496  0.1958 -0.1880
 7643TIP3    H144344   1.723   3.643   1.982 -0.7373 -0.9707  1.6689
 7643TIP3    H244345   1.853   3.577   1.941 -0.4297  1.3171 -1.3766
 7644TIP3   OH244346   3.119   1.500   0.561 -0.0737  0.9810 -0.0836
 7644TIP3    H144347   3.035   1.458   0.582  0.8885 -1.5506 -0.9298
 7644TIP3    H244348   3.099   1.560   0.489 -0.8284 -1.3528 -1.9414
 7645TIP3   OH244349   1.954   4.031   2.008  0.2228  0.7256  0.1547
 7645TIP3    H144350   1.903   4.029   1.926  0.6968  0.4052 -0.1411
 7645TIP3    H244351   2.021   4.098   1.993  3.7277 -2.7495 -1.8840
 7646TIP3   OH244352   2.452   5.757   5.364 -0.1643 -0.1966  0.4030
 7646TIP3    H144353   2.537   5.797   5.344 -0.0881  0.2332  1.5042
 7646TIP3    H244354   2.388   5.826   5.344 -0.2699 -0.5513 -0.5116
 7647TIP3   OH244355   5.955   1.126  16.010 -0.2632  0.0775  0.3329
 7647TIP3    H144356   5.892   1.119  15.939 -0.3307  1.8946  0.1740
 7647TIP3    H244357   5.927   1.203  16.060  0.5524 -0.3876  1.5591
 7648TIP3   OH244358   4.013   5.952  11.860 -0.0498 -0.2113 -0.5365
 7648TIP3    H144359   3.995   5.859  11.848  0.2832 -0.3214 -0.2218
 7648TIP3    H244360   4.044   5.959  11.950  0.0194  0.1923 -0.5870
 7649TIP3   OH244361   0.792   1.547   0.127  0.2588  0.2371  0.6802
 7649TIP3    H144362   0.716   1.570   0.074 -0.2168 -0.4559  1.0376
 7649TIP3    H244363   0.814   1.458   0.100  1.4039  0.6972  0.0652
 7650TIP3   OH244364   1.853   0.748  14.068  0.5504 -0.1115 -0.7452
 7650TIP3    H144365   1.760   0.725  14.067  0.3654  0.6385 -1.1008
 7650TIP3    H244366   1.878   0.750  13.976  0.3215  2.0218 -0.8053
 7651TIP3   OH244367   0.067   3.851  15.054 -0.0557 -0.1045 -0.9444
 7651TIP3    H144368   0.144   3.841  15.111 -1.0491  1.6844  0.8389
 7651TIP3    H244369   0.071   3.776  14.996  2.1527 -0.9466  0.1524
 7652TIP3   OH244370   4.466   3.640   5.873 -0.8044 -0.1774  0.1878
 7652TIP3    H144371   4.402   3.654   5.803 -1.2707  0.0676  0.6621
 7652TIP3    H244372   4.460   3.718   5.928  0.3538  0.1407 -0.1053
 7653TIP3   OH244373   3.452   2.986  15.013  0.5036 -0.2470 -0.2717
 7653TIP3    H144374   3.367   3.022  14.990  0.7393 -0.7027 -2.0326
 7653TIP3    H244375   3.515   3.045  14.972  1.0291 -0.3624  0.3425
 7654TIP3   OH244376   2.382   4.752  17.266 -0.6828 -0.0910 -0.4857
 7654TIP3    H144377   2.430   4.802  17.199  1.1512 -0.3474  0.5695
 7654TIP3    H244378   2.374   4.664  17.230  0.6223 -0.3222 -0.2310
 7655TIP3   OH244379   2.194   1.004   0.280 -0.3580 -0.6026 -0.0415
 7655TIP3    H144380   2.249   0.967   0.349 -0.1654 -0.7634 -0.2787
 7655TIP3    H244381   2.254   1.057   0.228  0.5902 -3.9226 -2.7513
 7656TIP3   OH244382   1.940   3.491   1.808  0.6022 -0.2684 -0.2060
 7656TIP3    H144383   1.926   3.497   1.714 -0.7895  0.6486  0.0226
 7656TIP3    H244384   2.010   3.427   1.818 -0.1608 -1.4033 -1.7801
 7657TIP3   OH244385   1.203   5.030  16.063  0.4706 -0.3716 -0.0059
 7657TIP3    H144386   1.173   4.962  16.002  0.4618  0.9357 -1.5558
 7657TIP3    H244387   1.264   5.083  16.011  1.4917  0.0242  1.5571
 7658TIP3   OH244388   5.559   5.590  12.046 -0.0569  0.1195  0.8173
 7658TIP3    H144389   5.598   5.556  11.966  1.0367 -0.6837  1.6702
 7658TIP3    H244390   5.510   5.516  12.082 -0.7649  0.5528  0.7653
 7659TIP3   OH244391   5.893   3.534  13.215  0.2139 -0.5182  0.0326
 7659TIP3    H144392   5.987   3.542  13.227  0.1093 -0.5431  0.9097
 7659TIP3    H244393   5.859   3.623  13.222 -0.0959 -0.7509  2.2835
 7660TIP3   OH244394   2.069   5.372  11.770 -0.7932  0.0413 -0.2295
 7660TIP3    H144395   2.164   5.380  11.772 -0.6146 -1.8193  0.1327
 7660TIP3    H244396   2.045   5.394  11.680 -0.0626  0.6985 -0.2791
 7661TIP3   OH244397   0.578   1.590  14.014 -0.8293  0.0470 -0.4254
 7661TIP3    H144398   0.664   1.618  13.985 -0.0516 -0.5263  1.2167
 7661TIP3    H244399   0.582   1.494  14.010 -1.5411  0.0261 -0.7466
 7662TIP3   OH244400   3.117   1.533  15.572  0.2013 -0.4139  0.2741
 7662TIP3    H144401   3.069   1.527  15.490  0.9462  0.2904 -0.2337
 7662TIP3    H244402   3.069   1.477  15.633 -1.3609  0.4054 -0.1566
 7663TIP3   OH244403   0.978   4.875  12.407  0.1575  0.0649 -0.3627
 7663TIP3    H144404   0.914   4.945  12.399  0.5051  0.3594 -0.6230
 7663TIP3    H244405   1.030   4.898  12.483 -0.8861 -0.8779  0.6709
 7664TIP3   OH244406   1.623   6.706  13.134 -0.3024  0.2344 -0.1256
 7664TIP3    H144407   1.709   6.740  13.107 -0.5251 -0.4186 -1.7447
 7664TIP3    H244408   1.643   6.621  13.173 -0.1072  0.5938  0.5699
 7665TIP3   OH244409   2.436   3.412  10.831  0.7098  0.3263 -0.3508
 7665TIP3    H144410   2.438   3.338  10.891 -0.3006  0.9779  0.5097
 7665TIP3    H244411   2.517   3.459  10.848  1.3784 -0.5712 -0.9292
 7666TIP3   OH244412   1.062   4.156   3.003  0.1011  0.2369  0.4535
 7666TIP3    H144413   1.132   4.106   3.045  0.5679 -0.1477 -0.7320
 7666TIP3    H244414   0.991   4.157   3.067  1.1843  0.6339  1.6724
 7667TIP3   OH244415   6.463   2.269   0.128 -0.3663  0.5449 -0.3686
 7667TIP3    H144416   6.461   2.173   0.123  1.3439  0.4469  0.3016
 7667TIP3    H244417   6.427   2.298   0.044  0.6649 -0.7104 -1.2831
 7668TIP3   OH244418   0.455   3.074   1.189  0.1254  0.1873 -0.2929
 7668TIP3    H144419   0.443   3.091   1.095  0.5791  0.4798 -0.2985
 7668TIP3    H244420   0.367   3.054   1.221  0.1727 -1.4674 -1.0964
 7669TIP3   OH244421   5.226   4.658  11.513 -0.2112 -0.1523  0.0378
 7669TIP3    H144422   5.180   4.579  11.542 -0.6142  0.3092  0.7138
 7669TIP3    H244423   5.193   4.673  11.424  0.7716 -1.3938 -0.5748
 7670TIP3   OH244424   2.141   3.712   1.872 -0.6060 -0.2255  0.3046
 7670TIP3    H144425   2.165   3.671   1.956  0.3384 -0.8205 -0.2335
 7670TIP3    H244426   2.065   3.663   1.842  0.1857 -1.2767 -0.0684
 7671TIP3   OH244427   3.613   5.112  12.751  0.3394 -0.3137  0.2286
 7671TIP3    H144428   3.603   5.205  12.774 -0.0313 -0.5049  0.8566
 7671TIP3    H244429   3.696   5.087  12.791 -0.4165 -0.7069  1.6112
 7672TIP3   OH244430   0.282   3.882  10.872  0.1461  0.0374 -0.1204
 7672TIP3    H144431   0.315   3.935  10.945  1.5549  1.5142 -1.7324
 7672TIP3    H244432   0.356   3.828  10.847 -0.5090 -0.8777 -0.1141
 7673TIP3   OH244433   0.052   1.382  16.391  0.9899 -0.0224 -0.4118
 7673TIP3    H144434  -0.011   1.448  16.361 -1.0209  0.1031  3.4343
 7673TIP3    H244435   0.123   1.433  16.430  0.6556 -0.0971  0.3148
 7674TIP3   OH244436   5.425   5.651   5.803  0.2897 -0.0858 -0.0565
 7674TIP3    H144437   5.354   5.712   5.784  0.7899  0.4753 -0.1544
 7674TIP3    H244438   5.381   5.567   5.820 -0.3893  0.2557 -0.1002
 7675TIP3   OH244439   4.531   2.464   0.644 -0.4445 -0.0644  0.6068
 7675TIP3    H144440   4.621   2.465   0.611 -0.6066  1.0094  0.1524
 7675TIP3    H244441   4.540   2.455   0.739  0.0753 -1.5988  0.4407
 7676TIP3   OH244442   6.312   1.213  10.879  0.2641  0.5078 -0.0128
 7676TIP3    H144443   6.406   1.233  10.876  0.3214  0.1690 -1.6888
 7676TIP3    H244444   6.300   1.169  10.963  1.5721  0.7565  0.3295
 7677TIP3   OH244445   2.098   4.879  13.686 -0.0972  0.3147 -0.2618
 7677TIP3    H144446   2.179   4.925  13.663 -0.1937  0.0375 -1.1768
 7677TIP3    H244447   2.113   4.789  13.656 -0.9257  0.3691 -0.8560
 7678TIP3   OH244448   4.906   5.439  13.797 -0.1162 -0.0291 -0.3551
 7678TIP3    H144449   4.873   5.373  13.859  1.0119  1.6777  2.2545
 7678TIP3    H244450   4.996   5.411  13.779  0.2282  0.5402  0.4324
 7679TIP3   OH244451   0.657   6.675  15.379  0.1618 -0.4777  0.3743
 7679TIP3    H144452   0.571   6.705  15.353  0.0380 -1.2220 -0.1162
 7679TIP3    H244453   0.643   6.631  15.463  0.4593  1.3775  1.4599
 7680TIP3   OH244454   3.555   2.531  11.099 -0.5677  0.4924  0.0897
 7680TIP3    H144455   3.475   2.576  11.070 -1.2609  0.1864  1.4352
 7680TIP3    H244456   3.538   2.439  11.079 -0.7795  0.3618  0.8597
 7681TIP3   OH244457   5.200   4.334   1.326 -0.2642  0.1615 -0.1211
 7681TIP3    H144458   5.230   4.303   1.240  1.9614 -1.0494  0.9863
 7681TIP3    H244459   5.142   4.264   1.357 -0.9622  0.5360 -0.5595
 7682TIP3   OH244460   1.676   4.930  13.088 -0.0642  0.3647  0.2086
 7682TIP3    H144461   1.725   4.968  13.015 -1.9173 -0.1748 -1.3922
 7682TIP3    H244462   1.638   4.850  13.052 -0.1892 -0.4704  2.1026
 7683TIP3   OH244463   0.773   0.689  11.125  0.8658  0.1281  0.1511
 7683TIP3    H144464   0.808   0.680  11.037  0.1300 -1.1796 -0.0269
 7683TIP3    H244465   0.843   0.656  11.182  1.2046  0.6545  0.0537
 7684TIP3   OH244466   2.659   6.102   0.996 -0.3367 -0.0666 -0.4453
 7684TIP3    H144467   2.725   6.051   1.042  0.3152  1.5311  0.4320
 7684TIP3    H244468   2.708   6.159   0.937 -1.0555 -0.3459 -1.3580
 7685TIP3   OH244469   5.463   2.467   4.755  0.8389 -0.4813  0.1926
 7685TIP3    H144470   5.434   2.554   4.782 -2.4301 -1.0115 -1.1433
 7685TIP3    H244471   5.556   2.478   4.736  0.8975  2.3154  1.4846
 7686TIP3   OH244472   6.160   2.148   6.713 -0.2227  0.2436  0.2421
 7686TIP3    H144473   6.213   2.220   6.680 -0.4139  0.3621  0.1922
 7686TIP3    H244474   6.122   2.107   6.635 -1.7637  1.3609  0.3566
 7687TIP3   OH244475   5.827   5.312   0.898  0.0782 -0.3168 -0.0545
 7687TIP3    H144476   5.745   5.265   0.911 -0.6106  0.9993  0.5307
 7687TIP3    H244477   5.801   5.401   0.876  1.3407  0.3760  1.1038
 7688TIP3   OH244478   1.332   5.863   0.361  0.2054  0.1005  0.3016
 7688TIP3    H144479   1.363   5.774   0.344 -1.1310 -0.3477  0.0704
 7688TIP3    H244480   1.313   5.865   0.455 -0.2143 -0.0206  0.2231
 7689TIP3   OH244481   5.315   1.018  17.127 -0.1870 -0.0402 -0.0378
 7689TIP3    H144482   5.374   0.970  17.069  0.0776  0.1167  0.0998
 7689TIP3    H244483   5.266   0.951  17.174 -0.7537 -0.1703 -0.7997
 7690TIP3   OH244484   5.034   1.754  10.854  0.1785  0.1153  0.4874
 7690TIP3    H144485   4.963   1.701  10.890 -0.4109  1.6319  1.6876
 7690TIP3    H244486   4.990   1.826  10.809  0.9609  0.3606  0.0945
 7691TIP3   OH244487   4.121   1.215   3.519 -0.2733  0.2404  0.6738
 7691TIP3    H144488   4.096   1.216   3.427 -2.8425  0.1665  1.2854
 7691TIP3    H244489   4.101   1.304   3.550  1.3063  0.5074  1.0296
 7692TIP3   OH244490   0.523   4.225  16.422  0.0820  0.3504 -0.0558
 7692TIP3    H144491   0.601   4.171  16.407  0.7811  0.3562  3.0017
 7692TIP3    H244492   0.450   4.164  16.414  0.5468 -0.1399 -0.7242
 7693TIP3   OH244493   3.524   4.270  11.730 -0.5937  0.2604  0.2333
 7693TIP3    H144494   3.585   4.334  11.693  1.8423 -0.8059  2.0763
 7693TIP3    H244495   3.481   4.316  11.802 -0.7218  0.5713 -0.0456
 7694TIP3   OH244496   1.024   0.119   1.744 -0.3658  0.2686  0.2483
 7694TIP3    H144497   1.104   0.158   1.711 -0.2856 -1.9662 -2.6583
 7694TIP3    H244498   1.053   0.048   1.801 -0.3194  0.2231  0.1671
 7695TIP3   OH244499   0.179   4.390  15.623 -0.0385  0.1910 -0.6186
 7695TIP3    H144500   0.249   4.432  15.674 -0.5246  0.7391 -0.3861
 7695TIP3    H244501   0.186   4.297  15.644  0.3984  0.2862 -0.3268
 7696TIP3   OH244502   2.626   6.651  12.217  0.0232 -0.1225  0.3238
 7696TIP3    H144503   2.704   6.668  12.166 -0.1330 -1.8807 -0.5818
 7696TIP3    H244504   2.553   6.668  12.157 -0.1819 -1.5026  0.1502
 7697TIP3   OH244505   2.431   4.267  11.026 -0.0045 -0.4856  0.5353
 7697TIP3    H144506   2.382   4.218  10.961 -0.2822  1.0144 -0.4299
 7697TIP3    H244507   2.366   4.324  11.067  0.5764  0.1723  0.5593
 7698TIP3   OH244508   5.477   1.003   3.967  0.3591  0.3717  0.4211
 7698TIP3    H144509   5.425   0.923   3.963  0.7729  0.1297 -0.3018
 7698TIP3    H244510   5.427   1.061   4.025 -0.1533 -0.2515  0.6200
 7699TIP3   OH244511   0.316   0.278  14.223  0.2073 -0.4193  0.2839
 7699TIP3    H144512   0.241   0.221  14.207 -0.4345 -0.0348  1.8250
 7699TIP3    H244513   0.359   0.241  14.300 -0.3330  1.2429  1.4482
 7700TIP3   OH244514   0.037   5.733   4.243 -0.0267  0.1131  0.5307
 7700TIP3    H144515   0.049   5.806   4.183  2.7922 -1.5778 -1.2495
 7700TIP3    H244516  -0.055   5.736   4.268 -1.1604  1.5214 -3.1562
 7701TIP3   OH244517   1.762   6.705  14.549 -0.1122  0.8282 -0.5809
 7701TIP3    H144518   1.769   6.637  14.482  2.8928  1.2422 -0.8521
 7701TIP3    H244519   1.797   6.663  14.628 -2.8341  0.6068  0.5920
 7702TIP3   OH244520   5.210   0.846  12.394  0.2748  0.2948 -0.8403
 7702TIP3    H144521   5.172   0.933  12.380  0.2276  0.4202  0.0000
 7702TIP3    H244522   5.279   0.861  12.460 -0.9330 -0.5710  0.6888
 7703TIP3   OH244523   1.263   5.840  17.176  0.0365 -0.3100  0.4116
 7703TIP3    H144524   1.192   5.882  17.225  0.4784  0.2798  0.5610
 7703TIP3    H244525   1.318   5.800  17.243  0.8958  0.8927  0.4590
 7704TIP3   OH244526   4.658   2.068  10.993  0.0925 -0.1392  0.2233
 7704TIP3    H144527   4.626   2.149  11.032  1.1379  0.3688  0.0757
 7704TIP3    H244528   4.715   2.030  11.060 -0.2010 -0.6257  0.1971
 7705TIP3   OH244529   6.741   6.403  16.989 -0.2309  0.0797  0.3163
 7705TIP3    H144530   6.727   6.493  16.962  1.3379  0.5883  1.0588
 7705TIP3    H244531   6.654   6.370  17.010 -0.7584  1.6237  0.6578
 7706TIP3   OH244532   1.171   2.238   4.194  0.1703 -0.3987 -0.0039
 7706TIP3    H144533   1.131   2.152   4.182 -1.7911  0.4926 -0.2416
 7706TIP3    H244534   1.193   2.241   4.287 -1.1764 -0.6121  0.3522
 7707TIP3   OH244535   4.281   2.347  12.876  0.0118  0.4266 -0.5571
 7707TIP3    H144536   4.333   2.283  12.925 -1.5818 -1.3050 -1.0255
 7707TIP3    H244537   4.193   2.341  12.914 -0.8273  0.3546 -2.3920
 7708TIP3   OH244538   1.130   6.540  13.033 -0.2831  0.5662 -0.4528
 7708TIP3    H144539   1.191   6.611  13.010 -0.4176  0.6087 -0.6744
 7708TIP3    H244540   1.045   6.571  13.003 -0.3026  0.2015 -0.7829
 7709TIP3   OH244541   3.517   5.379   4.532 -0.5767  0.3637 -0.1016
 7709TIP3    H144542   3.603   5.345   4.555 -0.9220 -1.1745 -0.9816
 7709TIP3    H244543   3.499   5.445   4.599  0.7792 -0.1127  0.7727
 7710TIP3   OH244544   3.488   1.901   4.264 -0.6860  0.0754 -0.0998
 7710TIP3    H144545   3.437   1.878   4.341  1.2772 -0.1595  1.1887
 7710TIP3    H244546   3.523   1.818   4.233 -0.1925  0.3572 -0.3053
 7711TIP3   OH244547   0.137   1.380   2.498  0.1152  0.1503  0.0126
 7711TIP3    H144548   0.219   1.346   2.462 -1.3300 -1.6625 -1.7754
 7711TIP3    H244549   0.162   1.463   2.539  3.2425 -1.3852  1.6155
 7712TIP3   OH244550   3.469   1.932  13.418 -0.1309  0.1880  0.2077
 7712TIP3    H144551   3.425   1.902  13.338  1.1881 -1.2986 -0.0151
 7712TIP3    H244552   3.410   1.999  13.454 -1.2976  0.0975 -1.4031
 7713TIP3   OH244553   1.654   0.577   5.884 -0.3251 -0.2635 -0.4810
 7713TIP3    H144554   1.742   0.588   5.918 -0.0864  0.1270 -1.2026
 7713TIP3    H244555   1.628   0.489   5.911  0.8113 -0.9182 -1.4414
 7714TIP3   OH244556   3.185   2.367  16.238 -0.1175  0.5074  0.0810
 7714TIP3    H144557   3.096   2.355  16.205 -0.3684 -0.2460  0.9849
 7714TIP3    H244558   3.184   2.454  16.278 -0.6541  0.2235  0.6986
 7715TIP3   OH244559   0.926   0.227   5.582 -0.8194 -0.5431  0.1884
 7715TIP3    H144560   0.841   0.247   5.541 -0.6682  0.9573  0.5504
 7715TIP3    H244561   0.930   0.132   5.583 -1.9907 -0.6348 -0.8921
 7716TIP3   OH244562   5.467   1.360   0.647  0.4721 -0.1572  0.1526
 7716TIP3    H144563   5.557   1.382   0.669  0.4341 -0.2001  0.3459
 7716TIP3    H244564   5.475   1.299   0.573  0.5831  0.3528 -0.2600
 7717TIP3   OH244565   6.176   4.100  12.429  0.1680 -0.0894  0.1908
 7717TIP3    H144566   6.232   4.147  12.366 -1.0678  0.8444 -0.2467
 7717TIP3    H244567   6.190   4.147  12.511 -0.2435  0.3685  0.0003
 7718TIP3   OH244568   4.524   2.530  12.040  0.6126 -0.1378 -0.3783
 7718TIP3    H144569   4.484   2.478  12.111  1.6295  0.0528  0.3644
 7718TIP3    H244570   4.571   2.465  11.988 -0.8188 -0.4026 -1.4135
 7719TIP3   OH244571   4.688   1.268   5.549 -0.0522  0.3740 -0.0338
 7719TIP3    H144572   4.675   1.341   5.489 -0.1444  0.9084  0.6244
 7719TIP3    H244573   4.618   1.207   5.527  0.0507  0.4620 -0.6182
 7720TIP3   OH244574   0.281   2.532   2.992 -1.0107 -0.5555 -0.1018
 7720TIP3    H144575   0.313   2.466   2.931  0.7557  0.6701 -0.5846
 7720TIP3    H244576   0.193   2.503   3.015 -0.7958 -2.3367 -1.3353
 7721TIP3   OH244577   0.219   1.744  17.169 -0.4789 -0.7325  0.2142
 7721TIP3    H144578   0.268   1.824  17.187 -0.3070 -1.0174  1.0324
 7721TIP3    H244579   0.144   1.773  17.116 -1.7995  0.3572  2.5560
 7722TIP3   OH244580   5.235   1.163   4.792 -1.0212  0.3102  0.5865
 7722TIP3    H144581   5.147   1.148   4.756 -0.6622  0.6778 -0.5111
 7722TIP3    H244582   5.288   1.092   4.755 -0.6355  0.7060  0.3660
 7723TIP3   OH244583   4.473   5.578  14.529 -0.4117  0.3434 -0.4161
 7723TIP3    H144584   4.524   5.618  14.600  0.3600  1.6254 -1.6345
 7723TIP3    H244585   4.437   5.498  14.567 -0.1630  1.0772  1.4587
 7724TIP3   OH244586   4.156   5.729  13.231 -0.2086  0.0533  0.1808
 7724TIP3    H144587   4.249   5.741  13.247  0.1701 -1.5414 -0.5666
 7724TIP3    H244588   4.116   5.726  13.318  0.7404 -1.2218  0.5964
 7725TIP3   OH244589   5.985   6.578  14.925 -0.1967  0.0566 -0.0648
 7725TIP3    H144590   5.929   6.619  14.858 -1.6404  1.4016  1.8566
 7725TIP3    H244591   5.937   6.499  14.950 -1.0547  0.9513  1.2290
 7726TIP3   OH244592   6.200   2.811   4.968 -0.0788 -0.3341  0.5059
 7726TIP3    H144593   6.219   2.729   4.922 -1.3815 -1.2596  1.5412
 7726TIP3    H244594   6.284   2.837   5.006  1.1297  0.6097 -2.4811
 7727TIP3   OH244595   2.190   3.613   4.556 -0.1245  0.0486 -0.0275
 7727TIP3    H144596   2.121   3.673   4.582 -0.1654  0.0640 -0.1747
 7727TIP3    H244597   2.157   3.570   4.477  0.8548  1.5141 -1.2882
 7728TIP3   OH244598   5.893   4.544   1.426  0.0617 -0.3814  0.2794
 7728TIP3    H144599   5.965   4.554   1.489  1.0914 -1.4071 -0.6796
 7728TIP3    H244600   5.911   4.610   1.359 -0.6941  0.3033  0.7394
 7729TIP3   OH244601   6.638   1.546  14.218  0.3675  0.1680 -0.5531
 7729TIP3    H144602   6.694   1.488  14.167  0.9527  0.5129 -0.3157
 7729TIP3    H244603   6.603   1.608  14.153 -0.6897 -0.7644 -0.8951
 7730TIP3   OH244604   5.187   5.108   5.369  0.7570  0.5854  0.0390
 7730TIP3    H144605   5.190   5.199   5.339  0.7270  1.6651  2.9488
 7730TIP3    H244606   5.257   5.102   5.434 -0.5968 -0.8269  1.4576
 7731TIP3   OH244607   0.369   6.451  10.451  0.2578 -0.1267 -0.3014
 7731TIP3    H144608   0.296   6.511  10.466  1.0845  0.5381  1.2053
 7731TIP3    H244609   0.354   6.378  10.512 -0.8033 -1.6016 -2.1912
 7732TIP3   OH244610   3.687   1.445   4.914 -0.1769 -0.0142 -0.4346
 7732TIP3    H144611   3.671   1.538   4.896 -0.9654  0.3984  2.0067
 7732TIP3    H244612   3.739   1.415   4.840 -1.1317  2.0038 -2.0162
 7733TIP3   OH244613   0.262   0.080   5.840 -0.0589 -0.3819  0.0499
 7733TIP3    H144614   0.196   0.023   5.880 -0.4179 -0.3316 -0.4655
 7733TIP3    H244615   0.319   0.020   5.792  0.0551 -0.3891  0.1939
 7734TIP3   OH244616   2.493   4.964  13.147  0.2306  0.4813  0.1385
 7734TIP3    H144617   2.486   4.951  13.053 -0.7243  0.1362  0.2504
 7734TIP3    H244618   2.549   4.892  13.177 -1.3555 -0.7877  0.1370
 7735TIP3   OH244619   1.525   4.781   3.902  0.0405  0.6895 -0.0081
 7735TIP3    H144620   1.593   4.849   3.903  0.6596  0.0717 -0.0420
 7735TIP3    H244621   1.535   4.738   3.818  0.6356 -0.4285  0.6150
 7736TIP3   OH244622   3.115   3.268  15.885  0.0124 -0.3286 -0.3042
 7736TIP3    H144623   3.079   3.213  15.955  0.4167  0.1697  0.3007
 7736TIP3    H244624   3.043   3.326  15.861  0.4191  0.8014  1.0402
 7737TIP3   OH244625   5.493   6.189  10.505  0.3920  0.0057 -0.4258
 7737TIP3    H144626   5.579   6.222  10.480 -0.4560  0.3120 -3.2867
 7737TIP3    H244627   5.432   6.256  10.475 -0.9198 -0.4441  1.0834
 7738TIP3   OH244628   0.308   2.995   2.351  0.4122 -0.0036  0.1303
 7738TIP3    H144629   0.322   3.088   2.369 -1.6252  0.6301 -1.1467
 7738TIP3    H244630   0.344   2.982   2.264  0.1243 -0.2301  0.0427
 7739TIP3   OH244631   3.192   4.597  16.847 -0.4619 -1.3786 -0.4920
 7739TIP3    H144632   3.146   4.596  16.763  0.0597 -0.1595 -0.8118
 7739TIP3    H244633   3.208   4.504  16.867  1.0417 -1.6476 -2.6635
 7740TIP3   OH244634   1.358   0.556  17.095 -0.6522 -0.3329 -0.1700
 7740TIP3    H144635   1.295   0.580  17.027  0.1538  1.3469 -0.3765
 7740TIP3    H244636   1.314   0.487  17.145 -2.0014 -0.3115 -1.2652
 7741TIP3   OH244637   3.077   3.070   2.162  0.2735 -0.5256  0.3546
 7741TIP3    H144638   3.110   3.064   2.072  0.1032 -0.3193  0.2788
 7741TIP3    H244639   2.982   3.072   2.153  0.2661 -0.0289  0.5106
 7742TIP3   OH244640   6.560   0.499   5.389  0.3519 -0.7485 -0.7559
 7742TIP3    H144641   6.622   0.432   5.360 -0.4608 -0.7012 -2.7727
 7742TIP3    H244642   6.574   0.572   5.329 -0.7474 -0.2319 -0.4125
 7743TIP3   OH244643   6.224   4.455   6.725 -0.3717 -0.6640  0.2702
 7743TIP3    H144644   6.237   4.548   6.742  1.0239 -0.7382 -0.2373
 7743TIP3    H244645   6.248   4.411   6.807  0.5799 -0.6701 -0.0082
 7744TIP3   OH244646   1.916   3.060  14.864  0.3731 -0.4640 -0.0794
 7744TIP3    H144647   1.888   2.969  14.866 -0.3350 -0.2470  0.6881
 7744TIP3    H244648   1.867   3.101  14.935  1.9336  0.1543  0.6868
 7745TIP3   OH244649   2.092   5.727   6.884  0.5528  0.6735  0.0169
 7745TIP3    H144650   2.100   5.803   6.826  0.0345 -0.3737 -1.4873
 7745TIP3    H244651   2.115   5.761   6.971  1.3144  2.3044 -0.7724
 7746TIP3   OH244652   0.875   6.523   4.692  0.4546  0.0161 -0.5592
 7746TIP3    H144653   0.879   6.597   4.753 -1.9785  1.2744 -1.7392
 7746TIP3    H244654   0.820   6.459   4.736  0.8486 -0.1969 -0.3771
 7747TIP3   OH244655   2.912   2.951   1.667 -0.0125 -0.1933 -0.6387
 7747TIP3    H144656   2.966   2.911   1.735 -1.2046 -1.5259 -0.4306
 7747TIP3    H244657   2.827   2.909   1.676 -0.3084 -0.1434 -2.7368
 7748TIP3   OH244658   2.270   2.127   1.708 -0.2353 -0.0668 -0.1629
 7748TIP3    H144659   2.259   2.039   1.672 -1.6499 -0.0394  0.1546
 7748TIP3    H244660   2.333   2.116   1.778  0.2228 -0.6750 -0.6543
 7749TIP3   OH244661   6.018   1.803  13.360 -0.0424  0.0643 -0.0133
 7749TIP3    H144662   6.030   1.744  13.434 -0.0045  0.0462 -0.0331
 7749TIP3    H244663   5.933   1.844  13.374 -0.3164 -0.4061 -0.2876
 7750TIP3   OH244664   5.053   5.662  16.501 -0.3153 -0.4006 -0.3019
 7750TIP3    H144665   5.050   5.574  16.538 -0.1343 -1.2628 -2.2132
 7750TIP3    H244666   5.145   5.688  16.509 -0.4907 -0.0759  0.8753
 7751TIP3   OH244667   0.164   6.063   0.654  0.1736 -0.3581 -0.3324
 7751TIP3    H144668   0.198   6.138   0.703  2.6768 -1.1866 -0.6418
 7751TIP3    H244669   0.107   6.017   0.716  2.5761 -0.9237  1.6015
 7752TIP3   OH244670   4.309   4.152   4.206  0.1635  0.1867 -0.2829
 7752TIP3    H144671   4.363   4.083   4.166 -0.7258 -0.7805  0.1377
 7752TIP3    H244672   4.221   4.115   4.207 -0.3827  1.4418 -0.2620
 7753TIP3   OH244673   3.774   4.797  11.531 -0.5469  0.3366  0.2237
 7753TIP3    H144674   3.695   4.781  11.478 -0.1209  3.1911 -1.4868
 7753TIP3    H244675   3.845   4.761  11.479 -0.4386  0.1915  0.4715
 7754TIP3   OH244676   5.918   3.222  14.597  0.0505 -0.1042  0.0466
 7754TIP3    H144677   5.988   3.195  14.537  1.5494  1.5113  0.9804
 7754TIP3    H244678   5.920   3.157  14.667 -0.4074 -0.9008 -0.6667
 7755TIP3   OH244679   4.381   2.511  14.447  0.2307 -0.3898  0.4919
 7755TIP3    H144680   4.476   2.509  14.434  0.3131 -0.7470  1.0558
 7755TIP3    H244681   4.345   2.479  14.365  0.6392 -0.9483  0.5141
 7756TIP3   OH244682   3.649   2.555   0.147  0.2516 -0.1281 -0.3174
 7756TIP3    H144683   3.720   2.511   0.101 -0.6460 -0.2663 -1.6392
 7756TIP3    H244684   3.570   2.526   0.101 -0.5928  0.5501  0.6812
 7757TIP3   OH244685   0.922   2.680   6.346  0.0299 -0.0257 -0.3616
 7757TIP3    H144686   1.014   2.707   6.335 -0.1311  0.0021 -1.7788
 7757TIP3    H244687   0.875   2.761   6.362  0.0727  0.1109 -0.9228
 7758TIP3   OH244688   5.627   0.299   5.195  0.4653 -0.6483  0.0418
 7758TIP3    H144689   5.566   0.372   5.210  1.2288  0.0237 -0.0633
 7758TIP3    H244690   5.598   0.261   5.112 -0.3771 -0.9233  0.4489
 7759TIP3   OH244691   2.493   4.965   3.207  0.7118  0.2004 -0.0030
 7759TIP3    H144692   2.588   4.966   3.220  0.5475  2.3958  1.6596
 7759TIP3    H244693   2.460   4.909   3.277  0.7144  0.5421  0.2757
 7760TIP3   OH244694   6.733   2.775  14.960 -0.4187 -0.1106  0.0479
 7760TIP3    H144695   6.785   2.736  15.031  0.6440  0.4960 -0.3692
 7760TIP3    H244696   6.784   2.851  14.932 -2.6448  1.9031  1.1313
 7761TIP3   OH244697   0.787   3.285  17.409 -0.2025  0.1777  0.5185
 7761TIP3    H144698   0.720   3.346  17.438 -0.3385  0.6912 -0.7900
 7761TIP3    H244699   0.869   3.334  17.417 -0.0837 -0.1494  1.3068
 7762TIP3   OH244700   4.149   0.848  15.386  0.0159  0.3820  0.1220
 7762TIP3    H144701   4.107   0.926  15.421  1.1178  0.6105  0.9815
 7762TIP3    H244702   4.193   0.877  15.307 -1.3287  0.1548 -0.7489
 7763TIP3   OH244703   3.238   5.301   0.842 -0.5459  0.0937 -0.0097
 7763TIP3    H144704   3.194   5.287   0.926 -0.0370 -0.5408  0.1563
 7763TIP3    H244705   3.302   5.370   0.860  0.3437 -0.8155  0.4253
 7764TIP3   OH244706   0.871   5.645   6.217 -0.0353 -0.4533 -0.2088
 7764TIP3    H144707   0.822   5.571   6.180  0.7792  0.0901 -2.5699
 7764TIP3    H244708   0.870   5.630   6.311 -2.1867 -2.0229 -0.4057
 7765TIP3   OH244709   0.251   2.083  12.062  0.4435  0.4633  0.1745
 7765TIP3    H144710   0.289   2.092  11.975  2.1970  0.4060  0.8705
 7765TIP3    H244711   0.191   2.009  12.055 -0.1271  1.0373 -1.1864
 7766TIP3   OH244712   1.082   5.014   1.658  0.1911 -0.2826 -0.4351
 7766TIP3    H144713   1.173   5.017   1.688  0.4128 -1.8781 -0.8684
 7766TIP3    H244714   1.087   5.025   1.563 -0.0730 -0.2853 -0.4499
 7767TIP3   OH244715   0.168   6.589  13.453 -0.2475  0.2580 -0.6628
 7767TIP3    H144716   0.154   6.506  13.497 -0.8342  0.1876 -0.9730
 7767TIP3    H244717   0.171   6.654  13.524  1.9586 -0.2036 -0.2578
 7768TIP3   OH244718   1.199   5.543  12.634  0.2196 -0.3516 -0.3403
 7768TIP3    H144719   1.165   5.514  12.549 -1.4858  0.1780  0.1221
 7768TIP3    H244720   1.146   5.620  12.655  0.4459 -0.6235  1.3067
 7769TIP3   OH244721   6.216   0.049  15.741 -0.0438 -0.1245  0.5587
 7769TIP3    H144722   6.184  -0.015  15.678 -0.3542 -0.6041  1.1934
 7769TIP3    H244723   6.177   0.022  15.824 -1.2255  1.6313  0.6151
 7770TIP3   OH244724   4.500   2.148  12.528  0.0402  0.3113  0.5706
 7770TIP3    H144725   4.457   2.074  12.570 -0.8911  1.6251  2.0600
 7770TIP3    H244726   4.428   2.205  12.500  0.7470  0.8359 -0.2354
 7771TIP3   OH244727   3.583   2.814   6.174 -0.0439 -0.2660  0.0281
 7771TIP3    H144728   3.568   2.790   6.265  0.2661  0.4342  0.2681
 7771TIP3    H244729   3.518   2.881   6.155  0.1652 -0.1057 -0.1366
 7772TIP3   OH244730   1.780   4.170   4.298  0.7310  0.0974  0.0357
 7772TIP3    H144731   1.688   4.152   4.279  0.5613  1.1842 -0.1935
 7772TIP3    H244732   1.780   4.252   4.347  1.3321 -1.3835  2.7839
 7773TIP3   OH244733   5.396   6.401  14.543 -0.3805  0.0111 -0.4015
 7773TIP3    H144734   5.334   6.449  14.488 -0.2038 -1.0567 -1.5723
 7773TIP3    H244735   5.456   6.468  14.576 -1.7216  0.9650  0.2015
 7774TIP3   OH244736   3.703   2.471  13.325 -0.0819 -0.4411 -0.2851
 7774TIP3    H144737   3.697   2.375  13.325  1.5001 -0.5854  0.9166
 7774TIP3    H244738   3.737   2.494  13.239 -5.2827 -0.4422 -2.7012
 7775TIP3   OH244739   0.703   2.016   2.180 -0.1575  0.0950 -0.5580
 7775TIP3    H144740   0.628   1.961   2.157  0.1751 -0.2275 -0.8702
 7775TIP3    H244741   0.751   1.966   2.246 -0.7649  0.7451  0.4062
 7776TIP3   OH244742   1.994   3.569  10.990  0.3252  0.3769 -0.2398
 7776TIP3    H144743   1.978   3.635  10.923  2.0240  0.1965 -0.8747
 7776TIP3    H244744   2.031   3.495  10.942  2.8384  0.7268  0.9883
 7777TIP3   OH244745   4.807   6.354  13.502  0.1718 -0.1505 -0.0095
 7777TIP3    H144746   4.863   6.401  13.441 -0.5390  0.6790 -0.0392
 7777TIP3    H244747   4.824   6.394  13.587 -0.0407 -0.1990  0.0575
 7778TIP3   OH244748   4.176   1.012   0.473 -0.0730 -0.3804 -0.5394
 7778TIP3    H144749   4.125   0.941   0.512 -0.1280 -0.4144 -0.6734
 7778TIP3    H244750   4.125   1.040   0.397 -0.7222  0.6833  0.2444
 7779TIP3   OH244751   0.013   3.728   3.193  0.5024 -0.0476 -0.1822
 7779TIP3    H144752   0.057   3.797   3.145 -0.3450  0.2075 -0.6126
 7779TIP3    H244753  -0.078   3.730   3.161  0.0863 -0.3229  0.9226
 7780TIP3   OH244754   5.176   3.211  17.130 -0.0100  0.5317  0.5108
 7780TIP3    H144755   5.092   3.218  17.085  0.1490  0.1301  0.1444
 7780TIP3    H244756   5.182   3.291  17.182 -1.8153 -0.5854  2.6244
 7781TIP3   OH244757   4.692   4.844   3.395  0.4868  0.3689 -0.8537
 7781TIP3    H144758   4.719   4.821   3.484 -1.1366  2.4114  0.2551
 7781TIP3    H244759   4.754   4.913   3.369 -0.4218  1.4160 -0.3354
 7782TIP3   OH244760   0.849   1.053  11.705 -0.2242  0.3838  0.1927
 7782TIP3    H144761   0.831   1.100  11.786 -1.6836 -1.0740  0.7667
 7782TIP3    H244762   0.914   0.987  11.730 -0.0815  0.4480 -0.0080
 7783TIP3   OH244763   6.027   1.014   1.527 -0.1512 -0.0122 -0.0090
 7783TIP3    H144764   5.989   1.059   1.603 -0.7729  1.3705 -1.0812
 7783TIP3    H244765   6.057   1.085   1.471  0.1329 -1.0062 -1.1368
 7784TIP3   OH244766   2.084   2.170  15.637 -0.5639 -0.9011 -0.4972
 7784TIP3    H144767   2.168   2.126  15.649 -1.4972 -3.3500 -2.2615
 7784TIP3    H244768   2.106   2.247  15.584  0.6833 -1.0184 -0.1915
 7785TIP3   OH244769   3.019   4.632   2.814  0.7819  0.0821  0.4591
 7785TIP3    H144770   3.058   4.589   2.738 -0.3574 -0.8431  0.3638
 7785TIP3    H244771   2.958   4.695   2.777  1.9920  1.3976  0.6098
 7786TIP3   OH244772   1.728   6.105  11.953  0.3032  0.3851  0.2664
 7786TIP3    H144773   1.761   6.019  11.928  1.1356  0.7708  0.0040
 7786TIP3    H244774   1.660   6.125  11.888  1.0788  0.5261 -0.5161
 7787TIP3   OH244775   3.380   4.856  11.281  0.4228 -0.1284 -0.3939
 7787TIP3    H144776   3.468   4.824  11.262  0.3146  0.7858 -2.6893
 7787TIP3    H244777   3.338   4.865  11.196 -1.7419 -0.0387  0.6036
 7788TIP3   OH244778   6.608   2.876  14.644  0.1211 -0.4251 -0.0306
 7788TIP3    H144779   6.533   2.822  14.621  0.0047 -0.2700 -0.0168
 7788TIP3    H244780   6.638   2.841  14.728  0.1557 -0.5825 -0.1094
 7789TIP3   OH244781   0.268   1.630  13.744 -0.0360 -0.1985 -0.1884
 7789TIP3    H144782   0.212   1.612  13.669  1.2541  0.0028 -1.2367
 7789TIP3    H244783   0.353   1.592  13.721  0.6669  0.7460  0.7358
 7790TIP3   OH244784   6.390   5.085  14.667 -0.3192  0.3618 -0.0352
 7790TIP3    H144785   6.415   5.177  14.672 -1.0739  0.7654 -2.2838
 7790TIP3    H244786   6.448   5.049  14.599 -0.0586 -0.8322  0.7986
 7791TIP3   OH244787   2.934   4.193  15.437 -0.3233  0.1573  0.2414
 7791TIP3    H144788   3.008   4.231  15.486  0.9187 -1.6852 -0.0936
 7791TIP3    H244789   2.923   4.106  15.475 -3.2886  0.8498  1.2117
 7792TIP3   OH244790   4.501   5.044   3.054 -0.3076 -0.1767 -0.0604
 7792TIP3    H144791   4.488   5.022   2.962  1.3253 -0.2663 -0.3025
 7792TIP3    H244792   4.476   4.966   3.102  1.3918 -1.1253 -0.6376
 7793TIP3   OH244793   6.585   3.512   6.056  0.2884  0.2020  0.3800
 7793TIP3    H144794   6.544   3.501   6.142  0.4318 -1.2209  0.2915
 7793TIP3    H244795   6.677   3.532   6.075  0.1057  0.8956  0.5552
 7794TIP3   OH244796   2.083   3.275   5.955 -0.5721  0.4020  0.1461
 7794TIP3    H144797   2.055   3.219   6.028 -1.5725 -0.0168 -0.5382
 7794TIP3    H244798   2.058   3.363   5.982 -0.4787  0.3123  0.5283
 7795TIP3   OH244799   1.672   4.409   3.446  0.0501 -0.2088 -0.6323
 7795TIP3    H144800   1.606   4.363   3.497 -0.2282  0.8567 -0.0286
 7795TIP3    H244801   1.729   4.450   3.511  0.2737  0.3465 -1.1715
 7796TIP3   OH244802   0.805   3.196  16.754 -0.2168  0.0682  0.0818
 7796TIP3    H144803   0.827   3.289  16.751 -1.0456  0.2791  0.2524
 7796TIP3    H244804   0.857   3.162  16.827 -2.2238  1.0744  2.0941
 7797TIP3   OH244805   2.766   3.828   1.494  0.3639  0.3678 -0.1733
 7797TIP3    H144806   2.828   3.760   1.518  1.8658  1.1425 -1.6041
 7797TIP3    H244807   2.742   3.870   1.577 -0.1306 -1.4633  0.6578
 7798TIP3   OH244808   5.181   3.644   2.197  0.1456  0.2616  0.9443
 7798TIP3    H144809   5.254   3.703   2.215  2.3189 -1.8599 -0.2802
 7798TIP3    H244810   5.164   3.601   2.280 -0.3484  1.4075  1.4524
 7799TIP3   OH244811   4.574   6.590   3.866 -0.3983 -0.5767  0.1285
 7799TIP3    H144812   4.484   6.616   3.848 -0.4476  0.0103  1.1204
 7799TIP3    H244813   4.625   6.669   3.853 -0.0521 -0.8552 -0.2171
 7800TIP3   OH244814   2.713   3.230  12.494 -0.0404  0.5361  0.5897
 7800TIP3    H144815   2.634   3.194  12.533  0.9352  0.3657  2.5362
 7800TIP3    H244816   2.700   3.325  12.496 -1.0615  0.4792 -1.1333
 7801TIP3   OH244817   3.397   6.628   1.489 -0.0475 -0.0574 -0.0752
 7801TIP3    H144818   3.470   6.604   1.545  0.2342 -1.0765 -0.8646
 7801TIP3    H244819   3.323   6.576   1.522  0.2385 -1.0314 -0.9457
 7802TIP3   OH244820   1.181   5.038   0.538 -0.0663 -0.1038 -0.1281
 7802TIP3    H144821   1.200   4.971   0.472  0.8513 -0.7977  0.8144
 7802TIP3    H244822   1.224   5.117   0.504  1.8436 -0.8615  0.4005
 7803TIP3   OH244823   1.794   1.303   1.837  0.5943  0.7788 -0.0044
 7803TIP3    H144824   1.806   1.354   1.917  0.8489  0.0426  0.4293
 7803TIP3    H244825   1.867   1.241   1.836 -0.4400 -0.4950  0.1841
 7804TIP3   OH244826   4.636   5.320  14.294 -0.3102 -0.0673  0.2378
 7804TIP3    H144827   4.554   5.369  14.300 -0.2148  0.0297  0.7688
 7804TIP3    H244828   4.700   5.385  14.265 -0.0092  0.3368  1.7342
 7805TIP3   OH244829   4.625   3.281  12.169 -0.2660 -1.1122 -0.3515
 7805TIP3    H144830   4.530   3.276  12.161 -0.1024 -2.8063 -1.9174
 7805TIP3    H244831   4.655   3.310  12.083  0.7128 -2.8444 -0.6491
 7806TIP3   OH244832   0.900   5.662  14.196  0.2031 -0.6013 -0.4241
 7806TIP3    H144833   0.826   5.618  14.153 -1.0685  0.2060  0.8611
 7806TIP3    H244834   0.860   5.711  14.268  2.1133 -0.8786  0.8853
 7807TIP3   OH244835   5.170   2.917   5.202  1.3153  0.6777  0.2418
 7807TIP3    H144836   5.123   2.949   5.280  0.1421 -0.9494  0.2539
 7807TIP3    H244837   5.101   2.896   5.139  2.0469 -0.9190 -0.0846
 7808TIP3   OH244838   0.952   1.867   0.000 -0.5911  0.5212 -0.0625
 7808TIP3    H144839   0.988   1.780  -0.015 -0.8721  0.4971 -0.5974
 7808TIP3    H244840   0.992   1.895   0.083  0.6155  0.4684 -0.5983
 7809TIP3   OH244841   1.434   3.426  16.620 -0.2580  0.4374  0.4066
 7809TIP3    H144842   1.500   3.466  16.676  0.0759 -0.2093  0.4940
 7809TIP3    H244843   1.474   3.423  16.534  0.1316 -0.6117  0.6050
 7810TIP3   OH244844   5.557   0.442  14.103  0.2782 -0.8477  0.1877
 7810TIP3    H144845   5.538   0.435  14.197  0.2529 -0.3864  0.2212
 7810TIP3    H244846   5.580   0.534  14.091 -1.3427 -0.5053 -0.5541
 7811TIP3   OH244847   5.547   5.624  13.287  0.2546 -0.1176 -1.1421
 7811TIP3    H144848   5.591   5.539  13.298 -1.5756 -0.9329  0.7678
 7811TIP3    H244849   5.474   5.621  13.350 -1.0274  2.1179 -2.3886
 7812TIP3   OH244850   3.316   5.761   3.823  0.3366  0.4380  0.9506
 7812TIP3    H144851   3.396   5.709   3.829  0.5768  0.7157  0.2243
 7812TIP3    H244852   3.247   5.696   3.810  0.9057  0.3388 -2.5136
 7813TIP3   OH244853   0.357   2.656  15.873 -0.2126  0.5462 -0.3565
 7813TIP3    H144854   0.301   2.602  15.817 -0.7723  1.4916 -0.7378
 7813TIP3    H244855   0.296   2.710  15.924  0.2093 -1.2095  2.2151
 7814TIP3   OH244856   1.751   0.930  15.355  0.1953 -0.2546 -0.2361
 7814TIP3    H144857   1.810   0.927  15.430  0.0000 -1.7452 -0.1184
 7814TIP3    H244858   1.666   0.953  15.392  0.3906  0.4584 -0.2137
 7815TIP3   OH244859   3.016   6.625  15.086 -0.2918  0.5939  0.2838
 7815TIP3    H144860   2.978   6.606  15.000 -0.6768  1.4781  0.2492
 7815TIP3    H244861   3.077   6.697  15.069 -1.3683  1.6979  0.9672
 7816TIP3   OH244862   1.270   5.180  13.881  0.2675 -0.5848  0.1965
 7816TIP3    H144863   1.185   5.186  13.839  0.6363 -1.0417 -0.6470
 7816TIP3    H244864   1.331   5.162  13.810  1.2065  0.6194  0.6501
 7817TIP3   OH244865   2.783   0.274  13.096 -0.3748 -0.1455  0.7238
 7817TIP3    H144866   2.749   0.312  13.015 -0.7681 -0.7977  0.5784
 7817TIP3    H244867   2.801   0.183  13.074 -1.6471 -0.6604  1.6987
 7818TIP3   OH244868   5.198   1.920   1.922 -0.4273  0.4866  0.0093
 7818TIP3    H144869   5.280   1.891   1.963 -0.8241 -0.7371 -0.0216
 7818TIP3    H244870   5.160   1.841   1.886 -0.5462  1.3910 -1.9700
 7819TIP3   OH244871   1.970   1.785  11.643  0.0374 -0.2061  0.3955
 7819TIP3    H144872   2.008   1.764  11.728 -1.0059 -0.6453  0.7677
 7819TIP3    H244873   1.997   1.713  11.586 -1.1443 -1.1318  0.9485
 7820TIP3   OH244874   4.416   5.815   4.510  0.0900 -0.2376  0.1173
 7820TIP3    H144875   4.393   5.767   4.590  0.8582 -0.0476  0.4641
 7820TIP3    H244876   4.424   5.906   4.538 -0.4237 -0.0378 -0.3498
 7821TIP3   OH244877   3.932   4.159   0.108 -0.2719 -0.2346  0.0860
 7821TIP3    H144878   3.861   4.173   0.171 -1.9149 -1.7909 -1.3320
 7821TIP3    H244879   3.900   4.196   0.026  0.5880 -0.8844 -0.5631
 7822TIP3   OH244880   2.005   5.464  11.500 -0.8381  0.4414 -0.2748
 7822TIP3    H144881   2.060   5.423  11.433  1.3685  1.2025  0.9671
 7822TIP3    H244882   1.917   5.431  11.482 -0.2565  0.2203 -3.1923
 7823TIP3   OH244883   4.011   4.150  14.024  0.6079 -0.4920 -0.0560
 7823TIP3    H144884   4.020   4.189  14.111  0.3254 -1.7307  0.5449
 7823TIP3    H244885   4.086   4.184  13.976  0.8337  0.1238  0.7045
 7824TIP3   OH244886   4.011   2.332  16.142 -0.1700 -0.7719  0.4073
 7824TIP3    H144887   4.036   2.376  16.060  4.7080  1.7493  2.7819
 7824TIP3    H244888   4.030   2.239  16.126 -0.0027 -0.4578 -1.5002
 7825TIP3   OH244889   4.252   6.541  12.801  0.4611  0.6305 -0.5666
 7825TIP3    H144890   4.166   6.556  12.840  0.7819 -1.3837  1.1123
 7825TIP3    H244891   4.310   6.603  12.845  0.0919  1.2190 -0.8937
 7826TIP3   OH244892   0.846   0.391   0.949  0.0201  0.0470 -0.4978
 7826TIP3    H144893   0.769   0.364   0.999  0.1580  1.1498  0.3501
 7826TIP3    H244894   0.813   0.458   0.889  0.6804  2.2896  1.5134
 7827TIP3   OH244895   6.417   2.349   4.599  0.0596  0.1441  0.0581
 7827TIP3    H144896   6.385   2.265   4.567  0.4421 -0.1563  0.4588
 7827TIP3    H244897   6.386   2.412   4.534  1.5979 -0.5551 -1.4564
 7828TIP3   OH244898   2.833   0.123   4.514 -0.7052  0.6582  0.6930
 7828TIP3    H144899   2.779   0.199   4.492 -1.0069  0.3802  0.4605
 7828TIP3    H244900   2.826   0.066   4.438  1.3121  1.3685 -0.0973
 7829TIP3   OH244901   5.688   6.252  13.849 -0.1959 -0.8080  0.0506
 7829TIP3    H144902   5.696   6.225  13.940  0.2543 -0.1065  0.2260
 7829TIP3    H244903   5.599   6.227  13.824 -2.3577  3.6180  2.2751
 7830TIP3   OH244904   5.729   0.804   4.487 -0.5024  0.0934  0.4565
 7830TIP3    H144905   5.719   0.732   4.425  0.8846 -0.5694  0.9755
 7830TIP3    H244906   5.698   0.881   4.440 -1.2296 -0.7017 -0.3905
 7831TIP3   OH244907   1.892   0.221   4.830 -0.0050 -0.7706  0.3757
 7831TIP3    H144908   1.808   0.180   4.850  0.1629 -0.6726  1.3781
 7831TIP3    H244909   1.870   0.294   4.774 -0.6545 -0.4712  0.9942
 7832TIP3   OH244910   4.981   5.970   6.150  0.2552  0.3018 -0.2742
 7832TIP3    H144911   4.908   5.968   6.211 -0.7398  1.0720 -1.3974
 7832TIP3    H244912   4.958   5.907   6.082  0.1935  1.1599 -1.0775
 7833TIP3   OH244913   4.113   4.625   1.891  0.5979 -0.3312 -0.8266
 7833TIP3    H144914   4.183   4.562   1.905  0.8869 -0.2386 -1.7968
 7833TIP3    H244915   4.158   4.706   1.867  0.2594  0.4046  0.8114
 7834TIP3   OH244916   4.186   2.996   0.783  0.1772 -0.0800  0.1762
 7834TIP3    H144917   4.231   3.004   0.699  0.2349  1.2772  0.3123
 7834TIP3    H244918   4.245   2.945   0.837  2.1216  2.4688  0.6759
 7835TIP3   OH244919   6.553   3.406   2.711  0.1053 -0.1261 -0.2834
 7835TIP3    H144920   6.538   3.359   2.793  1.8469  1.3702  0.9840
 7835TIP3    H244921   6.620   3.355   2.666  1.6429  0.7894  0.8670
 7836TIP3   OH244922   6.604   0.219  13.306  0.1870 -0.2835 -0.0262
 7836TIP3    H144923   6.651   0.238  13.386 -1.1166  3.0391  0.1031
 7836TIP3    H244924   6.671   0.220  13.237  0.6787  2.1795  0.4179
 7837TIP3   OH244925   1.185   6.362  16.866 -0.1549 -0.2863  0.6074
 7837TIP3    H144926   1.149   6.320  16.945 -2.5075  3.9244  2.1062
 7837TIP3    H244927   1.267   6.403  16.896 -0.7309  0.7884  0.7667
 7838TIP3   OH244928   0.537   6.721  13.499  0.0235  0.1934 -0.3168
 7838TIP3    H144929   0.540   6.668  13.578  0.1684 -0.1438 -0.5467
 7838TIP3    H244930   0.539   6.812  13.530  1.4390  0.0660  0.0272
 7839TIP3   OH244931   1.431   4.686   5.586  0.4109 -0.2158  0.7062
 7839TIP3    H144932   1.459   4.610   5.637 -0.0681 -0.7682  0.1531
 7839TIP3    H244933   1.422   4.756   5.651  1.1136 -0.5488  1.1831
 7840TIP3   OH244934   6.273   2.990  12.793 -0.4320  0.6010  0.5623
 7840TIP3    H144935   6.301   2.999  12.702  0.1553 -0.0608  0.6708
 7840TIP3    H244936   6.181   2.964  12.786 -0.0486 -0.7633  0.1006
 7841TIP3   OH244937   3.879   0.418   4.985  0.0926  0.3086 -0.3748
 7841TIP3    H144938   3.895   0.370   5.066 -0.7416 -2.8324 -1.8669
 7841TIP3    H244939   3.784   0.435   4.986  0.0280 -0.0018 -0.7762
 7842TIP3   OH244940   4.179   2.935   1.785  0.1996 -0.7578  0.3135
 7842TIP3    H144941   4.274   2.918   1.785  0.4433  0.3347 -1.9862
 7842TIP3    H244942   4.170   3.019   1.830  0.3665 -0.6772  0.1994
 7843TIP3   OH244943   6.162   2.075  12.137  0.5189 -0.3863 -0.0286
 7843TIP3    H144944   6.176   2.102  12.228 -1.1122  3.3388 -0.7103
 7843TIP3    H244945   6.072   2.041  12.136  0.2054  0.4242 -0.3631
 7844TIP3   OH244946   2.169   4.132  11.861 -0.2860  0.1317 -0.1674
 7844TIP3    H144947   2.235   4.107  11.926  0.6368 -0.4956 -1.3123
 7844TIP3    H244948   2.090   4.084  11.888  0.4244 -1.0958 -0.1729
 7845TIP3   OH244949   3.877   6.739  12.217 -0.1417  0.6801 -0.1855
 7845TIP3    H144950   3.849   6.818  12.263  0.5774  0.8319  0.0053
 7845TIP3    H244951   3.912   6.771  12.134 -2.4068  0.3321 -1.3608
 7846TIP3   OH244952   6.661   6.387   6.270  0.5615 -0.3328 -0.2640
 7846TIP3    H144953   6.571   6.413   6.289 -0.2447 -1.8127 -1.8401
 7846TIP3    H244954   6.702   6.467   6.237  0.4631  0.8668  2.2397
 7847TIP3   OH244955   2.802   0.125   4.976  0.0211  0.1240 -0.2590
 7847TIP3    H144956   2.738   0.196   4.969  1.4409  1.3147 -2.3550
 7847TIP3    H244957   2.849   0.144   5.058 -1.1382  0.1971  0.4190
 7848TIP3   OH244958   4.723   2.651  15.459  0.3173 -0.0544  0.3923
 7848TIP3    H144959   4.737   2.574  15.404  0.3194 -0.0145  0.3371
 7848TIP3    H244960   4.802   2.656  15.513  1.1019  0.8988 -0.7863
 7849TIP3   OH244961   6.233   3.758  13.999  0.6184 -0.2471 -0.2215
 7849TIP3    H144962   6.281   3.686  14.039  1.0788 -0.5441 -1.2514
 7849TIP3    H244963   6.261   3.836  14.046 -0.1200 -0.7641  1.1138
 7850TIP3   OH244964   4.894   5.382   5.006 -0.1776 -0.7392 -0.4363
 7850TIP3    H144965   4.849   5.442   4.947  0.4149  1.2348  1.0285
 7850TIP3    H244966   4.987   5.406   5.000 -0.1145 -0.3676  1.3649
 7851TIP3   OH244967   6.071   6.004  11.603 -0.0865  0.3762  0.1073
 7851TIP3    H144968   6.009   6.073  11.581 -1.4183 -0.5732  0.7401
 7851TIP3    H244969   6.027   5.953  11.671  1.5933 -0.0676  0.9129
 7852TIP3   OH244970   2.118   3.594   0.851 -0.8216 -0.8046  0.0931
 7852TIP3    H144971   2.173   3.624   0.923 -2.1301 -0.8677  1.1666
 7852TIP3    H244972   2.146   3.647   0.776  1.3117 -1.5007  0.3376
 7853TIP3   OH244973   6.439   1.365  11.637  0.2713  0.3948 -0.1787
 7853TIP3    H144974   6.482   1.358  11.722  0.0326 -0.0174 -0.0893
 7853TIP3    H244975   6.505   1.336  11.575 -0.1759 -1.1768  0.0470
 7854TIP3   OH244976   6.181   1.102   0.476  0.3306  0.5139 -0.2153
 7854TIP3    H144977   6.208   1.063   0.559  0.8964  2.3451  0.5108
 7854TIP3    H244978   6.257   1.089   0.418  0.0909 -0.3991 -0.3457
 7855TIP3   OH244979   5.197   1.736   5.154 -0.2382  0.3085  0.3153
 7855TIP3    H144980   5.262   1.800   5.183  0.3798  0.8764 -2.0622
 7855TIP3    H244981   5.230   1.652   5.187  1.3935  0.6746 -0.2347
 7856TIP3   OH244982   4.244   5.574   5.189 -0.3804 -0.6305 -0.0616
 7856TIP3    H144983   4.200   5.493   5.213 -1.1723 -0.6201 -1.3423
 7856TIP3    H244984   4.336   5.549   5.177 -0.6855 -1.4340 -0.8306
 7857TIP3   OH244985   6.150   4.001  12.051  0.0976  0.2359  0.5967
 7857TIP3    H144986   6.193   4.086  12.050 -1.5304  1.1878  2.8181
 7857TIP3    H244987   6.070   4.014  12.000  0.4387 -0.3700 -0.1239
 7858TIP3   OH244988   6.328   4.655   1.634  0.6569 -0.0195  0.3298
 7858TIP3    H144989   6.347   4.746   1.611 -0.4910  0.8909  2.6360
 7858TIP3    H244990   6.412   4.619   1.662  0.7031  1.1692  1.8562
 7859TIP3   OH244991   2.410   5.711  13.019  0.1195  0.4017 -1.0498
 7859TIP3    H144992   2.404   5.637  12.959  1.0482  0.5185 -1.2905
 7859TIP3    H244993   2.451   5.781  12.968  1.8822  0.1822 -0.0159
 7860TIP3   OH244994   0.498   2.383   2.547  0.6142  0.0571  0.1487
 7860TIP3    H144995   0.453   2.345   2.471 -0.9529 -0.4743  1.3020
 7860TIP3    H244996   0.543   2.459   2.511  0.0279 -0.2468 -1.3434
 7861TIP3   OH244997   3.266   4.230  16.201  0.3742  0.0665  0.1833
 7861TIP3    H144998   3.199   4.190  16.254  1.9193 -1.8099  0.8309
 7861TIP3    H244999   3.247   4.202  16.111 -0.0232  0.0461  0.2754
 7862TIP3   OH245000   1.139   2.056  15.769  0.0416 -0.0725 -0.1003
 7862TIP3    H145001   1.125   2.037  15.676  1.1450  1.4370 -0.6163
 7862TIP3    H245002   1.092   2.138  15.784  0.6730  0.2039  0.4248
 7863TIP3   OH245003   4.132   4.232  17.101 -0.3119  0.4945 -0.0147
 7863TIP3    H145004   4.108   4.139  17.099 -0.4974  0.4972  1.0575
 7863TIP3    H245005   4.124   4.262  17.011 -3.7575  0.3453  0.1000
 7864TIP3   OH245006   1.488   2.891  13.766  0.0802  0.5015 -0.3294
 7864TIP3    H145007   1.545   2.845  13.704  3.1996 -0.4426  2.8421
 7864TIP3    H245008   1.400   2.877  13.733  1.4883  0.7810 -4.8399
 7865TIP3   OH245009   1.309   3.710  11.461 -0.1617 -0.4033  0.1992
 7865TIP3    H145010   1.288   3.618  11.445 -0.3236 -0.4038  0.4191
 7865TIP3    H245011   1.362   3.736  11.385 -1.0289 -0.3690 -0.4138
 7866TIP3   OH245012   4.527   1.079   3.013 -0.6286  0.0412 -0.7951
 7866TIP3    H145013   4.492   1.145   3.073 -2.3054 -0.4332 -1.1893
 7866TIP3    H245014   4.516   0.996   3.060  0.2449 -0.1034 -0.8303
 7867TIP3   OH245015   2.544   6.344  15.972  0.2011  0.0541 -0.3104
 7867TIP3    H145016   2.531   6.431  16.010 -2.9132 -0.9340  1.2009
 7867TIP3    H245017   2.557   6.361  15.878  0.3114  2.1609  0.0309
 7868TIP3   OH245018   5.581   5.111   5.765  0.5953 -0.0494 -0.5894
 7868TIP3    H145019   5.652   5.048   5.772  0.7364  0.2967  1.8171
 7868TIP3    H245020   5.511   5.075   5.820 -0.0631  0.9406 -0.7534
 7869TIP3   OH245021   3.061   5.681   2.767 -0.0881  0.5684 -0.4887
 7869TIP3    H145022   3.062   5.606   2.826 -1.9295  0.6860 -0.2409
 7869TIP3    H245023   3.133   5.665   2.706 -0.1059 -1.1220 -0.1100
 7870TIP3   OH245024   6.502   1.194   0.613  0.5252  0.4146  0.1189
 7870TIP3    H145025   6.579   1.142   0.633 -0.1492 -0.7228 -0.1449
 7870TIP3    H245026   6.454   1.141   0.549  0.1757  1.6927 -0.7009
 7871TIP3   OH245027   0.675   1.776   4.705 -0.3589  0.0830 -0.3797
 7871TIP3    H145028   0.674   1.852   4.764  0.6345  0.4466 -0.8233
 7871TIP3    H245029   0.663   1.701   4.763 -4.1489  0.6475 -0.1499
 7872TIP3   OH245030   0.680   6.087   4.989  0.2122 -0.1175  0.0094
 7872TIP3    H145031   0.706   6.146   5.060 -0.6494  1.6971 -1.1111
 7872TIP3    H245032   0.589   6.064   5.009  0.6808 -1.5028  0.6833
 7873TIP3   OH245033   4.271   6.254   2.313  0.5455  0.0133  0.1378
 7873TIP3    H145034   4.340   6.287   2.256  3.0840 -0.0052  2.9761
 7873TIP3    H245035   4.279   6.158   2.307  1.0400  0.0124  0.7428
 7874TIP3   OH245036   0.287   6.676   3.864 -0.1143 -0.5383 -0.6171
 7874TIP3    H145037   0.253   6.752   3.912  1.4072 -0.3170  0.1450
 7874TIP3    H245038   0.338   6.627   3.929 -0.9923 -2.1932 -1.1157
 7875TIP3   OH245039   0.842   3.034  11.904  0.1843 -0.4147 -0.0513
 7875TIP3    H145040   0.863   3.041  11.811  0.1751 -2.0037 -0.1994
 7875TIP3    H245041   0.788   3.110  11.923  1.7668  0.9861 -0.8746
 7876TIP3   OH245042   5.023   3.766   0.312 -0.0319  0.4023 -0.9126
 7876TIP3    H145043   5.097   3.798   0.260  0.8618  0.6379  0.4351
 7876TIP3    H245044   4.983   3.845   0.348  0.3443  0.1897  0.0113
 7877TIP3   OH245045   1.545   0.315   2.873 -0.4589  0.6582  0.0614
 7877TIP3    H145046   1.626   0.356   2.902  0.6204 -0.3870 -1.3477
 7877TIP3    H245047   1.573   0.236   2.826 -2.0629  1.9747 -3.4545
 7878TIP3   OH245048   5.588   2.765   3.046 -0.1330 -0.3327  0.2485
 7878TIP3    H145049   5.532   2.717   2.985 -0.1635 -2.5532  1.9170
 7878TIP3    H245050   5.662   2.707   3.062  0.6827  0.8911  1.1093
 7879TIP3   OH245051   4.615   1.755   0.004  0.3867 -0.0239  0.3228
 7879TIP3    H145052   4.610   1.841  -0.037  0.6872  0.8083  1.9434
 7879TIP3    H245053   4.570   1.696  -0.056 -0.3810  1.3787 -0.5134
 7880TIP3   OH245054   2.823   1.768   1.155  0.7192 -0.1929  0.0373
 7880TIP3    H145055   2.878   1.827   1.105  1.9714 -1.6009 -0.3399
 7880TIP3    H245056   2.737   1.774   1.114  0.8795  1.1728 -0.1237
 7881TIP3   OH245057   5.425   4.266  11.541 -0.0838 -0.0387 -0.0981
 7881TIP3    H145058   5.354   4.254  11.477 -0.5674  0.8191  0.2612
 7881TIP3    H245059   5.381   4.262  11.626  0.6815 -2.1065  0.2670
 7882TIP3   OH245060   0.276   5.475  17.199  0.7381 -0.2801  0.9727
 7882TIP3    H145061   0.208   5.539  17.218  2.8434  1.7219  2.2070
 7882TIP3    H245062   0.231   5.391  17.204 -1.9143  0.9794  0.3325
 7883TIP3   OH245063   0.685   5.279  10.854 -0.2545 -0.4336  0.1268
 7883TIP3    H145064   0.756   5.320  10.903 -0.6792 -0.0296  0.4156
 7883TIP3    H245065   0.610   5.283  10.913 -0.4350 -1.1626 -0.0436
 7884TIP3   OH245066   3.033   1.525  10.870  0.6905  0.6308 -0.0576
 7884TIP3    H145067   2.968   1.594  10.882 -0.4131 -0.5600  1.1232
 7884TIP3    H245068   3.019   1.493  10.782  0.1942  0.8962 -0.0779
 7885TIP3   OH245069   4.112   6.506  13.644 -0.2412  0.6753 -0.0100
 7885TIP3    H145070   4.040   6.525  13.584 -0.2565 -0.4001 -0.3600
 7885TIP3    H245071   4.102   6.413  13.664  1.4494  0.3148 -0.6372
 7886TIP3   OH245072   6.700   4.974  12.597  0.2764  0.2795  0.2692
 7886TIP3    H145073   6.794   4.959  12.600  0.4925  1.6264  1.2337
 7886TIP3    H245074   6.663   4.890  12.570  1.6150 -0.8517  1.7568
 7887TIP3   OH245075   4.575   5.506  15.217  0.1413  0.3368  0.6350
 7887TIP3    H145076   4.620   5.495  15.133 -1.0806  1.0609 -0.1296
 7887TIP3    H245077   4.593   5.424  15.264  0.1679 -0.4207 -0.6507
 7888TIP3   OH245078   3.366   0.965  15.702  0.0125 -0.2562 -0.2248
 7888TIP3    H145079   3.435   0.915  15.658  0.9597  0.8402 -0.0073
 7888TIP3    H245080   3.296   0.900  15.716  1.2687 -1.5772  0.2112
 7889TIP3   OH245081   5.414   2.659   0.969 -0.0251 -0.2472 -0.5925
 7889TIP3    H145082   5.470   2.706   1.031  0.9263 -1.4146 -0.5447
 7889TIP3    H245083   5.412   2.715   0.891 -2.1517  1.8160  0.7944
 7890TIP3   OH245084   6.273   6.053  12.769  0.4270 -0.1570  0.0877
 7890TIP3    H145085   6.326   6.132  12.773  0.0024  0.1318  0.1029
 7890TIP3    H245086   6.258   6.039  12.675 -2.4175  1.7980  0.1033
 7891TIP3   OH245087   4.900   1.035   6.942  0.0759 -0.0980 -0.0437
 7891TIP3    H145088   4.822   1.083   6.968 -0.3499  0.5947 -2.3284
 7891TIP3    H245089   4.932   1.081   6.864  1.7712 -1.3906 -0.1960
 7892TIP3   OH245090   0.126   3.639  12.141 -0.4773  0.3168  0.0262
 7892TIP3    H145091   0.054   3.680  12.093 -0.2539  0.6168 -0.0525
 7892TIP3    H245092   0.204   3.658  12.089 -0.2278  0.6648  0.5168
 7893TIP3   OH245093   0.198   1.823  16.065 -0.0230  0.1567 -0.7130
 7893TIP3    H145094   0.224   1.875  16.140 -1.7109 -1.2590  0.9637
 7893TIP3    H245095   0.228   1.873  15.989  1.4853  1.7817  0.8632
 7894TIP3   OH245096   2.673   1.552   3.234 -0.1478  0.2307  0.2362
 7894TIP3    H145097   2.613   1.601   3.290 -1.0205 -0.7446  0.1714
 7894TIP3    H245098   2.697   1.475   3.286  0.4477  0.2187 -0.0439
 7895TIP3   OH245099   6.208   4.588   1.354 -0.1237 -0.1817 -0.6673
 7895TIP3    H145100   6.171   4.673   1.330  0.5988 -0.0870 -1.4894
 7895TIP3    H245101   6.265   4.607   1.429 -0.8545 -0.1454 -0.1101
 7896TIP3   OH245102   4.946   2.846   1.896 -0.1970 -0.3884  0.3077
 7896TIP3    H145103   5.023   2.898   1.919 -1.8104  1.8023  1.1369
 7896TIP3    H245104   4.887   2.908   1.853 -1.4240 -2.0583 -0.5590
 7897TIP3   OH245105   4.711   2.129   3.811  0.5175 -0.0083  0.4085
 7897TIP3    H145106   4.668   2.102   3.892 -0.8577 -1.9340 -0.8931
 7897TIP3    H245107   4.802   2.145   3.836  0.1313 -0.5984  2.3008
 7898TIP3   OH245108   2.054   1.840   5.536 -0.1145 -0.4673 -0.0837
 7898TIP3    H145109   1.975   1.816   5.487 -0.7071  0.8881  0.1744
 7898TIP3    H245110   2.087   1.756   5.570 -1.7313 -1.0064  0.2459
 7899TIP3   OH245111   1.018   4.789  10.708  0.7459 -0.8193 -0.1895
 7899TIP3    H145112   1.001   4.831  10.792  0.8511 -1.0283 -0.0620
 7899TIP3    H245113   1.098   4.737  10.723  1.3665 -0.0421 -0.7090
 7900TIP3   OH245114   6.284   2.071   1.630 -0.2990 -0.0278 -0.1739
 7900TIP3    H145115   6.311   2.046   1.541  0.7864  1.4218 -0.2852
 7900TIP3    H245116   6.195   2.105   1.619 -0.3138 -0.2071 -0.6438
 7901TIP3   OH245117   6.083   0.285   4.837  0.1821 -0.0511 -0.2447
 7901TIP3    H145118   6.156   0.282   4.899  0.1540 -2.1478 -0.2429
 7901TIP3    H245119   6.017   0.339   4.880  0.9128  0.1154  0.6959
 7902TIP3   OH245120   4.218   1.771  15.561  0.6168 -0.0922 -0.1365
 7902TIP3    H145121   4.186   1.768  15.471  1.0037  0.2712 -0.2865
 7902TIP3    H245122   4.304   1.731  15.558  0.1253 -1.2118  0.3019
 7903TIP3   OH245123   6.371   4.877   3.415  0.1642  0.6057 -0.6099
 7903TIP3    H145124   6.465   4.860   3.423  0.2284  1.2758  0.2920
 7903TIP3    H245125   6.365   4.971   3.398 -0.3348  0.5425 -0.8013
 7904TIP3   OH245126   4.920   1.460  17.048  0.0169  0.0806 -0.5013
 7904TIP3    H145127   4.924   1.544  17.003 -0.0470 -0.5164 -1.6705
 7904TIP3    H245128   4.829   1.431  17.036  0.3014 -0.6280 -1.0351
 7905TIP3   OH245129   6.493   0.203  16.921  0.3056 -0.0093  0.3867
 7905TIP3    H145130   6.447   0.260  16.860  0.0425 -1.8234 -1.2290
 7905TIP3    H245131   6.440   0.123  16.923  1.7063 -0.9566  0.9717
 7906TIP3   OH245132   0.590   2.120   0.513 -0.6519  0.0832 -0.1512
 7906TIP3    H145133   0.641   2.199   0.496  0.9803 -0.0649  3.2909
 7906TIP3    H245134   0.525   2.147   0.578  0.0485 -1.4071  1.2152
 7907TIP3   OH245135   4.302   6.273   3.362  0.0161 -0.5355 -0.6725
 7907TIP3    H145136   4.374   6.221   3.326  2.3126  0.6054  1.9126
 7907TIP3    H245137   4.283   6.232   3.447 -3.3088 -1.5054 -1.7326
 7908TIP3   OH245138   1.388   3.033   3.846  0.0843  0.2157 -0.0534
 7908TIP3    H145139   1.301   3.011   3.812 -0.8249  0.6686  1.8382
 7908TIP3    H245140   1.428   3.085   3.777 -1.3893  0.4934 -0.7358
 7909TIP3   OH245141   4.062   6.133  11.442  0.4352  0.6041 -0.0354
 7909TIP3    H145142   3.975   6.097  11.458 -1.1419  3.8077 -0.6411
 7909TIP3    H245143   4.117   6.094  11.510 -1.4324 -1.4625  0.4090
 7910TIP3   OH245144   1.604   2.698   2.621  0.2586 -1.0757  0.3508
 7910TIP3    H145145   1.657   2.763   2.667 -0.0239 -0.6275  0.0550
 7910TIP3    H245146   1.587   2.737   2.535  0.3897 -1.6972  0.0362
 7911TIP3   OH245147   3.404   0.109   4.960  0.0159 -0.1473 -0.7322
 7911TIP3    H145148   3.468   0.041   4.980  0.8884  0.7734 -0.2948
 7911TIP3    H245149   3.320   0.064   4.960  0.3932 -0.9508  1.0795
 7912TIP3   OH245150   4.359   1.661  14.775  0.1530 -0.2706 -0.1769
 7912TIP3    H145151   4.294   1.604  14.816 -0.2713 -0.0519 -0.5359
 7912TIP3    H245152   4.314   1.745  14.764  1.4298  0.8573  2.3607
 7913TIP3   OH245153   1.415   3.391   3.807 -0.0243 -0.1068 -0.2723
 7913TIP3    H145154   1.471   3.466   3.824  0.6549 -0.6355 -0.0952
 7913TIP3    H245155   1.467   3.336   3.748 -0.0273 -0.9856  0.5256
 7914TIP3   OH245156   0.399   5.680   1.792  0.0704 -0.8084  0.5302
 7914TIP3    H145157   0.348   5.753   1.758  0.2791 -1.2902 -0.9084
 7914TIP3    H245158   0.484   5.689   1.749  0.8480 -0.6483  2.0395
 7915TIP3   OH245159   2.089   0.455  15.285  0.7270  0.1024 -1.0059
 7915TIP3    H145160   2.031   0.383  15.259  1.9374 -1.2742 -0.0459
 7915TIP3    H245161   2.056   0.484  15.370  1.3556 -0.6084 -0.5103
 7916TIP3   OH245162   6.595   6.432  16.728  0.1071  0.3263 -0.0791
 7916TIP3    H145163   6.633   6.518  16.742 -1.6197  1.2327 -0.6717
 7916TIP3    H245164   6.668   6.371  16.740  1.2043  1.7990  1.0836
 7917TIP3   OH245165   4.740   2.248   6.566  0.0083  0.1796  0.2323
 7917TIP3    H145166   4.744   2.323   6.624 -0.3623  1.5123 -1.3854
 7917TIP3    H245167   4.695   2.180   6.617  0.3961  1.0205  1.7320
 7918TIP3   OH245168   0.558   4.971   6.009 -0.6615 -0.0463 -0.2717
 7918TIP3    H145169   0.535   5.058   6.044  2.5288  0.3457  1.1775
 7918TIP3    H245170   0.627   4.989   5.945  0.7537 -1.5497  0.7790
 7919TIP3   OH245171   1.105   2.766  11.825  0.5370  0.1858 -0.8343
 7919TIP3    H145172   1.108   2.682  11.779 -2.0333  0.8985 -2.5044
 7919TIP3    H245173   1.196   2.789  11.840  1.3307 -2.5640 -0.9134
 7920TIP3   OH245174   2.914   6.731  13.095  0.0836 -0.2899  0.1176
 7920TIP3    H145175   2.974   6.773  13.157  0.0695 -0.1145  0.0108
 7920TIP3    H245176   2.951   6.750  13.009 -0.3652  0.1912  0.0260
 7921TIP3   OH245177   2.562   3.986  15.766  0.4262  0.3678  0.1848
 7921TIP3    H145178   2.570   4.068  15.814 -1.5021  0.2299  0.8218
 7921TIP3    H245179   2.487   3.942  15.805  1.6483 -1.9249  0.1377
 7922TIP3   OH245180   5.176   2.463   0.375  0.1087 -0.4322 -0.3275
 7922TIP3    H145181   5.138   2.380   0.403 -1.7044 -0.2479 -2.0725
 7922TIP3    H245182   5.220   2.496   0.453 -2.3407 -1.2402  1.5106
 7923TIP3   OH245183   4.420   6.558  12.281 -0.1177  0.4802  0.1007
 7923TIP3    H145184   4.476   6.598  12.347  0.1150  1.9284 -0.9488
 7923TIP3    H245185   4.470   6.562  12.200 -1.9843  2.5983 -1.0597
 7924TIP3   OH245186   3.398   3.072   4.994  0.1725  0.0146 -0.0245
 7924TIP3    H145187   3.373   2.980   4.991  0.8102 -0.1562 -0.2002
 7924TIP3    H245188   3.329   3.114   5.046  0.1427 -0.6374  0.4673
 7925TIP3   OH245189   5.941   0.514  10.636  0.3407  0.0609  0.2597
 7925TIP3    H145190   5.942   0.419  10.634  2.5835 -0.0525 -3.6906
 7925TIP3    H245191   5.860   0.538  10.590  0.3951  0.0054  0.1336
 7926TIP3   OH245192   5.532   5.119   2.993  0.7922  0.1168 -0.1135
 7926TIP3    H145193   5.457   5.062   2.974  1.1960  0.0853 -1.7302
 7926TIP3    H245194   5.496   5.207   2.988  0.1165  0.0721  2.6087
 7927TIP3   OH245195   4.587   3.258  15.339  0.3977 -0.8088  0.8391
 7927TIP3    H145196   4.561   3.168  15.361 -0.3533 -0.7849  0.0998
 7927TIP3    H245197   4.510   3.311  15.363  1.1308 -0.2425  2.0391
 7928TIP3   OH245198   2.813   2.185   3.817  0.5059 -0.0516 -0.0843
 7928TIP3    H145199   2.805   2.103   3.865 -1.4506 -0.3324 -0.8236
 7928TIP3    H245200   2.751   2.244   3.859  0.4294  0.4081 -0.8235
 7929TIP3   OH245201   3.207   2.475   5.499  0.3294 -0.7257 -0.0180
 7929TIP3    H145202   3.134   2.438   5.449 -0.7806 -0.1192  1.0663
 7929TIP3    H245203   3.210   2.422   5.579  1.9750 -1.5882 -0.6026
 7930TIP3   OH245204   4.205   0.431   1.467 -0.5922  0.3104 -0.4681
 7930TIP3    H145205   4.180   0.480   1.389 -0.7792  1.7869  0.4871
 7930TIP3    H245206   4.123   0.411   1.510 -0.5596 -1.3846 -1.1239
 7931TIP3   OH245207   3.569   5.302   5.795  0.0907  0.0736  0.1556
 7931TIP3    H145208   3.525   5.251   5.727 -1.6363  0.1567  1.1580
 7931TIP3    H245209   3.514   5.380   5.806  1.7630  1.3510 -0.1516
 7932TIP3   OH245210   2.975   2.616   5.721 -0.0527  0.5557 -0.6052
 7932TIP3    H145211   3.018   2.531   5.731 -0.8615  0.2519  0.5439
 7932TIP3    H245212   2.955   2.643   5.810 -2.2819  0.6306 -1.0684
 7933TIP3   OH245213   0.243   1.554  13.290  0.7230  0.0687  0.2250
 7933TIP3    H145214   0.257   1.606  13.369  0.6330 -2.8787  2.3592
 7933TIP3    H245215   0.149   1.557  13.275  0.2428 -1.9626  2.3148
 7934TIP3   OH245216   1.411   1.342  15.191 -0.2478 -0.4318  0.0162
 7934TIP3    H145217   1.432   1.298  15.273 -3.3829 -0.2114  1.0689
 7934TIP3    H245218   1.391   1.271  15.130 -2.1405 -0.6146  0.7773
 7935TIP3   OH245219   0.667   0.605  16.720 -0.6796 -0.3315 -0.3367
 7935TIP3    H145220   0.756   0.630  16.696 -1.1318  0.1949 -1.5219
 7935TIP3    H245221   0.662   0.623  16.814  0.2395  0.2964 -0.3921
 7936TIP3   OH245222   1.331   5.219  14.303 -0.5519 -0.1073  0.2497
 7936TIP3    H145223   1.385   5.189  14.376  0.7531  0.5472 -0.4259
 7936TIP3    H245224   1.306   5.309  14.327 -1.2700 -0.3598  0.4967
 7937TIP3   OH245225   2.202   2.995   5.358  0.3235 -0.3489  0.1551
 7937TIP3    H145226   2.261   3.069   5.344  1.5345 -1.1781  0.6879
 7937TIP3    H245227   2.155   3.016   5.439 -0.2266  0.3743 -0.3409
 7938TIP3   OH245228   4.888   6.202  15.736  0.0468 -0.1656 -0.9041
 7938TIP3    H145229   4.804   6.157  15.747 -0.5308  1.2221  0.7040
 7938TIP3    H245230   4.864   6.292  15.716  1.1177  0.6054  1.0790
 7939TIP3   OH245231   1.301   2.352   1.860  0.4925 -0.1301  0.2356
 7939TIP3    H145232   1.321   2.372   1.769 -0.4907 -1.1729 -0.2379
 7939TIP3    H245233   1.384   2.322   1.897  0.6457 -0.8082 -0.6417
 7940TIP3   OH245234   6.362   3.536   4.861 -0.4830 -0.4903  0.1630
 7940TIP3    H145235   6.371   3.492   4.945  1.2576 -1.6207 -0.5398
 7940TIP3    H245236   6.355   3.629   4.882  0.5754 -0.6864  1.5390
 7941TIP3   OH245237   6.616   3.756  16.065 -0.6412 -0.1465 -0.1465
 7941TIP3    H145238   6.548   3.688  16.072  1.4945 -2.4610 -0.5692
 7941TIP3    H245239   6.586   3.812  15.993 -2.5070 -0.5436  0.2527
 7942TIP3   OH245240   4.290   0.934  15.171 -0.3120 -0.0958  0.5318
 7942TIP3    H145241   4.376   0.938  15.213 -0.8561 -1.5488  1.9218
 7942TIP3    H245242   4.296   0.858  15.113 -0.0321  1.0265 -0.9300
 7943TIP3   OH245243   0.635   6.543  14.950  0.2922 -0.0964  0.2453
 7943TIP3    H145244   0.710   6.544  15.010  0.6489  0.0205 -0.2018
 7943TIP3    H245245   0.646   6.622  14.897  0.8197 -0.9873 -1.0051
 7944TIP3   OH245246   1.114   0.516  14.844  0.2812 -0.2239 -0.3788
 7944TIP3    H145247   1.050   0.456  14.883  1.4271 -0.3615  1.4032
 7944TIP3    H245248   1.062   0.585  14.804 -0.9964 -0.3204  1.0478
 7945TIP3   OH245249   6.477   1.482  14.441  0.3793 -0.5912  0.2343
 7945TIP3    H145250   6.399   1.537  14.441 -0.0711 -1.2099  0.4414
 7945TIP3    H245251   6.522   1.505  14.359  0.2019  0.0699  0.3161
 7946TIP3   OH245252   4.688   5.659   2.927 -0.2114  0.1267 -0.0668
 7946TIP3    H145253   4.661   5.627   2.841 -1.2982  1.2356 -0.1658
 7946TIP3    H245254   4.622   5.624   2.987  0.7833 -1.0030  0.4144
 7947TIP3   OH245255   4.679   1.673  14.012 -0.4726 -0.2419  0.4853
 7947TIP3    H145256   4.673   1.694  13.919  0.0585  1.3649  0.7821
 7947TIP3    H245257   4.588   1.656  14.038 -0.7324  0.1372 -0.1454
 7948TIP3   OH245258   2.358   0.005  16.600 -0.2342  0.6175  0.1088
 7948TIP3    H145259   2.396  -0.073  16.640  0.6705  0.9786 -0.0219
 7948TIP3    H245260   2.272  -0.023  16.570  0.1732 -0.4061 -0.1550
 7949TIP3   OH245261   1.187   6.020   3.827  0.5227 -0.0677 -0.0814
 7949TIP3    H145262   1.099   5.987   3.812  0.4512  0.2784 -0.4337
 7949TIP3    H245263   1.222   6.036   3.739  0.5336  0.8324  0.0729
 7950TIP3   OH245264   3.182   4.056  13.840 -0.2303  0.0266  0.3237
 7950TIP3    H145265   3.266   4.014  13.820 -0.8729 -0.8316 -0.6904
 7950TIP3    H245266   3.141   4.000  13.905 -0.4184 -0.0860  0.1122
 7951TIP3   OH245267   4.794   2.440   0.546  0.5276 -0.0796  0.4305
 7951TIP3    H145268   4.851   2.363   0.544  1.0102  0.2883 -0.2316
 7951TIP3    H245269   4.848   2.510   0.583  0.3378  0.1355  0.3095
 7952TIP3   OH245270   3.818   2.908  15.223  0.5325 -0.1869 -0.1479
 7952TIP3    H145271   3.857   2.994  15.211  0.5455 -0.1145  0.3680
 7952TIP3    H245272   3.785   2.883  15.137 -0.5700  0.8609 -0.0584
 7953TIP3   OH245273   1.817   0.445  13.715 -0.3859  0.5970 -0.2924
 7953TIP3    H145274   1.780   0.533  13.707 -0.2115  0.5783 -1.5081
 7953TIP3    H245275   1.812   0.425  13.808 -2.1652  1.1494 -0.2190
 7954TIP3   OH245276   3.481   3.829  15.887  0.3262  1.1428 -0.9918
 7954TIP3    H145277   3.557   3.887  15.888  2.3528 -1.2848 -2.4922
 7954TIP3    H245278   3.484   3.786  15.801 -0.2142 -2.1482  0.4767
 7955TIP3   OH245279   0.977   4.352  13.040 -0.7092 -0.0861 -0.0281
 7955TIP3    H145280   0.918   4.414  12.998 -0.2270  0.2717 -0.1965
 7955TIP3    H245281   1.061   4.364  12.994 -0.2763  0.0303  0.7656
 7956TIP3   OH245282   1.602   4.788   4.488 -0.1142 -0.2054 -0.0259
 7956TIP3    H145283   1.611   4.871   4.441 -0.6310 -0.6150 -0.8964
 7956TIP3    H245284   1.675   4.786   4.550 -0.2114  0.9791  0.1423
 7957TIP3   OH245285   5.596   1.191  14.970  0.0673  0.0574  0.3421
 7957TIP3    H145286   5.515   1.200  14.921 -0.0063  0.1226  0.4740
 7957TIP3    H245287   5.571   1.139  15.047 -0.0182  0.7386  0.7819
 7958TIP3   OH245288   1.250   2.869   3.541  0.0023 -0.3387 -0.1738
 7958TIP3    H145289   1.190   2.937   3.571 -1.1254 -0.7385 -1.4060
 7958TIP3    H245290   1.295   2.908   3.466  1.9739  0.2642  1.2541
 7959TIP3   OH245291   0.056   3.082   2.968  0.3759 -0.2759  0.3435
 7959TIP3    H145292  -0.004   3.089   3.042  1.9405 -1.4221  1.7925
 7959TIP3    H245293   0.137   3.047   3.006  0.9239 -1.8474 -2.0660
 7960TIP3   OH245294   2.730   6.008  13.509  0.9691 -0.0399  0.6133
 7960TIP3    H145295   2.672   6.061  13.454  0.2124 -0.8205  0.6485
 7960TIP3    H245296   2.798   5.976  13.449  1.5448  1.0955  0.6257
 7961TIP3   OH245297   4.087   3.297   5.436  0.3722  0.2293  0.3954
 7961TIP3    H145298   4.138   3.367   5.477  0.9847 -0.6156  1.0972
 7961TIP3    H245299   4.109   3.303   5.343  2.2151 -0.4618  0.7379
 7962TIP3   OH245300   0.726   1.532   3.202  0.5057  0.4431 -0.2451
 7962TIP3    H145301   0.688   1.444   3.199  0.8586  0.2353  0.9137
 7962TIP3    H245302   0.651   1.590   3.207  0.2872  0.1616 -0.2192
 7963TIP3   OH245303   1.748   4.489   0.764 -0.6086 -0.7805 -0.6724
 7963TIP3    H145304   1.832   4.443   0.773 -1.7997 -2.9487  0.1637
 7963TIP3    H245305   1.772   4.578   0.737  2.0550 -0.8529  1.0201
 7964TIP3   OH245306   0.493   0.895   6.579 -0.0234 -0.7624  0.4174
 7964TIP3    H145307   0.560   0.951   6.541  1.3851 -1.7562  1.3346
 7964TIP3    H245308   0.464   0.941   6.658 -0.2997 -0.4334  0.1312
 7965TIP3   OH245309   2.461   3.592  12.021 -0.2556 -0.0243  0.6367
 7965TIP3    H145310   2.395   3.534  12.058  1.2550 -0.8534  2.1724
 7965TIP3    H245311   2.521   3.609  12.093  0.9881  1.0314 -0.5931
 7966TIP3   OH245312   6.369   4.847  15.193 -0.8405 -0.2267  0.0789
 7966TIP3    H145313   6.387   4.932  15.232 -1.7581  0.6130 -1.2582
 7966TIP3    H245314   6.275   4.847  15.178 -0.7084 -1.0771 -0.8354
 7967TIP3   OH245315   2.981   0.944  13.347  0.2503  0.0793 -0.4800
 7967TIP3    H145316   2.978   1.039  13.343  0.6014  0.0695 -1.4108
 7967TIP3    H245317   2.915   0.915  13.283  1.3154 -0.2712 -1.4659
 7968TIP3   OH245318   5.725   6.607   5.330 -0.4868 -0.9097 -0.4053
 7968TIP3    H145319   5.762   6.680   5.381 -1.8301  0.3070 -1.0871
 7968TIP3    H245320   5.768   6.529   5.365  0.9102  0.1880  0.4463
 7969TIP3   OH245321   4.564   0.749  10.656  0.5589  0.1353  0.0339
 7969TIP3    H145322   4.557   0.806  10.579  0.9703 -0.5415 -0.5170
 7969TIP3    H245323   4.582   0.662  10.620 -2.9606 -0.9890  0.6838
 7970TIP3   OH245324   1.527   2.466   5.522 -0.7894 -0.3708 -0.0137
 7970TIP3    H145325   1.531   2.534   5.455 -1.1436 -1.1844 -0.8951
 7970TIP3    H245326   1.489   2.509   5.599 -2.4457  0.0755 -1.0362
 7971TIP3   OH245327   5.683   2.586   1.134 -0.6863  0.1998  0.4061
 7971TIP3    H145328   5.625   2.511   1.150 -0.9448  0.1387 -0.7534
 7971TIP3    H245329   5.628   2.663   1.148 -0.5937  0.1629  0.9696
 7972TIP3   OH245330   3.691   5.131   4.746 -0.1752  0.0244  0.0095
 7972TIP3    H145331   3.678   5.041   4.776 -1.0281  0.0103 -0.3880
 7972TIP3    H245332   3.683   5.184   4.825  3.3905 -0.4227  0.8722
 7973TIP3   OH245333   5.511   4.084   2.947 -0.2761  0.1193 -0.0017
 7973TIP3    H145334   5.603   4.065   2.966 -0.3954  0.7118  1.3697
 7973TIP3    H245335   5.482   4.136   3.022 -1.1562  1.7770 -1.4175
 7974TIP3   OH245336   6.125   0.854  14.832  0.3240 -0.2708  1.0045
 7974TIP3    H145337   6.217   0.834  14.817  0.3833 -1.1304  2.2912
 7974TIP3    H245338   6.119   0.949  14.822  0.6704 -0.4797 -2.2094
 7975TIP3   OH245339   3.333   3.031  13.257 -0.0525 -0.0266 -0.1993
 7975TIP3    H145340   3.242   3.003  13.253  0.2004 -0.8413 -0.4995
 7975TIP3    H245341   3.355   3.029  13.351 -0.4041  0.3867 -0.1078
 7976TIP3   OH245342   5.550   2.344   2.781  0.2421 -0.5014 -0.5651
 7976TIP3    H145343   5.582   2.402   2.712  1.3544  1.3625  1.3874
 7976TIP3    H245344   5.481   2.394   2.825 -0.8258 -1.8594 -0.6280
 7977TIP3   OH245345   5.312   5.351  14.494 -0.0287  0.1979 -0.4641
 7977TIP3    H145346   5.255   5.352  14.418 -2.0522 -0.4599  0.9425
 7977TIP3    H245347   5.364   5.271  14.484 -0.2993  0.1053 -1.1467
 7978TIP3   OH245348   3.837   1.587   1.237  0.6228  0.1061  0.1848
 7978TIP3    H145349   3.796   1.544   1.162  0.3274  1.8747 -0.7140
 7978TIP3    H245350   3.792   1.671   1.245  1.7298  0.6343  1.3524
 7979TIP3   OH245351   4.229   3.908  15.428 -0.0418  0.1479  0.4647
 7979TIP3    H145352   4.250   3.942  15.515 -1.7860  0.4963  0.7836
 7979TIP3    H245353   4.156   3.961  15.398 -1.4255 -1.8770  0.0442
 7980TIP3   OH245354   2.240   1.889   1.495 -0.4992 -0.1216  0.6340
 7980TIP3    H145355   2.187   1.967   1.475 -2.0277 -1.0033  1.0586
 7980TIP3    H245356   2.325   1.908   1.457 -1.7697  0.4247 -2.2162
 7981TIP3   OH245357   2.507   0.664   4.887  0.0947 -0.0411  0.2789
 7981TIP3    H145358   2.599   0.652   4.866 -0.1865  2.0903 -2.8014
 7981TIP3    H245359   2.463   0.590   4.844  0.2634 -0.6060  1.0576
 7982TIP3   OH245360   2.092   3.852  14.224 -0.2871  0.1733  0.0217
 7982TIP3    H145361   2.171   3.901  14.247 -1.4486  1.5135  1.4109
 7982TIP3    H245362   2.064   3.811  14.306 -1.0250 -0.2740 -0.4416
 7983TIP3   OH245363   5.902   1.909  14.607  0.0050 -0.3930 -0.0296
 7983TIP3    H145364   5.820   1.951  14.632 -1.7953 -3.0418 -1.0433
 7983TIP3    H245365   5.920   1.940  14.519 -0.2696 -0.3019 -0.0524
 7984TIP3   OH245366   1.510   6.186  11.778  0.1606  0.5038 -0.7059
 7984TIP3    H145367   1.438   6.152  11.724 -0.2378  0.4249 -0.1362
 7984TIP3    H245368   1.587   6.180  11.722 -0.3112  0.7681 -1.3969
 7985TIP3   OH245369   5.388   5.205  16.290 -0.0478  0.2830  0.0362
 7985TIP3    H145370   5.430   5.129  16.329 -1.2277 -0.0573  0.7082
 7985TIP3    H245371   5.387   5.270  16.360 -0.9442  0.1546  0.1577
 7986TIP3   OH245372   5.193   2.140  14.407 -0.3165 -0.3461  0.4686
 7986TIP3    H145373   5.220   2.208  14.469  1.2532 -1.3517  0.9479
 7986TIP3    H245374   5.273   2.090  14.390 -0.8600 -0.5049 -1.8894
 7987TIP3   OH245375   2.895   6.184  16.202 -0.1710  0.0446 -0.1355
 7987TIP3    H145376   2.822   6.193  16.264 -0.2390  1.3003 -0.3778
 7987TIP3    H245377   2.854   6.168  16.118 -0.1198 -0.2793 -0.1034
 7988TIP3   OH245378   4.193   2.052   4.389 -0.2045  0.0910 -0.0886
 7988TIP3    H145379   4.245   2.033   4.311  1.7431  0.4914  1.0175
 7988TIP3    H245380   4.169   2.144   4.380 -1.8398 -0.3988 -1.1743
 7989TIP3   OH245381   0.265   5.907   1.038 -0.0271  0.1197  0.5879
 7989TIP3    H145382   0.231   5.934   1.123  0.6481 -0.5765  1.0960
 7989TIP3    H245383   0.328   5.838   1.058 -1.2411 -1.4215 -0.6024
 7990TIP3   OH245384   5.234   5.731  12.860  0.0956 -0.0968  0.2852
 7990TIP3    H145385   5.283   5.696  12.934  1.0755 -0.5444 -0.5585
 7990TIP3    H245386   5.189   5.655  12.824 -0.8532  0.2243  0.7561
 7991TIP3   OH245387   0.264   6.460  11.303 -0.5469 -0.0860 -0.2564
 7991TIP3    H145388   0.345   6.466  11.352 -0.7296  0.2081  0.0142
 7991TIP3    H245389   0.266   6.373  11.263 -0.2067 -0.1645 -0.0682
 7992TIP3   OH245390   4.897   4.477  13.997 -0.5523 -0.1180 -0.0363
 7992TIP3    H145391   4.914   4.567  14.026  1.1272 -0.3553 -0.1689
 7992TIP3    H245392   4.864   4.432  14.074 -0.8005  0.4610  0.1979
 7993TIP3   OH245393   3.115   3.001  16.661  0.5168 -0.6683  0.3607
 7993TIP3    H145394   3.156   2.914  16.668  1.7759 -0.2129 -0.7316
 7993TIP3    H245395   3.022   2.983  16.650  0.7951 -1.9074 -0.1767
 7994TIP3   OH245396   3.941   5.944  14.494 -0.1740 -0.2232 -0.5024
 7994TIP3    H145397   3.856   5.901  14.502  0.2610 -0.9382  0.3337
 7994TIP3    H245398   4.004   5.883  14.533  1.1153 -0.8754 -3.3181
 7995TIP3   OH245399   1.771   2.776  12.739 -0.5120 -0.0555 -0.0467
 7995TIP3    H145400   1.839   2.837  12.768 -0.2451  0.3192 -1.3674
 7995TIP3    H245401   1.817   2.717  12.679 -1.2406 -0.1397 -0.5304
 7996TIP3   OH245402   1.798   2.545   6.383  0.5686 -0.3281 -0.3694
 7996TIP3    H145403   1.726   2.566   6.443  0.9426  2.0083 -0.6472
 7996TIP3    H245404   1.755   2.506   6.307 -0.2522 -0.2322  0.0335
 7997TIP3   OH245405   0.754   0.756   4.753 -0.2770  0.2396 -0.4713
 7997TIP3    H145406   0.703   0.713   4.685 -1.8311 -0.0219  0.7987
 7997TIP3    H245407   0.689   0.782   4.819  1.2651 -0.6079  1.4957
 7998TIP3   OH245408   5.160   0.004   2.538  0.0246  0.2402  0.1039
 7998TIP3    H145409   5.106  -0.028   2.466 -0.8761 -2.7374  1.9041
 7998TIP3    H245410   5.104   0.067   2.584 -1.5677 -1.8917  1.2338
 7999TIP3   OH245411   3.721   4.835  15.680 -0.1477 -0.0009  0.9367
 7999TIP3    H145412   3.788   4.849  15.614  0.2255  1.2097  1.5500
 7999TIP3    H245413   3.736   4.746  15.711 -0.1052 -0.4581 -0.3297
 8000TIP3   OH245414   2.834   3.181   1.556 -0.0453 -0.1486 -0.1073
 8000TIP3    H145415   2.783   3.213   1.630  0.8274 -1.0365  0.9076
 8000TIP3    H245416   2.885   3.108   1.591  0.9157 -0.1478 -1.4119
 8001TIP3   OH245417   5.801   0.171   5.766  0.2041 -0.2689 -0.0516
 8001TIP3    H145418   5.731   0.214   5.815  0.0606  0.0094 -0.4950
 8001TIP3    H245419   5.872   0.234   5.764  0.6907 -0.7694  0.8864
 8002TIP3   OH245420   5.587   5.702  15.999 -0.2415 -0.3512 -0.6125
 8002TIP3    H145421   5.562   5.784  16.041  0.1874 -0.3132 -0.4357
 8002TIP3    H245422   5.668   5.676  16.043 -0.7524 -1.2379 -0.1720
 8003TIP3   OH245423   3.784   0.567  13.089 -0.8807 -0.3308  0.2125
 8003TIP3    H145424   3.759   0.506  13.020  2.0501 -0.4381 -0.9137
 8003TIP3    H245425   3.816   0.512  13.160 -0.2952 -0.1774  0.0761
 8004TIP3   OH245426   5.158   1.369  16.749  0.4340 -0.3921  0.6303
 8004TIP3    H145427   5.125   1.295  16.800 -0.2694 -3.0494 -3.2362
 8004TIP3    H245428   5.225   1.331  16.692  0.7566  2.1489 -0.8454
 8005TIP3   OH245429   0.545   6.397   3.877  0.2675 -0.0856  0.9350
 8005TIP3    H145430   0.574   6.451   3.804  1.6442 -0.9607  0.7998
 8005TIP3    H245431   0.460   6.364   3.850 -0.5570  1.8735  0.9706
 8006TIP3   OH245432   2.407   3.905   1.517 -0.0267 -0.1767 -0.0568
 8006TIP3    H145433   2.497   3.938   1.516  0.3246 -1.0838 -0.1634
 8006TIP3    H245434   2.387   3.893   1.609 -0.0747  0.1200 -0.0281
 8007TIP3   OH245435   4.463   3.076  11.625 -0.3275 -0.2259  0.6727
 8007TIP3    H145436   4.437   3.102  11.714  1.5365 -1.0023  1.4903
 8007TIP3    H245437   4.527   3.006  11.638  2.3868  1.7325 -1.1551
 8008TIP3   OH245438   0.853   1.881  16.489 -0.0826  0.3090 -0.2406
 8008TIP3    H145439   0.907   1.959  16.477 -2.3223  1.7966 -1.3328
 8008TIP3    H245440   0.797   1.901  16.564  0.6173 -1.0725  0.6836
 8009TIP3   OH245441   4.259   6.599  10.657  0.2786  0.2311 -0.6043
 8009TIP3    H145442   4.170   6.631  10.667  0.9935  1.7151  2.2778
 8009TIP3    H245443   4.251   6.504  10.657 -1.2507  0.3320  0.5312
 8010TIP3   OH245444   5.842   6.305  12.126 -0.2396 -0.2228 -0.0295
 8010TIP3    H145445   5.766   6.259  12.163 -0.4329 -0.4018 -0.6474
 8010TIP3    H245446   5.830   6.396  12.154  0.7894 -0.7130  2.2575
 8011TIP3   OH245447   6.684   3.314   4.922  0.0421 -0.1406 -0.0667
 8011TIP3    H145448   6.691   3.224   4.955  0.9806  0.2152  0.7674
 8011TIP3    H245449   6.612   3.311   4.860 -0.0720 -1.4307  0.0939
 8012TIP3   OH245450   3.994   5.845   6.114 -0.4484 -0.8699  0.2678
 8012TIP3    H145451   3.911   5.893   6.109 -0.4650 -0.9234  0.0503
 8012TIP3    H245452   3.987   5.793   6.194 -0.8654 -1.3272 -0.0643
 8013TIP3   OH245453   6.480   4.260   6.136 -0.1343 -0.4081 -0.3328
 8013TIP3    H145454   6.538   4.285   6.208 -0.7120  1.4643 -0.4567
 8013TIP3    H245455   6.395   4.246   6.178 -0.3873  0.3359 -0.5740
 8014TIP3   OH245456   1.667   0.143  16.368  0.0312  0.4792  0.4088
 8014TIP3    H145457   1.636   0.226  16.404 -0.6881  0.5913 -0.4280
 8014TIP3    H245458   1.686   0.162  16.276 -0.3315 -0.3190  0.1547
 8015TIP3   OH245459   6.364   5.964   3.760  0.6162  0.1861 -0.6229
 8015TIP3    H145460   6.312   6.044   3.760 -1.7838 -1.2844  0.6278
 8015TIP3    H245461   6.427   5.977   3.831 -0.1395  0.7424 -0.0380
 8016TIP3   OH245462   5.807   4.966  14.889 -0.2142 -0.0157 -0.1164
 8016TIP3    H145463   5.747   5.003  14.953  0.3233 -0.5670  0.7278
 8016TIP3    H245464   5.775   4.998  14.805 -0.7713  0.9501  0.4396
 8017TIP3   OH245465   1.525   6.752   4.981  0.5487 -0.2885 -0.8221
 8017TIP3    H145466   1.553   6.837   5.015 -1.7449 -0.0379  0.6429
 8017TIP3    H245467   1.571   6.743   4.898  2.0600  1.6553 -0.2608
 8018TIP3   OH245468   4.318   5.440  13.782 -0.0533  0.4684 -0.0276
 8018TIP3    H145469   4.319   5.515  13.723 -0.6463 -0.4345 -1.2432
 8018TIP3    H245470   4.232   5.443  13.824 -0.7498 -0.3871 -1.2973
 8019TIP3   OH245471   5.463   3.256  14.590 -0.0005 -0.2604 -0.2346
 8019TIP3    H145472   5.391   3.211  14.547  0.8881 -1.7442 -0.2558
 8019TIP3    H245473   5.476   3.208  14.672  0.2819  0.6480  0.2764
 8020TIP3   OH245474   0.833   5.391  13.582  0.1722 -0.2767 -0.5431
 8020TIP3    H145475   0.741   5.404  13.557  0.6464 -1.0273 -2.8632
 8020TIP3    H245476   0.881   5.390  13.500  2.3464  0.4287  0.6367
 8021TIP3   OH245477   0.413   2.729  12.734 -0.2997  0.0271  0.1344
 8021TIP3    H145478   0.463   2.793  12.785 -0.7168 -0.2166  0.8639
 8021TIP3    H245479   0.324   2.736  12.767 -0.1939 -1.5376  0.8556
 8022TIP3   OH245480   6.213   1.312   3.623 -0.0827 -0.0853  0.6848
 8022TIP3    H145481   6.165   1.261   3.558  0.6164 -1.8531  1.4789
 8022TIP3    H245482   6.302   1.276   3.620  0.0958  0.1641  2.2131
 8023TIP3   OH245483   2.065   3.570   5.041 -0.4336 -0.2126 -0.2058
 8023TIP3    H145484   2.102   3.639   4.986  1.6443  0.1455  1.5170
 8023TIP3    H245485   1.973   3.593   5.049 -0.1812  1.3022 -1.1729
 8024TIP3   OH245486   2.383   5.117  12.616  0.4097  0.2563  0.2855
 8024TIP3    H145487   2.472   5.152  12.617  1.3362 -1.5756 -2.8161
 8024TIP3    H245488   2.337   5.171  12.551  0.3488 -0.9120 -0.6875
 8025TIP3   OH245489   0.514   6.426  10.938  0.1186 -0.3404 -0.9149
 8025TIP3    H145490   0.491   6.341  10.977  0.9926 -0.5606 -0.8420
 8025TIP3    H245491   0.596   6.409  10.891  1.1617  0.8006  0.4084
 8026TIP3   OH245492   4.235   1.162  16.520 -0.3448  0.6395 -0.0555
 8026TIP3    H145493   4.316   1.183  16.474 -0.8862 -0.5897 -1.6647
 8026TIP3    H245494   4.176   1.235  16.499 -0.1120  0.8207 -0.0816
 8027TIP3   OH245495   5.096   3.231  15.055 -0.4128  0.1964 -0.0635
 8027TIP3    H145496   5.018   3.174  15.054 -0.2361 -0.0483 -0.2757
 8027TIP3    H245497   5.102   3.264  14.965 -0.2152  0.1337 -0.0738
 8028TIP3   OH245498   0.167   5.330  15.963 -0.1416 -0.1725 -0.0543
 8028TIP3    H145499   0.228   5.402  15.948 -1.4569  1.4887  1.9510
 8028TIP3    H245500   0.223   5.253  15.973  1.5352  1.0329  0.2718
 8029TIP3   OH245501   6.636   6.441   1.050 -0.1498  0.3550  0.5156
 8029TIP3    H145502   6.722   6.434   1.093  0.4545  1.9577 -0.3373
 8029TIP3    H245503   6.609   6.532   1.066 -2.0830 -0.3191  1.4131
 8030TIP3   OH245504   2.555   2.781   0.598  0.0999 -0.2304 -0.0339
 8030TIP3    H145505   2.486   2.833   0.639  0.4925 -0.4037  0.8609
 8030TIP3    H245506   2.596   2.842   0.536 -2.0682 -0.6600 -2.0582
 8031TIP3   OH245507   3.541   4.271  16.600 -0.3195  0.0280 -0.8431
 8031TIP3    H145508   3.477   4.304  16.537 -0.8138  1.5928  0.3986
 8031TIP3    H245509   3.488   4.237  16.672  0.2315  0.2841 -0.3058
 8032TIP3   OH245510   4.630   0.202   3.425 -0.0154  0.2274 -0.0861
 8032TIP3    H145511   4.646   0.107   3.423  1.2437  0.4368 -0.7273
 8032TIP3    H245512   4.546   0.213   3.380  0.4294 -0.4875 -1.1313
 8033TIP3   OH245513   2.866   5.811   2.896  0.3013  0.0191  0.3635
 8033TIP3    H145514   2.905   5.897   2.912  1.5355 -0.7384  1.6070
 8033TIP3    H245515   2.936   5.760   2.856  0.2933 -1.0605  1.6668
 8034TIP3   OH245516   0.913   4.931  15.142 -0.4302 -0.3579 -0.0138
 8034TIP3    H145517   0.987   4.873  15.162  1.5443  1.6522 -1.0462
 8034TIP3    H245518   0.886   4.965  15.226 -0.7075 -1.6630  0.4561
 8035TIP3   OH245519   0.573   0.669  12.939  0.0983 -0.0291 -0.1906
 8035TIP3    H145520   0.499   0.713  12.981  0.0093 -0.1323 -0.2380
 8035TIP3    H245521   0.575   0.582  12.979  0.6713  0.2356  0.3724
 8036TIP3   OH245522   2.265   6.276  13.401 -0.4730 -0.2457  0.3758
 8036TIP3    H145523   2.320   6.320  13.337 -0.5198 -0.9744 -0.1694
 8036TIP3    H245524   2.246   6.344  13.466  1.3761 -0.0725  0.7966
 8037TIP3   OH245525   0.921   5.519  16.963  0.4212  0.0305  0.0541
 8037TIP3    H145526   0.972   5.487  17.037  1.4969 -0.6838 -0.9494
 8037TIP3    H245527   0.941   5.457  16.892 -0.9888  0.3834 -0.6829
 8038TIP3   OH245528   2.047   3.899  13.547 -0.6614  0.1610  0.5218
 8038TIP3    H145529   2.113   3.936  13.606  1.6104 -1.5083 -0.8048
 8038TIP3    H245530   2.047   3.957  13.471  1.3564 -1.2208 -0.6371
 8039TIP3   OH245531   4.845   4.236   3.422 -0.2592  0.4897  0.1901
 8039TIP3    H145532   4.909   4.204   3.359  0.8768  0.9694  1.0765
 8039TIP3    H245533   4.774   4.172   3.418 -0.7262  1.0240 -2.3042
 8040TIP3   OH245534   6.617   4.011   6.310 -0.2865  0.5129  0.3684
 8040TIP3    H145535   6.591   4.041   6.397 -1.1332  1.5058 -0.1976
 8040TIP3    H245536   6.538   3.971   6.273 -0.3186  1.2602 -0.4135
 8041TIP3   OH245537   5.519   3.157   4.062 -0.2479  0.0403 -0.1437
 8041TIP3    H145538   5.502   3.076   4.108 -0.9408 -0.3002 -0.9676
 8041TIP3    H245539   5.536   3.130   3.971  1.0792  0.6869 -0.1158
 8042TIP3   OH245540   5.110   0.658  16.736 -0.1137 -0.2344  0.3181
 8042TIP3    H145541   5.089   0.728  16.674 -2.4682 -0.9486  0.2124
 8042TIP3    H245542   5.074   0.688  16.819  0.3740 -0.5947  0.6639
 8043TIP3   OH245543   3.952   0.741  15.939  0.2850 -0.1133  0.4029
 8043TIP3    H145544   3.896   0.737  15.862  0.1020 -1.1328  0.5759
 8043TIP3    H245545   3.891   0.734  16.013  0.4577  0.8433  0.6544
 8044TIP3   OH245546   4.956   2.262   4.361  0.1350  0.0069 -0.4541
 8044TIP3    H145547   5.037   2.262   4.310  0.3538 -0.8735 -0.1319
 8044TIP3    H245548   4.904   2.190   4.324  0.4461 -0.8748  0.7750
 8045TIP3   OH245549   0.534   3.519   5.429 -0.2462 -0.1588  0.0122
 8045TIP3    H145550   0.569   3.585   5.489 -0.4141 -0.1693  0.1256
 8045TIP3    H245551   0.581   3.439   5.452  0.8796  0.1953 -0.9948
 8046TIP3   OH245552   0.347   1.105   5.971 -0.4334  0.0586 -0.5475
 8046TIP3    H145553   0.325   1.182   5.919 -1.3609  0.3208  0.2087
 8046TIP3    H245554   0.270   1.048   5.964  0.1229 -0.6783 -0.8543
 8047TIP3   OH245555   0.316   0.120  15.906 -0.3220 -0.2123  0.4891
 8047TIP3    H145556   0.302   0.133  15.999 -2.6894  0.1207  0.1395
 8047TIP3    H245557   0.257   0.181  15.863  0.8045 -0.2596 -1.2550
 8048TIP3   OH245558   4.239   2.550   3.922 -0.1184  0.7528  0.0154
 8048TIP3    H145559   4.153   2.552   3.880  0.2244 -1.4867 -0.9561
 8048TIP3    H245560   4.220   2.535   4.015 -0.8028  0.8184 -0.1105
 8049TIP3   OH245561   3.069   4.757  14.318  0.1548  0.0332 -0.4245
 8049TIP3    H145562   3.076   4.852  14.310  2.8658 -0.1212 -0.7995
 8049TIP3    H245563   3.121   4.723  14.246  1.1858 -1.7139  1.0639
 8050TIP3   OH245564   1.819   2.927   3.770  0.7795 -0.2375  0.0067
 8050TIP3    H145565   1.728   2.931   3.800  0.0634 -0.0743 -2.0499
 8050TIP3    H245566   1.847   2.838   3.793  0.5437  0.0939  1.7395
 8051TIP3   OH245567   2.001   0.377   5.850 -0.2919  0.3593  0.3801
 8051TIP3    H145568   2.046   0.307   5.898 -1.6913  0.6478  2.2426
 8051TIP3    H245569   2.016   0.456   5.903 -1.7642  0.7361  0.2705
 8052TIP3   OH245570   3.447   4.299   4.821 -0.0714  0.1633  0.1296
 8052TIP3    H145571   3.354   4.319   4.812  0.1006  1.7349  1.3165
 8052TIP3    H245572   3.480   4.299   4.731 -1.1680 -0.2316 -0.2924
 8053TIP3   OH245573   2.859   6.050  15.437  0.2299 -0.0377  0.3461
 8053TIP3    H145574   2.881   6.134  15.396 -2.4371 -0.1553 -1.6082
 8053TIP3    H245575   2.877   6.063  15.530 -0.3859  2.8260  0.1510
 8054TIP3   OH245576   1.907   3.018   2.912 -0.2730  0.8052  0.3934
 8054TIP3    H145577   1.936   2.995   3.000 -0.8633  1.6264  0.8104
 8054TIP3    H245578   1.894   3.113   2.914 -1.1637  0.7157 -0.3207
 8055TIP3   OH245579   0.814   4.248  14.249 -0.1412  0.2441 -0.7861
 8055TIP3    H145580   0.746   4.202  14.199 -0.8931  0.0959  0.3411
 8055TIP3    H245581   0.780   4.252  14.338  2.0300 -1.2245  0.1844
 8056TIP3   OH245582   4.883   4.855  11.918  1.1454 -0.1930 -0.3543
 8056TIP3    H145583   4.895   4.803  11.839 -0.0706 -1.3857  0.2072
 8056TIP3    H245584   4.875   4.790  11.988 -0.0991  0.7422  0.4077
 8057TIP3   OH245585   4.405   3.391   6.373  0.1134 -0.4540 -0.2349
 8057TIP3    H145586   4.395   3.425   6.284  2.0132 -1.6381 -0.9665
 8057TIP3    H245587   4.358   3.308   6.371 -1.7047  0.4980  0.5704
 8058TIP3   OH245588   5.290   4.488  17.192  0.1188  0.0340  0.6741
 8058TIP3    H145589   5.221   4.526  17.138 -0.8221 -0.8640  1.2120
 8058TIP3    H245590   5.255   4.403  17.220  1.9076 -0.9789  0.0079
 8059TIP3   OH245591   5.771   1.222   1.439 -0.7578 -0.1061 -0.2630
 8059TIP3    H145592   5.744   1.292   1.499 -1.2035 -0.5804  0.1010
 8059TIP3    H245593   5.865   1.235   1.427 -0.3594 -0.8600  1.6845
 8060TIP3   OH245594   2.229   2.542   2.254 -0.2844  0.4202  0.0893
 8060TIP3    H145595   2.222   2.616   2.194  0.9722  0.3588 -0.1595
 8060TIP3    H245596   2.288   2.573   2.323 -1.5390  0.4152  1.1935
 8061TIP3   OH245597   2.490   5.635   5.626  0.4401  0.2049  0.0272
 8061TIP3    H145598   2.459   5.671   5.542 -0.3785 -2.7624 -1.0587
 8061TIP3    H245599   2.417   5.651   5.687  1.2706  2.9101  0.4477
 8062TIP3   OH245600   6.752   3.961  16.993 -0.1205  0.3511  0.0004
 8062TIP3    H145601   6.714   3.922  16.914 -0.6990 -0.3764  0.6157
 8062TIP3    H245602   6.846   3.950  16.983 -0.2784 -1.8513  0.4389
 8063TIP3   OH245603   0.985   2.729   3.348 -0.3647 -0.5725 -0.7634
 8063TIP3    H145604   1.048   2.697   3.412 -0.1010  0.3032 -0.5671
 8063TIP3    H245605   0.912   2.763   3.401 -1.0891 -1.7238 -0.9897
 8064TIP3   OH245606   6.224   4.924   6.575  0.4477 -0.4187 -0.1260
 8064TIP3    H145607   6.281   4.977   6.520 -1.3540 -0.1494 -1.8115
 8064TIP3    H245608   6.154   4.983   6.603 -0.5261 -1.3913 -0.4213
 8065TIP3   OH245609   5.461   3.055   0.910 -0.4791 -0.6135  0.0833
 8065TIP3    H145610   5.546   3.032   0.946  0.0314  0.3994 -0.4352
 8065TIP3    H245611   5.464   3.150   0.899 -1.1493 -0.7145 -1.2201
 8066TIP3   OH245612   4.905   3.686   6.520 -0.5899 -0.5894 -0.5965
 8066TIP3    H145613   4.810   3.689   6.504 -0.5276  0.5729 -0.8537
 8066TIP3    H245614   4.933   3.777   6.515  0.8526 -1.0807 -2.3731
 8067TIP3   OH245615   2.987   3.023   1.014  0.0504  0.2238 -0.1381
 8067TIP3    H145616   2.963   3.045   0.923  2.4444 -2.9384 -1.7344
 8067TIP3    H245617   2.910   2.977   1.047 -0.9696  1.6632 -0.3655
 8068TIP3   OH245618   3.186   2.170  15.847  0.2212 -0.2455  0.2714
 8068TIP3    H145619   3.130   2.159  15.770  0.7588  0.0760 -0.1751
 8068TIP3    H245620   3.238   2.089  15.850  0.9013  0.1534 -0.2984
 8069TIP3   OH245621   1.690   0.581  12.995 -0.3759  0.3511 -0.1509
 8069TIP3    H145622   1.659   0.636  13.067 -0.2456  0.2201  0.0073
 8069TIP3    H245623   1.621   0.585  12.930  0.0584  1.5110 -0.5762
 8070TIP3   OH245624   1.636   4.141  14.751  0.2992  0.2756 -0.1972
 8070TIP3    H145625   1.652   4.069  14.812 -0.9367  0.7936  0.7989
 8070TIP3    H245626   1.639   4.220  14.806 -0.5051  0.7864 -0.8542
 8071TIP3   OH245627   0.386   2.357  16.734 -0.1613 -0.1734  0.3643
 8071TIP3    H145628   0.334   2.403  16.799 -2.0257 -1.0551 -0.4479
 8071TIP3    H245629   0.418   2.279  16.780  0.8246  0.5595  0.9739
 8072TIP3   OH245630   4.742   3.201  13.500 -0.4414 -0.0408 -0.5287
 8072TIP3    H145631   4.804   3.210  13.573  0.2964  0.0440 -1.1552
 8072TIP3    H245632   4.763   3.274  13.442  1.4311 -2.1015 -2.6089
 8073TIP3   OH245633   3.414   4.692  17.341 -0.5641  0.7653 -0.1164
 8073TIP3    H145634   3.389   4.626  17.406  1.5714  0.2457  0.2517
 8073TIP3    H245635   3.402   4.648  17.256  1.1538 -0.2925  0.1337
 8074TIP3   OH245636   4.258   1.938   4.121  0.2350  0.1986 -0.3129
 8074TIP3    H145637   4.164   1.921   4.116  0.0739  0.7787  0.5927
 8074TIP3    H245638   4.299   1.851   4.117 -0.4917 -0.3791  2.6136
 8075TIP3   OH245639   4.452   0.479  13.913 -0.2430 -0.0869 -0.4093
 8075TIP3    H145640   4.408   0.466  13.997 -0.2923 -0.0204 -0.4241
 8075TIP3    H245641   4.433   0.400  13.863  1.8403 -1.2637  0.5279
 8076TIP3   OH245642   2.777   0.773   3.019  0.1587  0.4090 -0.0027
 8076TIP3    H145643   2.857   0.820   3.042  0.6387 -1.2461  2.0531
 8076TIP3    H245644   2.771   0.781   2.924  2.4676  1.0352 -0.1550
 8077TIP3   OH245645   0.834   1.355  16.157 -0.5088  0.1016 -0.1661
 8077TIP3    H145646   0.794   1.317  16.079 -1.4275 -0.7145  0.6714
 8077TIP3    H245647   0.909   1.299  16.175  0.4337  1.0152 -1.1436
 8078TIP3   OH245648   3.067   2.738   3.154  0.5907 -0.1916  1.0766
 8078TIP3    H145649   3.115   2.697   3.082 -2.1575  1.8190 -2.1665
 8078TIP3    H245650   3.093   2.830   3.151 -3.5883  1.1530 -1.3210
 8079TIP3   OH245651   0.769   0.601   0.791 -0.0200 -0.1260 -0.2858
 8079TIP3    H145652   0.688   0.619   0.838  1.1768  3.9852  0.6837
 8079TIP3    H245653   0.766   0.659   0.715  1.0675 -1.6289 -1.5485
 8080TIP3   OH245654   4.119   0.162  10.982 -0.4362 -0.4591  0.2970
 8080TIP3    H145655   4.190   0.098  10.982  0.3653  0.3015  2.9496
 8080TIP3    H245656   4.163   0.247  10.981 -1.3280  0.0205  0.8531
 8081TIP3   OH245657   6.565   1.816   1.986 -0.4066  0.1567  0.0570
 8081TIP3    H145658   6.516   1.860   1.916 -0.7135  1.9764  1.3415
 8081TIP3    H245659   6.614   1.886   2.028  1.1688 -1.1924  0.5618
 8082TIP3   OH245660   5.024   0.771  13.139  0.8531  0.7024  0.1978
 8082TIP3    H145661   5.006   0.725  13.222 -1.7686 -2.1705 -1.6964
 8082TIP3    H245662   4.956   0.838  13.135  0.9939  0.8573  0.3962
 8083TIP3   OH245663   2.486   3.527  16.881  0.5178  0.3021 -0.2171
 8083TIP3    H145664   2.574   3.565  16.881  0.5368  0.2767  0.9570
 8083TIP3    H245665   2.436   3.581  16.942  0.1373 -0.6026  0.2979
 8084TIP3   OH245666   4.870   0.610  16.511 -0.1701 -0.4491 -0.2795
 8084TIP3    H145667   4.821   0.590  16.431  0.4491  0.2192 -0.8346
 8084TIP3    H245668   4.962   0.600  16.486  0.0462  0.1966  0.2272
 8085TIP3   OH245669   2.657   6.340  11.594  0.3099  0.0728  0.9813
 8085TIP3    H145670   2.691   6.345  11.683  0.6263 -0.8784  0.9253
 8085TIP3    H245671   2.725   6.294  11.545  1.2842  2.7806 -0.3587
 8086TIP3   OH245672   2.858   3.854  13.500 -0.1315 -0.4669  0.9302
 8086TIP3    H145673   2.918   3.918  13.538 -2.0263  0.8520  1.9054
 8086TIP3    H245674   2.842   3.791  13.570 -0.2508 -0.5262  0.8507
 8087TIP3   OH245675   5.597   1.034   1.578 -0.0361  0.2693  0.3315
 8087TIP3    H145676   5.665   1.086   1.535 -0.9997 -0.2585 -1.9715
 8087TIP3    H245677   5.540   1.099   1.620  0.2364  0.8998 -0.2598
 8088TIP3   OH245678   6.220   3.384   2.710 -0.5809 -0.5784  0.1261
 8088TIP3    H145679   6.161   3.391   2.785 -0.8723  2.1107 -0.2691
 8088TIP3    H245680   6.305   3.410   2.745 -0.2304 -1.5109 -0.0012
 8089TIP3   OH245681   0.767   1.977  17.239 -0.2520  0.3899 -0.6395
 8089TIP3    H145682   0.752   1.887  17.210  0.1518  0.1924 -0.2315
 8089TIP3    H245683   0.841   1.972  17.299  0.2951  1.1027 -1.2251
 8090TIP3   OH245684   3.827   4.924  13.079  0.0129  0.1194 -0.5552
 8090TIP3    H145685   3.913   4.943  13.115 -0.2771  2.2652 -0.8184
 8090TIP3    H245686   3.843   4.865  13.006  1.1005 -0.5606  0.2212
 8091TIP3   OH245687   2.397   2.900   5.599 -0.1574  0.1440  0.2783
 8091TIP3    H145688   2.406   2.841   5.674  0.5894  1.1656  1.0211
 8091TIP3    H245689   2.329   2.859   5.544  1.7279 -2.5043 -0.3065
 8092TIP3   OH245690   6.599   5.014  16.422 -0.0708 -0.0209  0.1903
 8092TIP3    H145691   6.664   5.078  16.449 -1.3900  1.4612 -0.0119
 8092TIP3    H245692   6.606   5.011  16.326 -0.2297  0.0419  0.1773
 8093TIP3   OH245693   4.203   4.603  15.286  0.4353  0.0773 -0.2726
 8093TIP3    H145694   4.184   4.582  15.195 -0.1310 -1.0391  0.0840
 8093TIP3    H245695   4.146   4.677  15.307 -0.2828 -0.4086 -0.4912
 8094TIP3   OH245696   4.614   5.911  15.530 -0.3821 -0.4717 -0.3810
 8094TIP3    H145697   4.654   5.859  15.460 -0.5331  0.4512 -1.1781
 8094TIP3    H245698   4.645   5.870  15.611  1.7716 -0.1139 -0.9513
 8095TIP3   OH245699   3.495   0.171  14.696 -0.2037 -0.6536 -0.0439
 8095TIP3    H145700   3.524   0.121  14.772  0.8288 -0.7722 -0.4954
 8095TIP3    H245701   3.516   0.114  14.621  0.4227  0.1952 -0.5256
 8096TIP3   OH245702   0.013   1.685  13.260 -0.7803  0.0246 -0.1514
 8096TIP3    H145703  -0.077   1.653  13.269 -0.6381 -0.0440  1.2060
 8096TIP3    H245704   0.012   1.771  13.302  0.3489 -1.0921  2.3791
 8097TIP3   OH245705   4.528   2.296  11.071 -0.1412 -0.3248  0.2635
 8097TIP3    H145706   4.587   2.357  11.027 -1.9500  0.2232 -1.5834
 8097TIP3    H245707   4.440   2.326  11.048 -1.1456 -2.1432  1.4098
 8098TIP3   OH245708   2.717   5.402   4.011 -0.7527  0.1345 -0.0015
 8098TIP3    H145709   2.723   5.488   3.970 -0.7440 -0.5079 -1.3780
 8098TIP3    H245710   2.728   5.420   4.105  3.1252  1.2350 -0.5062
 8099TIP3   OH245711   1.119   2.834   1.067  0.2649  0.1435  0.5384
 8099TIP3    H145712   1.064   2.787   1.004  0.4303  0.0352  0.4728
 8099TIP3    H245713   1.102   2.926   1.049  0.1889  0.1120  0.4431
 8100TIP3   OH245714   0.488   3.569   3.996 -0.2317 -0.4839  0.4483
 8100TIP3    H145715   0.453   3.633   4.058 -2.9212 -1.0280 -0.3764
 8100TIP3    H245716   0.474   3.485   4.038  1.6618 -0.6759  0.7673
 8101TIP3   OH245717   3.747   3.795  16.091 -0.1367 -0.8257 -0.1468
 8101TIP3    H145718   3.731   3.755  16.005  0.0725  0.3210 -0.7278
 8101TIP3    H245719   3.816   3.859  16.075 -0.3634 -0.3351  0.8117
 8102TIP3   OH245720   6.050   1.040  16.335 -0.0982 -0.4521 -0.0834
 8102TIP3    H145721   6.081   0.993  16.257  0.0620 -0.2688 -0.1324
 8102TIP3    H245722   6.015   0.972  16.392  0.1265 -0.6322 -0.1578
 8103TIP3   OH245723   3.887   0.351  13.779  0.2836 -0.5092  0.4261
 8103TIP3    H145724   3.964   0.402  13.806  0.1341 -0.5477  0.9270
 8103TIP3    H245725   3.892   0.270  13.830  1.6136 -1.9338 -1.7896
 8104TIP3   OH245726   2.155   5.720  12.746 -0.0294 -0.0776  0.0959
 8104TIP3    H145727   2.141   5.754  12.834 -0.8859 -0.0620 -0.0367
 8104TIP3    H245728   2.117   5.632  12.747 -2.4656  0.8559 -0.9392
 8105TIP3   OH245729   5.180   5.904   3.598  0.3607  0.3850 -0.0900
 8105TIP3    H145730   5.105   5.846   3.588  0.4426  0.2901 -0.1545
 8105TIP3    H245731   5.170   5.968   3.527  1.1422 -0.5101 -1.0406
 8106TIP3   OH245732   4.650   0.798  15.144  0.0217  0.4617 -0.1861
 8106TIP3    H145733   4.610   0.866  15.199 -1.9890 -0.7222 -0.0857
 8106TIP3    H245734   4.628   0.825  15.055 -2.6348 -1.0518 -0.0727
 8107TIP3   OH245735   3.279   1.266  14.815 -0.8826  0.0943  0.3129
 8107TIP3    H145736   3.298   1.173  14.806 -0.8552 -0.2054  2.9584
 8107TIP3    H245737   3.361   1.306  14.843 -1.3755  0.6018  1.0556
 8108TIP3   OH245738   0.683   2.595  15.553  0.0960  0.0961  0.0655
 8108TIP3    H145739   0.616   2.656  15.582  1.9147  2.1056  0.3007
 8108TIP3    H245740   0.717   2.557  15.634  0.2985  0.2743  0.0653
 8109TIP3   OH245741   3.509   4.214   2.907  0.5063  0.1969 -0.1301
 8109TIP3    H145742   3.539   4.207   2.997 -1.7106  1.2936  0.7539
 8109TIP3    H245743   3.514   4.125   2.873  0.5892 -0.3825  1.3320
 8110TIP3   OH245744   4.614   5.210   5.837 -0.5508 -0.0803 -0.5549
 8110TIP3    H145745   4.672   5.203   5.913 -0.4715 -2.4186 -0.7432
 8110TIP3    H245746   4.529   5.234   5.874  0.0484  1.3870 -0.0570
 8111TIP3   OH245747   5.338   2.367  14.561  0.2761  0.1032  0.8164
 8111TIP3    H145748   5.294   2.431  14.617 -2.6925  0.1641 -1.3433
 8111TIP3    H245749   5.397   2.420  14.507 -0.4290  0.6945  0.6156
 8112TIP3   OH245750   3.765   5.464  15.210 -0.6345  0.2710  0.1297
 8112TIP3    H145751   3.765   5.377  15.169  2.1491  0.1698  0.1361
 8112TIP3    H245752   3.820   5.517  15.153 -1.0418  1.6083  0.9500
 8113TIP3   OH245753   3.692   2.161   0.117 -0.4034 -0.4563 -0.4294
 8113TIP3    H145754   3.726   2.075   0.093 -1.9914 -1.2639  0.1215
 8113TIP3    H245755   3.597   2.152   0.115 -0.6091  1.0680  0.4003
 8114TIP3   OH245756   3.914   1.096  15.695 -0.4740  0.5314  0.0773
 8114TIP3    H145757   3.826   1.058  15.701 -0.0031 -0.4534  1.0882
 8114TIP3    H245758   3.958   1.066  15.775  1.0873  0.2060 -0.8774
 8115TIP3   OH245759   3.165   1.619  11.995  0.4204  0.2743 -0.3094
 8115TIP3    H145760   3.140   1.647  11.907  1.5772  0.5120 -0.5891
 8115TIP3    H245761   3.237   1.557  11.981  1.6022  1.3892  0.4720
 8116TIP3   OH245762   6.588   0.921   4.885  0.1155 -0.3060 -0.1689
 8116TIP3    H145763   6.586   0.976   4.807  0.2976 -1.0598 -0.7189
 8116TIP3    H245764   6.680   0.901   4.899 -0.0447 -1.6520 -0.8459
 8117TIP3   OH245765   6.334   4.622  10.516 -0.3357  0.0135  0.0071
 8117TIP3    H145766   6.399   4.561  10.549 -1.3696  0.5907  3.5608
 8117TIP3    H245767   6.371   4.709  10.534  0.1866  0.5101 -3.0138
 8118TIP3   OH245768   3.232   5.265   5.687  0.1378  0.4808 -0.2829
 8118TIP3    H145769   3.308   5.229   5.641 -0.2528  0.7696 -1.1682
 8118TIP3    H245770   3.230   5.357   5.660  0.6828  1.0219  1.3546
 8119TIP3   OH245771   0.980   5.809  15.637 -0.4780 -0.0709  0.2254
 8119TIP3    H145772   0.986   5.770  15.549 -0.2370 -0.7749  0.5482
 8119TIP3    H245773   1.036   5.754  15.691 -0.9206  0.1383  0.9022
 8120TIP3   OH245774   2.383   5.598   0.373  0.0795  0.1125  0.0642
 8120TIP3    H145775   2.288   5.607   0.378 -0.2523 -0.9731 -2.6151
 8120TIP3    H245776   2.412   5.672   0.320  0.7820  0.4599  0.8951
 8121TIP3   OH245777   0.794   6.094  12.061 -0.5160 -0.1052 -0.4433
 8121TIP3    H145778   0.865   6.157  12.071 -0.6517 -0.0868  0.5936
 8121TIP3    H245779   0.825   6.032  11.995 -0.7593  1.5247 -2.1544
 8122TIP3   OH245780   4.067   6.237  13.735 -0.2225 -0.0408 -0.0210
 8122TIP3    H145781   4.117   6.157  13.749 -2.7163 -1.6604  0.2562
 8122TIP3    H245782   4.009   6.217  13.661  0.3042  2.1840 -1.1554
 8123TIP3   OH245783   0.539   3.654   1.722  0.2086 -0.3258  0.5362
 8123TIP3    H145784   0.546   3.570   1.677 -1.5114 -0.1873 -0.0433
 8123TIP3    H245785   0.606   3.650   1.790  0.0815 -2.2127  0.5966
 8124TIP3   OH245786   0.210   0.838  16.071  0.5773 -0.5075 -0.6085
 8124TIP3    H145787   0.129   0.862  16.117  2.4937 -0.2150  2.9887
 8124TIP3    H245788   0.245   0.764  16.121  2.2314 -1.0944 -2.4813
 8125TIP3   OH245789   4.504   4.353   0.758 -0.2556 -0.3545 -0.1830
 8125TIP3    H145790   4.442   4.341   0.831  0.7731 -3.9904  0.2880
 8125TIP3    H245791   4.579   4.396   0.798 -1.3014  1.5583 -0.1453
 8126TIP3   OH245792   6.000   1.307  10.904 -0.2164  0.1316  0.1479
 8126TIP3    H145793   5.946   1.267  10.835  0.4650 -1.3964  0.4587
 8126TIP3    H245794   6.090   1.284  10.880  0.3650  2.7168 -0.4129
 8127TIP3   OH245795   3.631   5.653   2.066  0.4420  0.2427  0.5436
 8127TIP3    H145796   3.583   5.670   1.985  0.4835 -1.1966  0.1863
 8127TIP3    H245797   3.571   5.681   2.136 -1.5056 -2.5264  0.1693
 8128TIP3   OH245798   4.318   4.035  13.447 -0.7749  0.2674 -0.1578
 8128TIP3    H145799   4.266   4.016  13.526 -1.9879  1.4109 -0.6421
 8128TIP3    H245800   4.262   4.092  13.395 -0.4904 -1.4147 -2.4400
 8129TIP3   OH245801   0.068   1.751  13.935  0.4606 -0.9544  0.0116
 8129TIP3    H145802   0.104   1.685  13.995  1.3244 -0.8514 -0.3881
 8129TIP3    H245803   0.112   1.735  13.852 -1.6519 -1.9485 -1.0146
 8130TIP3   OH245804   3.709   3.043  16.209 -0.5036 -0.1215  0.0066
 8130TIP3    H145805   3.767   3.006  16.275 -1.1521  1.3642  1.4767
 8130TIP3    H245806   3.663   2.967  16.172  1.8075 -1.2520 -0.7154
 8131TIP3   OH245807   1.365   3.674  17.261 -0.1038 -0.5693  0.2090
 8131TIP3    H145808   1.325   3.625  17.333 -1.5589 -1.2045 -0.9715
 8131TIP3    H245809   1.443   3.623  17.238  0.1269 -0.6022  1.0329
 8132TIP3   OH245810   6.584   4.711  15.007  0.3227  0.1467 -0.3786
 8132TIP3    H145811   6.534   4.788  14.980 -0.2365 -0.1906 -0.3442
 8132TIP3    H245812   6.517   4.643  15.021  0.9363 -0.8926 -2.2255
 8133TIP3   OH245813   0.369   6.548   0.781 -0.1993  0.2875 -0.1223
 8133TIP3    H145814   0.381   6.485   0.709  0.7061  1.8868 -1.4651
 8133TIP3    H245815   0.286   6.591   0.762 -1.1497 -0.9194  1.1657
 8134TIP3   OH245816   4.659   6.525   4.665 -0.0175 -0.3259 -0.4237
 8134TIP3    H145817   4.720   6.515   4.738 -0.4439  0.3071  0.0294
 8134TIP3    H245818   4.715   6.531   4.587  0.4152 -1.6005 -0.2238
 8135TIP3   OH245819   0.299   0.951   1.198  0.6204 -0.0370 -0.0039
 8135TIP3    H145820   0.294   1.008   1.121 -0.7183  0.5623  0.4858
 8135TIP3    H245821   0.369   0.988   1.252  1.3001 -0.2309 -0.7343
 8136TIP3   OH245822   3.254   5.332  11.738 -0.0219  0.2723  0.0530
 8136TIP3    H145823   3.166   5.365  11.757 -1.0205 -0.4239 -2.8465
 8136TIP3    H245824   3.288   5.303  11.823 -2.4304  0.8805  1.3079
 8137TIP3   OH245825   1.908   2.674  14.043  0.1882  0.1975 -0.2734
 8137TIP3    H145826   1.963   2.743  14.007 -0.0968  0.0064 -1.0941
 8137TIP3    H245827   1.824   2.717  14.060 -0.3026 -0.1657 -1.7199
 8138TIP3   OH245828   2.175   0.620   2.786 -0.0759  0.5292  0.3518
 8138TIP3    H145829   2.130   0.636   2.869 -0.2080 -0.1900  0.4265
 8138TIP3    H245830   2.229   0.698   2.773  0.4238  0.3855  1.4351
 8139TIP3   OH245831   4.398   6.600   4.732 -0.4202  0.0856  0.4647
 8139TIP3    H145832   4.486   6.566   4.743 -0.5011  0.1844  1.4462
 8139TIP3    H245833   4.342   6.522   4.738 -0.4958  0.1912  1.2537
 8140TIP3   OH245834   3.220   4.081   2.779 -0.1268 -0.6133  0.0467
 8140TIP3    H145835   3.173   4.068   2.697 -0.6610 -0.8642  0.3835
 8140TIP3    H245836   3.310   4.055   2.760 -0.6292 -2.4591  0.0292
 8141TIP3   OH245837   6.432   3.337  12.759  0.0421 -0.2196 -0.6457
 8141TIP3    H145838   6.482   3.297  12.830  1.1729  0.3687 -1.0998
 8141TIP3    H245839   6.497   3.369  12.697 -0.7540  2.7099 -0.1317
 8142TIP3   OH245840   4.373   3.308  16.439  0.8028 -0.1767  0.3795
 8142TIP3    H145841   4.374   3.235  16.501 -0.8559 -0.4597  0.1285
 8142TIP3    H245842   4.465   3.328  16.423  1.2756 -1.6229  1.1574
 8143TIP3   OH245843   5.104   3.618   0.891 -0.2161  0.1849  0.0395
 8143TIP3    H145844   5.188   3.616   0.846  0.5569 -0.4537  1.4579
 8143TIP3    H245845   5.042   3.646   0.824  1.0954  0.5563 -1.0648
 8144TIP3   OH245846   0.789   2.218   6.265  0.4533 -0.2321  0.3811
 8144TIP3    H145847   0.869   2.244   6.220 -0.0312  0.8313  0.1005
 8144TIP3    H245848   0.776   2.284   6.333 -0.5293 -0.0140 -0.0020
 8145TIP3   OH245849   2.719   1.582  13.478  0.0905  0.5173  0.2567
 8145TIP3    H145850   2.706   1.672  13.448  0.2342  0.9545  1.4367
 8145TIP3    H245851   2.717   1.588  13.574 -1.9364 -1.0289  0.3977
 8146TIP3   OH245852   6.581   0.938   5.710 -0.2641  0.0806  0.6171
 8146TIP3    H145853   6.529   0.899   5.639  0.7043  1.2684 -0.8248
 8146TIP3    H245854   6.658   0.882   5.718  0.6074  1.0127 -0.7213
 8147TIP3   OH245855   1.076   1.375   4.843 -0.1664 -0.1910  0.0130
 8147TIP3    H145856   1.092   1.295   4.794 -0.8121 -0.0027 -0.5089
 8147TIP3    H245857   1.141   1.437   4.810 -0.4319 -0.1441 -0.4237
 8148TIP3   OH245858   1.032   5.974   3.079  0.4708 -0.2914 -0.1182
 8148TIP3    H145859   0.951   5.946   3.037 -0.1923  1.0454  0.1953
 8148TIP3    H245860   1.056   5.902   3.137  0.3443 -1.3346 -1.3386
 8149TIP3   OH245861   2.458   4.004   6.026 -0.2902 -0.6694  0.3279
 8149TIP3    H145862   2.526   4.057   6.069 -1.5611 -0.5635  2.3096
 8149TIP3    H245863   2.475   3.915   6.056  0.6759 -1.1434 -1.4870
 8150TIP3   OH245864   2.783   4.192   0.470  0.1169  0.0548  0.6948
 8150TIP3    H145865   2.765   4.237   0.387  0.2545 -1.7257 -0.3494
 8150TIP3    H245866   2.697   4.172   0.506  0.0446  1.5591  1.4449
 8151TIP3   OH245867   5.043   6.420  13.356  0.5113  0.3573  0.3658
 8151TIP3    H145868   5.104   6.455  13.291  0.5314  0.2227  0.3133
 8151TIP3    H245869   5.077   6.453  13.439  0.4876  0.5265  0.3102
 8152TIP3   OH245870   4.277   2.698   2.540 -0.3435 -0.3968  0.1892
 8152TIP3    H145871   4.275   2.606   2.514  2.0688 -0.0521 -1.4460
 8152TIP3    H245872   4.361   2.709   2.584  0.1255  1.3378 -1.0427
 8153TIP3   OH245873   4.547   3.132   1.620 -0.1373  0.3534 -0.7050
 8153TIP3    H145874   4.578   3.210   1.574 -0.4386  0.8658 -0.0514
 8153TIP3    H245875   4.452   3.138   1.616 -0.1780  0.5461  0.1904
 8154TIP3   OH245876   4.693   0.161  15.466  0.2483 -0.4234 -0.3664
 8154TIP3    H145877   4.774   0.125  15.503  1.4311  2.0196 -0.3588
 8154TIP3    H245878   4.644   0.193  15.542  1.1936  1.6842 -0.5620
 8155TIP3   OH245879   1.433   4.463   5.155  0.2987 -0.3606 -0.6411
 8155TIP3    H145880   1.487   4.539   5.132 -1.3304  1.0251 -0.1228
 8155TIP3    H245881   1.362   4.499   5.208 -0.7102 -2.2155 -0.6300
 8156TIP3   OH245882   2.892   3.885  14.235  0.4171  0.5884 -0.4912
 8156TIP3    H145883   2.802   3.886  14.201  0.0403  1.6889  0.4611
 8156TIP3    H245884   2.887   3.832  14.314  1.0652 -1.0553 -1.5024
 8157TIP3   OH245885   5.873   2.585   0.401  0.2777 -0.0417 -0.3374
 8157TIP3    H145886   5.892   2.677   0.420  1.1113 -0.0890 -0.9053
 8157TIP3    H245887   5.860   2.582   0.306 -1.4754 -0.2226 -0.1310
 8158TIP3   OH245888   5.768   3.668  16.522 -0.3740 -0.6201  0.1462
 8158TIP3    H145889   5.760   3.704  16.610 -1.3141  0.7157 -0.4420
 8158TIP3    H245890   5.778   3.574  16.535  0.2088 -0.3794  1.6891
 8159TIP3   OH245891   0.342   4.574  15.048 -0.2003 -0.0907 -0.0365
 8159TIP3    H145892   0.335   4.590  15.142  0.6961 -3.6573  0.7977
 8159TIP3    H245893   0.253   4.586  15.015 -1.0401 -0.9462  1.7429
 8160TIP3   OH245894   1.268   2.715   4.088 -0.5463  0.0682  0.0102
 8160TIP3    H145895   1.333   2.765   4.136 -1.0868  0.7669  0.0371
 8160TIP3    H245896   1.215   2.673   4.155 -0.7935  0.3821  0.0142
 8161TIP3   OH245897   6.744   3.534  12.924 -0.0239 -0.3004  0.3011
 8161TIP3    H145898   6.832   3.538  12.887 -0.1243  1.3249  0.1309
 8161TIP3    H245899   6.718   3.443  12.915  0.4656 -0.2752 -2.5013
 8162TIP3   OH245900   1.234   5.831  14.201  0.1437 -0.1896  1.0971
 8162TIP3    H145901   1.246   5.818  14.295  0.5474 -0.7509  0.9699
 8162TIP3    H245902   1.321   5.821  14.164  0.2687  1.5991  0.8302
 8163TIP3   OH245903   3.006   0.127   1.047 -0.0639  0.3401  0.3235
 8163TIP3    H145904   3.066   0.199   1.065  0.0726  0.1994  0.4369
 8163TIP3    H245905   2.946   0.126   1.122 -1.5901  1.8622 -0.7937
 8164TIP3   OH245906   4.202   3.104  13.560 -0.2522 -0.2422  0.6392
 8164TIP3    H145907   4.270   3.087  13.625  0.5097  0.2629 -0.0019
 8164TIP3    H245908   4.250   3.125  13.480 -1.1316  1.8120  0.5950
 8165TIP3   OH245909   1.613   5.849  17.095 -0.3211 -0.5532 -0.0611
 8165TIP3    H145910   1.595   5.898  17.175  1.4427  0.0669  0.0057
 8165TIP3    H245911   1.529   5.842  17.051 -1.3910 -1.2085  1.9946
 8166TIP3   OH245912   2.506   5.081  14.432 -0.1648  0.2580  0.1018
 8166TIP3    H145913   2.579   5.091  14.493  0.2556  1.3031 -0.5364
 8166TIP3    H245914   2.522   4.997  14.388  0.7466  0.5344 -0.1288
 8167TIP3   OH245915   5.586   2.471  11.833  1.2187  0.3612 -0.3709
 8167TIP3    H145916   5.612   2.411  11.903 -2.4607  1.2393  2.0383
 8167TIP3    H245917   5.547   2.415  11.766 -0.3410 -0.1973  0.9325
 8168TIP3   OH245918   4.443   1.076   4.045  0.3585  0.2696  0.6722
 8168TIP3    H145919   4.525   1.109   4.009  0.7307 -0.4960  0.7853
 8168TIP3    H245920   4.460   0.983   4.061 -1.2322 -0.4708 -1.4528
 8169TIP3   OH245921   4.916   0.924   4.759 -0.0376  0.4399 -0.1186
 8169TIP3    H145922   4.931   1.002   4.706  2.0615  1.0337  1.2669
 8169TIP3    H245923   5.002   0.885   4.771 -0.6544 -0.5405  1.5558
 8170TIP3   OH245924   5.434   5.931  10.583 -0.7001 -0.1193  0.2698
 8170TIP3    H145925   5.394   5.893  10.504  2.7385  0.5639 -2.0041
 8170TIP3    H245926   5.459   6.020  10.556  1.4213 -0.1939  1.7685
 8171TIP3   OH245927   4.938   0.049  13.229 -0.1319  0.1086 -0.1221
 8171TIP3    H145928   5.015   0.027  13.281 -0.7879 -0.3360  0.6983
 8171TIP3    H245929   4.918   0.139  13.252 -0.6386 -0.2048  0.7005
 8172TIP3   OH245930   4.096   5.628  16.038 -0.1782 -0.2448  0.3859
 8172TIP3    H145931   4.068   5.648  15.949  2.2785 -0.6819 -0.5374
 8172TIP3    H245932   4.027   5.570  16.072 -1.5373  0.5345 -0.9043
 8173TIP3   OH245933   3.659   5.167  13.460 -0.2822 -0.2455 -0.4021
 8173TIP3    H145934   3.622   5.233  13.401 -2.6269 -1.1806 -0.0927
 8173TIP3    H245935   3.752   5.164  13.437 -0.8206  0.4524 -3.0356
 8174TIP3   OH245936   1.766   3.249  13.851  0.1209 -0.1136  0.5373
 8174TIP3    H145937   1.770   3.333  13.804  2.2094  0.3028  1.3042
 8174TIP3    H245938   1.695   3.201  13.809 -1.0533  1.9676 -0.0377
 8175TIP3   OH245939   4.666   2.023  15.481  0.2502  0.0978  0.4460
 8175TIP3    H145940   4.733   1.998  15.418  0.4624  0.9885  0.2989
 8175TIP3    H245941   4.695   1.985  15.564  0.1310 -0.8159  0.0825
 8176TIP3   OH245942   5.676   3.133   4.343  0.3435 -0.2248 -0.1444
 8176TIP3    H145943   5.693   3.192   4.269  0.7186  0.8248  0.7548
 8176TIP3    H245944   5.636   3.056   4.303  2.3532 -0.5400 -1.7106
 8177TIP3   OH245945   6.295   0.775  11.572  0.0399  0.3016  0.4078
 8177TIP3    H145946   6.229   0.707  11.581  0.1320 -0.6289 -4.0771
 8177TIP3    H245947   6.375   0.728  11.550  0.7074  1.7040 -0.2976
 8178TIP3   OH245948   2.038   0.112  16.545 -0.4355 -0.0628  0.2124
 8178TIP3    H145949   2.006   0.151  16.463 -0.4395 -0.4615  0.0215
 8178TIP3    H245950   2.062   0.022  16.521 -0.9572 -0.3552  0.7722
 8179TIP3   OH245951   5.953   5.121  12.737  0.0412 -0.0368  0.1530
 8179TIP3    H145952   5.970   5.151  12.827  0.5911 -1.0505  0.4043
 8179TIP3    H245953   5.860   5.100  12.736  0.2809 -1.2783  0.9040
 8180TIP3   OH245954   1.700   4.544  15.586  0.3654 -0.4983 -0.1520
 8180TIP3    H145955   1.680   4.469  15.642  1.5007 -0.3326  0.5049
 8180TIP3    H245956   1.625   4.550  15.527 -0.8215 -0.7344  1.2792
 8181TIP3   OH245957   6.547   2.167   2.605  0.5789 -0.1185 -0.1184
 8181TIP3    H145958   6.453   2.156   2.597  0.5246  0.0432  0.3004
 8181TIP3    H245959   6.580   2.160   2.515  0.1381  0.1507 -0.2981
 8182TIP3   OH245960   1.828   1.778  13.874  0.2039 -0.3233 -0.7091
 8182TIP3    H145961   1.772   1.826  13.813  0.7765  1.3189  0.0058
 8182TIP3    H245962   1.889   1.729  13.817 -0.8756 -0.8404 -1.4571
 8183TIP3   OH245963   4.222   3.922  14.371 -0.4875 -0.1560  0.0279
 8183TIP3    H145964   4.171   3.978  14.429  0.9427  1.0342  0.2055
 8183TIP3    H245965   4.163   3.849  14.349 -1.5491  0.1258  1.7819
 8184TIP3   OH245966   3.537   0.003  16.338  0.8822 -0.1464 -0.2468
 8184TIP3    H145967   3.483   0.072  16.299  0.0835 -0.7881 -0.2860
 8184TIP3    H245968   3.573   0.043  16.418  0.2441  0.2424 -0.1489
 8185TIP3   OH245969   1.684   5.676   1.948  0.1725 -0.2319  0.3004
 8185TIP3    H145970   1.684   5.749   2.009 -1.1680  1.4344 -1.5643
 8185TIP3    H245971   1.739   5.705   1.875 -2.0701 -0.1125 -1.4607
 8186TIP3   OH245972   1.020   6.707   3.159 -0.4477 -0.0266  0.5498
 8186TIP3    H145973   0.994   6.681   3.248 -2.3026 -1.2160 -0.2566
 8186TIP3    H245974   1.066   6.631   3.125 -0.4953  0.0931  0.2195
 8187TIP3   OH245975   6.077   2.334   4.147  0.2768  0.0960  0.1187
 8187TIP3    H145976   6.029   2.339   4.064  0.5730 -2.8458 -0.3046
 8187TIP3    H245977   6.091   2.426   4.172 -1.6766  1.0486 -1.9763
 8188TIP3   OH245978   2.261   3.874  15.468 -0.4297  0.2730  0.2759
 8188TIP3    H145979   2.293   3.939  15.531 -1.1735  1.1804 -0.2755
 8188TIP3    H245980   2.338   3.819  15.450  0.2243  1.0291  0.6980
 8189TIP3   OH245981   3.197   4.793   0.296 -0.0858 -0.6742  0.0568
 8189TIP3    H145982   3.175   4.708   0.257  0.5677 -0.8601  0.0769
 8189TIP3    H245983   3.257   4.833   0.233 -0.4788 -0.1783 -0.0017
 8190TIP3   OH245984   0.315   5.366   1.013 -0.0078 -0.2073 -0.1329
 8190TIP3    H145985   0.400   5.326   0.994 -0.5429 -0.3541 -2.5210
 8190TIP3    H245986   0.269   5.300   1.065  0.3277 -1.3444 -1.2229
 8191TIP3   OH245987   2.406   6.589   6.230  0.2310 -0.0104  0.0675
 8191TIP3    H145988   2.379   6.676   6.258  0.1855 -0.1839  0.5686
 8191TIP3    H245989   2.498   6.599   6.206  0.7959 -0.2127  1.9526
 8192TIP3   OH245990   0.090   3.190  15.340 -0.0313  0.1066  0.3167
 8192TIP3    H145991   0.144   3.116  15.314 -1.8391 -0.3894 -2.3557
 8192TIP3    H245992   0.140   3.268  15.313 -0.3484 -0.3248 -1.6217
 8193TIP3   OH245993   2.443   5.885  14.177 -0.2577  0.0654  0.0192
 8193TIP3    H145994   2.386   5.878  14.254 -0.3230 -0.6960 -0.0908
 8193TIP3    H245995   2.385   5.864  14.103  0.2017 -0.9018 -0.0774
 8194TIP3   OH245996   2.237   1.192  16.200  0.4957  0.1423 -0.8036
 8194TIP3    H145997   2.161   1.163  16.151  0.8156 -1.1976 -0.5518
 8194TIP3    H245998   2.307   1.131  16.175  0.8813 -0.0666  0.6602
 8195TIP3   OH245999   6.002   4.136  15.912  0.5121  0.1958 -0.8234
 8195TIP3    H146000   6.084   4.141  15.961 -0.3958 -0.0008  0.7702
 8195TIP3    H246001   6.017   4.193  15.836  2.1167  0.1487 -0.5903
 8196TIP3   OH246002   2.042   2.456   6.198  0.4412 -0.1498 -0.3846
 8196TIP3    H146003   1.968   2.419   6.150 -0.0401  0.7055 -0.3184
 8196TIP3    H246004   2.100   2.381   6.214  0.0096 -0.6742 -1.1916
 8197TIP3   OH246005   1.812   2.524  16.511  0.8861 -0.2306 -0.4752
 8197TIP3    H146006   1.876   2.589  16.538 -0.6994  0.6292  1.4416
 8197TIP3    H246007   1.824   2.451  16.572 -0.5176  0.3307  0.5319
 8198TIP3   OH246008   1.998   1.225   6.636 -0.6327 -0.0758  0.1799
 8198TIP3    H146009   1.968   1.135   6.619 -1.6530  0.2976 -0.0623
 8198TIP3    H246010   1.918   1.276   6.640 -0.0048  1.3087 -2.4584
 8199TIP3   OH246011   3.415   1.243   4.470 -0.3779 -0.7113 -0.3035
 8199TIP3    H146012   3.487   1.184   4.445  0.3126 -0.0820  0.1680
 8199TIP3    H246013   3.377   1.202   4.548  0.4280 -0.2850  0.3258
 8200TIP3   OH246014   0.313   6.346   1.902  0.0230 -0.3929 -0.1493
 8200TIP3    H146015   0.228   6.325   1.940 -0.4408  0.0869 -0.8697
 8200TIP3    H246016   0.345   6.420   1.954  0.6116 -1.3867  0.9421
 8201TIP3   OH246017   6.642   1.304   1.020  0.3407  0.0405 -0.5119
 8201TIP3    H146018   6.636   1.371   1.088  0.6564 -0.0321 -0.4096
 8201TIP3    H246019   6.594   1.229   1.055 -1.2642  0.6962 -1.2322
 8202TIP3   OH246020   4.465   6.185  11.174  0.0567 -0.6989 -0.0735
 8202TIP3    H146021   4.383   6.207  11.219 -1.3747  0.2666 -2.8942
 8202TIP3    H246022   4.521   6.261  11.186 -1.2103  0.5752 -1.7462
 8203TIP3   OH246023   5.599   0.007   0.898  0.0172 -0.5314 -0.1105
 8203TIP3    H146024   5.532   0.041   0.840  1.9392 -0.0406 -2.2105
 8203TIP3    H246025   5.666   0.076   0.901  0.4150 -0.9516  1.9513
 8204TIP3   OH246026   2.880   2.073  13.987  0.3421 -0.1606 -0.1642
 8204TIP3    H146027   2.943   2.128  14.033 -0.3483  1.6934 -1.3250
 8204TIP3    H246028   2.801   2.127  13.981 -1.3388 -2.3063  1.0470
 8205TIP3   OH246029   4.557   2.485   0.922 -0.2638 -0.4133  0.5336
 8205TIP3    H146030   4.622   2.465   0.989 -0.8258 -0.4100  1.0862
 8205TIP3    H246031   4.476   2.445   0.954 -0.6635  0.0461  0.1104
 8206TIP3   OH246032   5.944   1.180  17.003 -0.3322 -0.0476 -0.1138
 8206TIP3    H146033   6.037   1.202  17.001 -0.6567  1.4071 -0.2411
 8206TIP3    H246034   5.941   1.089  17.032  1.2225 -0.7441 -1.9630
 8207TIP3   OH246035   3.275   1.200  15.572 -0.9974 -0.3715  0.7970
 8207TIP3    H146036   3.316   1.126  15.617 -0.7643  0.1550  1.4758
 8207TIP3    H246037   3.228   1.246  15.641  0.0196  0.9039  0.6656
 8208TIP3   OH246038   1.583   6.255  17.260 -0.2808  0.4535  0.0113
 8208TIP3    H146039   1.565   6.344  17.290 -1.1688 -0.2264  1.6300
 8208TIP3    H246040   1.623   6.266  17.174  0.2446  2.4349  0.4670
 8209TIP3   OH246041   3.510   5.232   4.908 -0.2535 -0.1295 -0.3302
 8209TIP3    H146042   3.450   5.237   4.834 -0.1354  1.3351 -0.3546
 8209TIP3    H246043   3.497   5.144   4.944 -1.7390 -0.1687 -0.8930
 8210TIP3   OH246044   6.519   4.754   6.625 -0.1862 -0.0381 -0.8705
 8210TIP3    H146045   6.550   4.701   6.552 -0.0393  0.7749 -1.4111
 8210TIP3    H246046   6.532   4.844   6.596  0.9935  0.3069  0.6418
 8211TIP3   OH246047   3.422   1.455   2.054 -0.0109 -0.6211  0.1442
 8211TIP3    H146048   3.366   1.496   1.989  1.9888 -0.0973 -1.3463
 8211TIP3    H246049   3.507   1.498   2.043  0.8053 -1.6208  2.0454
 8212TIP3   OH246050   0.228   5.302  10.812  0.0176  1.0350 -0.1246
 8212TIP3    H146051   0.147   5.302  10.863 -1.5195  1.4418 -2.3888
 8212TIP3    H246052   0.272   5.221  10.835 -1.6237  0.2371  0.3283
 8213TIP3   OH246053   0.500   5.134  12.603 -0.3350 -0.5338 -0.6518
 8213TIP3    H146054   0.546   5.108  12.683 -1.0923 -0.0878 -0.0616
 8213TIP3    H246055   0.535   5.220  12.582  1.2580 -1.4258 -1.9033
 8214TIP3   OH246056   5.159   4.136   0.509  0.4249  0.1271 -0.4082
 8214TIP3    H146057   5.176   4.195   0.582 -1.9091  0.4671 -0.0590
 8214TIP3    H246058   5.168   4.190   0.431 -3.5975  1.6812 -0.0343
 8215TIP3   OH246059   1.660   3.822   4.864  0.6181  0.3173 -0.1563
 8215TIP3    H146060   1.747   3.787   4.848  1.6500  2.6349 -0.0402
 8215TIP3    H246061   1.638   3.872   4.785 -0.1220  0.6621  0.2486
 8216TIP3   OH246062   3.570   5.972  10.910  0.3963  0.2666 -0.1680
 8216TIP3    H146063   3.607   5.885  10.896  1.6957  0.7949 -0.1939
 8216TIP3    H246064   3.646   6.030  10.914 -0.3027  1.1468  1.9051
 8217TIP3   OH246065   4.259   1.348   5.118  0.6309  0.5169 -0.1072
 8217TIP3    H146066   4.182   1.310   5.075  0.6338 -0.6686  0.8951
 8217TIP3    H246067   4.249   1.442   5.105 -0.1562  0.2900 -1.3687
 8218TIP3   OH246068   0.961   1.344  17.387 -0.1318 -0.5025 -0.0126
 8218TIP3    H146069   1.017   1.274  17.354  0.7372  0.0929  0.1777
 8218TIP3    H246070   0.950   1.325  17.480  1.4313  0.4610  0.4029
 8219TIP3   OH246071   6.713   2.695   5.522 -0.5663  0.1319 -0.4348
 8219TIP3    H146072   6.742   2.604   5.521  3.8858  1.3235 -0.8301
 8219TIP3    H246073   6.771   2.739   5.460 -0.6789  3.7162  1.7491
 8220TIP3   OH246074   4.425   3.198   2.351  0.2287  0.1504  0.3507
 8220TIP3    H146075   4.409   3.103   2.351  2.5580 -0.3275  1.4038
 8220TIP3    H246076   4.455   3.217   2.440  3.2146  1.1323 -0.7345
 8221TIP3   OH246077   3.267   1.328   3.273 -0.1437  0.3112 -0.3287
 8221TIP3    H146078   3.171   1.333   3.274 -0.1273  0.6677 -0.4496
 8221TIP3    H246079   3.286   1.235   3.264 -0.4851  0.3961 -2.2498
 8222TIP3   OH246080   1.705   3.863  14.743 -0.5511  0.0602 -0.5704
 8222TIP3    H146081   1.777   3.892  14.799  0.4633  0.1084 -1.8366
 8222TIP3    H246082   1.664   3.791  14.791  0.1952  0.1882  0.2839
 8223TIP3   OH246083   0.954   4.048  11.525 -0.3271 -0.3414 -0.4803
 8223TIP3    H146084   0.869   4.008  11.543  0.5053 -2.5006 -1.1100
 8223TIP3    H246085   0.946   4.137  11.561 -2.5508 -0.7458  0.1957
 8224TIP3   OH246086   3.383   2.108  16.438  0.1511  0.2214  0.5918
 8224TIP3    H146087   3.359   2.019  16.463 -2.6993  0.3514 -1.2559
 8224TIP3    H246088   3.430   2.098  16.355 -3.2976  0.4512 -1.5802
 8225TIP3   OH246089   2.124   0.579   0.276 -0.3798 -0.0272  0.3636
 8225TIP3    H146090   2.046   0.630   0.297 -1.5660 -1.1209 -1.1512
 8225TIP3    H246091   2.110   0.551   0.185  0.0888 -3.1727  1.1573
 8226TIP3   OH246092   2.367   1.147  12.638  0.0295 -0.2878 -0.1055
 8226TIP3    H146093   2.354   1.232  12.682  2.8099 -0.4930  1.3562
 8226TIP3    H246094   2.279   1.115  12.621 -1.1569  1.5568  2.0209
 8227TIP3   OH246095   0.966   3.911   2.797 -0.2161 -0.0359 -0.3076
 8227TIP3    H146096   0.982   3.989   2.744  0.9846 -0.9122 -1.3186
 8227TIP3    H246097   0.878   3.884   2.774 -0.8134  1.2447  0.3808
 8228TIP3   OH246098   1.525   5.903   2.391  0.5701  0.6022  0.1431
 8228TIP3    H146099   1.588   5.839   2.359  0.3010 -0.1625  1.1025
 8228TIP3    H246100   1.500   5.953   2.313  1.7989  0.4335 -0.3748
 8229TIP3   OH246101   3.274   4.059  13.109 -0.5699  0.6236  0.2456
 8229TIP3    H146102   3.336   3.987  13.097 -2.0707 -0.7989  0.7110
 8229TIP3    H246103   3.311   4.110  13.181  0.9295  0.8099 -0.6194
 8230TIP3   OH246104   6.697   3.781  13.084  0.1337 -0.1917 -0.2724
 8230TIP3    H146105   6.641   3.750  13.013  0.0378 -1.0953  0.1888
 8230TIP3    H246106   6.734   3.702  13.123  0.1507  0.2804  0.7136
 8231TIP3   OH246107   4.470   2.209   5.830  0.4946 -0.3854  0.1176
 8231TIP3    H146108   4.408   2.225   5.759  1.5675  0.6551 -0.6382
 8231TIP3    H246109   4.421   2.157   5.894 -1.4965  1.2507  0.0432
 8232TIP3   OH246110   5.072   4.898   2.407  0.2187 -0.0629  0.0369
 8232TIP3    H146111   5.064   4.870   2.498  0.0804 -1.8463 -0.4838
 8232TIP3    H246112   5.153   4.858   2.376 -1.5232 -2.5799 -1.6152
 8233TIP3   OH246113   5.050   4.510   1.036 -0.1360  0.1630  0.5817
 8233TIP3    H146114   5.000   4.499   1.117  0.0796 -0.9316  0.5755
 8233TIP3    H246115   4.991   4.558   0.978 -0.8506 -0.3540  0.8701
 8234TIP3   OH246116   0.709   0.253  15.192 -0.0677  0.2375 -0.8375
 8234TIP3    H146117   0.717   0.162  15.166  0.2384  0.1339 -0.3875
 8234TIP3    H246118   0.781   0.267  15.253 -2.4182 -0.3734  2.2969
 8235TIP3   OH246119   2.929   6.566  11.471  0.1949  0.2600  0.0034
 8235TIP3    H146120   2.938   6.552  11.377  1.1438  0.9422 -0.0179
 8235TIP3    H246121   2.959   6.483  11.510  0.8713  0.3692 -0.2652
 8236TIP3   OH246122   5.516   1.598  13.887 -0.3701  0.0062  0.4912
 8236TIP3    H146123   5.579   1.587  13.816 -1.8922  1.3211 -1.1326
 8236TIP3    H246124   5.525   1.689  13.914 -0.5217 -0.2094  1.2939
 8237TIP3   OH246125   3.725   6.130  13.856  0.3927  0.3662 -0.5896
 8237TIP3    H146126   3.725   6.113  13.762  1.0423 -0.6199 -0.4290
 8237TIP3    H246127   3.656   6.195  13.869 -2.5878 -2.3523 -1.3005
 8238TIP3   OH246128   5.425   3.510  12.115 -0.3520  0.0284  0.3105
 8238TIP3    H146129   5.520   3.508  12.131 -0.5135  1.0181  1.5455
 8238TIP3    H246130   5.394   3.426  12.149  0.1091 -0.4313 -0.3773
 8239TIP3   OH246131   3.072   1.065   3.113 -0.9874 -0.4850  0.0771
 8239TIP3    H146132   3.079   0.970   3.113 -0.1801 -0.4461 -0.8637
 8239TIP3    H246133   3.157   1.095   3.083 -1.5836  0.5001 -0.6900
 8240TIP3   OH246134   4.270   2.802   0.491  0.1422  0.1375 -0.1992
 8240TIP3    H146135   4.267   2.733   0.558  1.2262  0.9706  0.7627
 8240TIP3    H246136   4.179   2.822   0.473 -0.1932 -1.5232 -0.4782
 8241TIP3   OH246137   4.378   4.469  13.717 -0.1113 -0.2208  0.4479
 8241TIP3    H146138   4.389   4.564  13.721 -0.2948 -0.1098 -1.2454
 8241TIP3    H246139   4.461   4.436  13.682 -1.6738 -0.1676 -3.8241
 8242TIP3   OH246140   4.302   1.021   3.387 -0.0775  0.1884 -0.1797
 8242TIP3    H146141   4.253   1.062   3.458  1.0455  2.6797 -0.7516
 8242TIP3    H246142   4.245   1.029   3.310  0.0035  0.3442 -0.2227
 8243TIP3   OH246143   6.739   1.933   3.460 -0.2582 -0.0327  0.5707
 8243TIP3    H146144   6.685   1.884   3.398 -0.1304  0.7825 -0.2024
 8243TIP3    H246145   6.745   1.875   3.536 -1.1963 -0.6597  0.2004
 8244TIP3   OH246146   3.107   3.770  12.859 -0.0194 -0.6154 -0.1280
 8244TIP3    H146147   3.172   3.777  12.928  0.3144  0.5980 -0.5437
 8244TIP3    H246148   3.080   3.860  12.842 -2.8670 -1.1435  1.0116
 8245TIP3   OH246149   2.231   6.470  13.582 -0.1005  0.1188  0.4484
 8245TIP3    H146150   2.173   6.475  13.658 -2.0041 -0.1789 -0.9021
 8245TIP3    H246151   2.231   6.559  13.547  0.3681  0.1426  0.5053
 8246TIP3   OH246152   2.766   5.739  13.087 -0.6602  0.7342  0.0482
 8246TIP3    H146153   2.778   5.644  13.089 -0.7957  0.7288  0.6930
 8246TIP3    H246154   2.671   5.751  13.085 -0.6363  0.8473 -0.9282
 8247TIP3   OH246155   3.692   2.451   4.185 -0.0811  0.3294  0.4624
 8247TIP3    H146156   3.652   2.446   4.098 -1.1705  1.0734  0.8936
 8247TIP3    H246157   3.771   2.398   4.179 -0.3196  0.1062 -0.8858
 8248TIP3   OH246158   0.671   4.659   1.874 -0.0995  0.3020  0.3872
 8248TIP3    H146159   0.681   4.733   1.933 -0.1780  0.1313  0.6179
 8248TIP3    H246160   0.682   4.582   1.930  0.3037  0.1404  0.0937
 8249TIP3   OH246161   5.396   6.143  17.166 -0.7884  0.1754 -0.3026
 8249TIP3    H146162   5.489   6.165  17.168 -0.8228  0.3474 -0.5306
 8249TIP3    H246163   5.359   6.193  17.239 -0.6529 -0.1317 -0.0218
 8250TIP3   OH246164   6.588   0.842   3.100 -0.0574  0.8536  0.0813
 8250TIP3    H146165   6.584   0.746   3.101  0.5083  0.7753 -1.8313
 8250TIP3    H246166   6.670   0.863   3.144  0.0433  0.4291  0.0988
 8251TIP3   OH246167   3.959   0.485   1.543 -0.0302  0.6265  0.0653
 8251TIP3    H146168   3.985   0.559   1.598  0.3712  1.8072 -1.6360
 8251TIP3    H246169   3.952   0.521   1.455  0.0269 -1.3384 -0.8122
 8252TIP3   OH246170   6.120   2.612   0.812 -0.3313 -0.1768  0.1438
 8252TIP3    H146171   6.098   2.560   0.735  2.1427 -1.1798  0.0265
 8252TIP3    H246172   6.061   2.581   0.880 -0.7359 -1.1939 -0.6561
 8253TIP3   OH246173   2.492   3.713  16.456 -0.4146  0.6503 -0.3386
 8253TIP3    H146174   2.527   3.661  16.384 -2.0956  2.4464 -2.5920
 8253TIP3    H246175   2.446   3.650  16.511 -0.0014 -0.6324 -1.4114
 8254TIP3   OH246176   0.436   1.144   1.915  0.0300  0.0283 -0.5901
 8254TIP3    H146177   0.347   1.114   1.936  0.1707 -0.9452 -1.3490
 8254TIP3    H246178   0.492   1.098   1.976  0.1933 -0.8642 -1.3977
 8255TIP3   OH246179   6.370   6.622  11.742  0.2089  0.1236  0.4202
 8255TIP3    H146180   6.456   6.581  11.748  1.0628  1.8266  0.6440
 8255TIP3    H246181   6.312   6.563  11.789  1.6223 -0.1853  1.8988
 8256TIP3   OH246182   2.653   3.654  15.702  0.4653 -0.4493  0.3005
 8256TIP3    H146183   2.663   3.740  15.743  1.9974 -1.1496  1.5145
 8256TIP3    H246184   2.713   3.656  15.627  0.2639 -0.3561  0.1408
 8257TIP3   OH246185   0.334   2.038  16.243 -0.0993 -0.3063  0.1060
 8257TIP3    H146186   0.339   1.980  16.319 -0.9074  1.1865  1.3417
 8257TIP3    H246187   0.329   2.126  16.280 -0.2195  0.4817 -1.6963
 8258TIP3   OH246188   3.384   6.535  15.875  0.4862 -0.3243  0.5023
 8258TIP3    H146189   3.455   6.480  15.841  1.2248  1.5650 -1.2011
 8258TIP3    H246190   3.429   6.610  15.913 -0.5589  1.3870 -1.4727
 8259TIP3   OH246191   3.906   1.618  16.277 -0.1522  0.2867  0.1958
 8259TIP3    H146192   3.924   1.662  16.194 -0.5223  0.6143  0.2894
 8259TIP3    H246193   3.830   1.563  16.259 -0.1240  0.2220  0.2707
 8260TIP3   OH246194   4.717   5.591   6.115  0.0523  0.0431  0.0603
 8260TIP3    H146195   4.770   5.584   6.195  0.0565 -0.3437  0.0254
 8260TIP3    H246196   4.627   5.602   6.147  0.0386 -0.2388  0.1156
 8261TIP3   OH246197   3.615   4.617  14.453 -0.1461 -0.1201  1.2276
 8261TIP3    H146198   3.544   4.558  14.427  0.1839 -0.0458  0.1038
 8261TIP3    H246199   3.685   4.559  14.483 -0.5545 -0.2031  2.0638
 8262TIP3   OH246200   4.644   1.447   4.368  0.0171  0.0640 -0.1241
 8262TIP3    H146201   4.550   1.455   4.385  0.0674 -0.9922  0.7890
 8262TIP3    H246202   4.658   1.352   4.358  1.0919  0.1593  0.4100
 8263TIP3   OH246203   1.404   4.975   2.664  0.5292 -0.2668 -0.4322
 8263TIP3    H146204   1.444   4.970   2.577 -0.3249  0.7967 -0.9216
 8263TIP3    H246205   1.397   5.069   2.681 -2.7239 -0.2941 -0.9012
 8264TIP3   OH246206   4.037   6.327  11.660  0.1044  0.4483  0.0684
 8264TIP3    H146207   3.994   6.393  11.606 -2.0687 -0.5200  0.5434
 8264TIP3    H246208   4.038   6.248  11.606  1.7776  0.5476 -0.1101
 8265TIP3   OH246209   4.852   5.541   4.056  0.2972 -0.0089  0.0033
 8265TIP3    H146210   4.876   5.497   4.138 -1.9560 -2.1458 -0.3599
 8265TIP3    H246211   4.890   5.487   3.987 -0.4780 -0.0468 -0.4110
 8266TIP3   OH246212   4.948   2.493   0.222 -0.1912 -0.6395  0.6453
 8266TIP3    H146213   4.983   2.423   0.168 -1.8610 -1.4470  0.5349
 8266TIP3    H246214   5.008   2.500   0.296  0.4745 -1.5820  0.2037
 8267TIP3   OH246215   2.808   3.480   5.774 -0.6485 -0.3628  0.2736
 8267TIP3    H146216   2.780   3.530   5.697 -0.0762 -1.6743 -0.8339
 8267TIP3    H246217   2.787   3.389   5.751  1.0997 -0.9726  0.9426
 8268TIP3   OH246218   4.187   2.521  17.282 -0.1699  0.2220 -0.0926
 8268TIP3    H146219   4.149   2.435  17.266  1.0838 -0.2205 -0.8623
 8268TIP3    H246220   4.188   2.529  17.377 -1.9313  0.1705 -0.0319
 8269TIP3   OH246221   3.430   4.884  14.156 -0.0697  0.4196 -0.2726
 8269TIP3    H146222   3.434   4.949  14.085 -0.5105 -0.8185 -1.4832
 8269TIP3    H246223   3.516   4.842  14.154  0.7544  1.8777  1.4770
 8270TIP3   OH246224   3.076   4.883   6.139  0.2928  0.3183  0.3228
 8270TIP3    H146225   3.048   4.794   6.161  1.1246  0.2328  1.0816
 8270TIP3    H246226   3.000   4.938   6.159  0.0631 -0.1210  0.6491
 8271TIP3   OH246227   3.564   0.187   3.892 -0.3711  0.4130  0.6580
 8271TIP3    H146228   3.572   0.170   3.798  0.9394  1.0322  0.6278
 8271TIP3    H246229   3.495   0.128   3.921  0.0855 -0.7382 -0.4559
 8272TIP3   OH246230   6.487   4.531  14.007  0.4185  0.0365 -0.3652
 8272TIP3    H146231   6.562   4.489  14.051 -0.9397 -1.0678  1.0017
 8272TIP3    H246232   6.458   4.598  14.069  1.4726  1.9118 -1.7841
 8273TIP3   OH246233   3.365   3.194   3.544 -0.3222  0.2443 -0.1901
 8273TIP3    H146234   3.355   3.099   3.548  1.3161  0.0135 -0.6253
 8273TIP3    H246235   3.361   3.222   3.635  1.0049 -0.4909  0.1217
 8274TIP3   OH246236   5.770   1.016   4.008 -0.4386  0.6335  0.9128
 8274TIP3    H146237   5.674   1.024   4.010 -0.5032 -0.1276  2.8150
 8274TIP3    H246238   5.801   1.107   4.006 -1.1857  0.8966  0.5238
 8275TIP3   OH246239   5.467   5.408   4.871  0.0512  0.3014 -0.0817
 8275TIP3    H146240   5.395   5.421   4.809 -0.4391 -0.3115  0.3361
 8275TIP3    H246241   5.535   5.363   4.821 -0.0777  0.4088 -0.3502
 8276TIP3   OH246242   4.482   3.370   0.537  0.1264  0.3309 -0.2406
 8276TIP3    H146243   4.401   3.392   0.583  0.2694  0.6620 -0.1495
 8276TIP3    H246244   4.509   3.451   0.494 -0.8302 -0.3319 -2.2189
 8277TIP3   OH246245   6.578   1.463  12.603 -0.2695  0.5004 -0.4802
 8277TIP3    H146246   6.536   1.420  12.677  2.2965  0.1577  0.8553
 8277TIP3    H246247   6.528   1.433  12.527 -1.4882 -1.0478  0.8584
 8278TIP3   OH246248   3.590   1.505   1.434 -0.1361  0.2616  0.1936
 8278TIP3    H146249   3.593   1.598   1.458 -0.3848  0.6862 -1.3664
 8278TIP3    H246250   3.513   1.471   1.479  0.9795  0.3392  2.2904
 8279TIP3   OH246251   4.360   4.001  15.646 -0.6597 -0.1266  0.2716
 8279TIP3    H146252   4.441   3.993  15.596 -1.3137 -0.2939 -0.7957
 8279TIP3    H246253   4.365   4.087  15.687  0.3401 -0.3948  0.7505
 8280TIP3   OH246254   1.258   4.336  12.228 -0.3370  0.2872 -0.3456
 8280TIP3    H146255   1.174   4.339  12.183 -0.5593 -0.1873  0.0236
 8280TIP3    H246256   1.321   4.313  12.160 -0.7392 -0.8932 -0.3454
 8281TIP3   OH246257   3.027   0.249   0.453  0.1308  0.2731  0.1077
 8281TIP3    H146258   3.072   0.320   0.500  0.2637 -0.7178  1.5418
 8281TIP3    H246259   2.940   0.283   0.436 -0.1158  0.4780  1.6149
 8282TIP3   OH246260   5.107   5.002  15.887 -0.4036 -0.3437  0.1250
 8282TIP3    H146261   5.085   4.914  15.919  0.0179  0.4898  3.0181
 8282TIP3    H246262   5.179   5.031  15.943 -2.6090  3.0548  1.5145
 8283TIP3   OH246263   0.702   1.729  17.107 -0.0205 -0.1980  0.5354
 8283TIP3    H146264   0.770   1.676  17.147 -1.0921 -0.5484  1.9787
 8283TIP3    H246265   0.633   1.667  17.083  0.9225 -0.1354 -2.7864
 8284TIP3   OH246266   1.368   4.569   0.765 -0.1865  0.3906  0.3826
 8284TIP3    H146267   1.426   4.607   0.700 -0.7299  1.7233  0.6431
 8284TIP3    H246268   1.292   4.627   0.766 -0.4768  0.0192  1.7330
 8285TIP3   OH246269   1.731   1.205  13.450 -0.0854 -0.2745  0.1579
 8285TIP3    H146270   1.665   1.138  13.432  0.0868  0.3878 -3.9786
 8285TIP3    H246271   1.686   1.288  13.436  1.0390  0.2690 -0.3683
 8286TIP3   OH246272   4.833   2.297   5.199  0.0572  0.1635  0.2216
 8286TIP3    H146273   4.834   2.380   5.152  1.5947  0.7715  1.2577
 8286TIP3    H246274   4.884   2.313   5.278 -1.1153 -1.2684  1.3491
 8287TIP3   OH246275   6.679   3.630   2.591  0.0079  0.9868  1.1414
 8287TIP3    H146276   6.729   3.683   2.652  1.2109 -1.6336  2.5997
 8287TIP3    H246277   6.633   3.566   2.646 -1.1348  0.3088 -0.5096
 8288TIP3   OH246278   6.570   5.304   4.464  0.5145  0.1594 -0.1677
 8288TIP3    H146279   6.479   5.316   4.491 -0.0572 -1.1143 -1.4162
 8288TIP3    H246280   6.590   5.380   4.410  0.3307  0.6516  0.4533
 8289TIP3   OH246281   4.031   4.813  15.848 -0.5536 -0.0423  0.4479
 8289TIP3    H146282   4.040   4.871  15.924 -0.2153  0.6459 -0.1083
 8289TIP3    H246283   4.070   4.730  15.877  0.1536  0.4100  0.8130
 8290TIP3   OH246284   5.666   3.267   5.200  0.3336  0.2036 -0.7427
 8290TIP3    H146285   5.581   3.248   5.159  0.2814  1.3899 -1.2382
 8290TIP3    H246286   5.720   3.191   5.179 -0.5278 -0.4650 -0.6288
 8291TIP3   OH246287   6.318   3.843  11.905 -0.1671  0.1676  0.7096
 8291TIP3    H146288   6.308   3.749  11.922  0.0564  0.0359  0.1245
 8291TIP3    H246289   6.262   3.884  11.971 -0.0528 -0.3617  1.1498
 8292TIP3   OH246290   0.593   4.575   2.255  0.3685  0.7757 -0.2804
 8292TIP3    H146291   0.683   4.590   2.226  0.3132 -1.3206 -1.7815
 8292TIP3    H246292   0.601   4.511   2.326  0.1910  2.6485  1.5073
 8293TIP3   OH246293   5.195   6.535   3.215  0.5260 -0.1726  0.6885
 8293TIP3    H146294   5.128   6.480   3.255 -0.0034  1.5509  2.3737
 8293TIP3    H246295   5.176   6.535   3.122 -0.3428 -1.6016  0.8475
 8294TIP3   OH246296   4.290   0.620   2.401  0.2709  0.3289 -0.1035
 8294TIP3    H146297   4.298   0.698   2.346  0.2554  0.3455 -0.0822
 8294TIP3    H246298   4.328   0.549   2.348  1.0249  0.5022  0.2026
 8295TIP3   OH246299   0.967   2.118   5.285 -0.1524 -0.0671 -0.5412
 8295TIP3    H146300   0.980   2.211   5.269 -0.7283  0.1451  0.1566
 8295TIP3    H246301   0.883   2.097   5.243  0.6916 -0.6296 -2.0106
 8296TIP3   OH246302   5.293   5.881   0.545  0.0603 -0.3947 -0.5623
 8296TIP3    H146303   5.225   5.937   0.510 -1.5669 -0.3879  2.2691
 8296TIP3    H246304   5.329   5.835   0.469 -2.4971  0.2611 -2.2757
 8297TIP3   OH246305   4.091   0.552  14.212 -0.2556  0.0551 -0.2530
 8297TIP3    H146306   4.090   0.567  14.306  4.7596 -2.6396  0.5699
 8297TIP3    H246307   4.035   0.475  14.199 -0.0067 -0.3203  0.7899
 8298TIP3   OH246308   2.908   6.150   5.981  0.0797  0.5417  0.2066
 8298TIP3    H146309   2.880   6.240   5.966 -0.8420  0.1710 -0.3323
 8298TIP3    H246310   2.920   6.145   6.076  0.8059  1.4110  0.1790
 8299TIP3   OH246311   5.526   3.105   3.492 -0.4590  0.3683  0.0062
 8299TIP3    H146312   5.517   3.184   3.438 -0.5619  0.1064 -0.3652
 8299TIP3    H246313   5.438   3.068   3.495 -0.4466  0.3664  0.3335
 8300TIP3   OH246314   1.120   2.006  16.737  0.0665  0.2046  0.1552
 8300TIP3    H146315   1.027   2.017  16.714 -0.1545  1.5831  1.5834
 8300TIP3    H246316   1.163   2.080  16.695  0.4345 -0.0876  0.0159
 8301TIP3   OH246317   1.778   5.317   4.241 -0.3229  0.6563 -0.0477
 8301TIP3    H146318   1.808   5.374   4.171 -0.9220  1.2062  0.1325
 8301TIP3    H246319   1.683   5.320   4.236 -0.3782  0.7015  0.7741
 8302TIP3   OH246320   4.581   6.081   4.885 -0.4220  0.0554 -0.1615
 8302TIP3    H146321   4.574   6.109   4.977 -0.1246  1.4143 -0.5276
 8302TIP3    H246322   4.540   6.152   4.836 -0.9302 -0.8437 -1.0745
 8303TIP3   OH246323   4.492   0.202   0.472  0.1321  0.1204 -0.2330
 8303TIP3    H146324   4.500   0.172   0.563  0.1491 -0.1331 -0.3171
 8303TIP3    H246325   4.568   0.165   0.428 -0.0436 -0.0168 -0.4211
 8304TIP3   OH246326   6.413   4.605   4.089  0.1438 -0.1422  0.1617
 8304TIP3    H146327   6.411   4.588   3.994 -1.7630  1.0331 -0.0548
 8304TIP3    H246328   6.322   4.595   4.117  0.7401 -0.8331  1.9732
 8305TIP3   OH246329   2.910   1.949   5.733 -0.1242  0.2478 -0.0156
 8305TIP3    H146330   2.900   2.001   5.654  0.8471  1.1666  0.4529
 8305TIP3    H246331   2.911   2.013   5.804  2.5108 -0.2202  0.4769
 8306TIP3   OH246332   5.506   2.291  11.660  0.0046  0.1043  0.2154
 8306TIP3    H146333   5.437   2.241  11.703  0.7998  0.3673  1.8514
 8306TIP3    H246334   5.554   2.226  11.608 -0.4745 -0.3680  0.3521
 8307TIP3   OH246335   6.419   4.158   2.101 -0.2205  0.2257  0.9534
 8307TIP3    H146336   6.330   4.193   2.092 -0.5248 -0.4286  1.3209
 8307TIP3    H246337   6.476   4.235   2.095 -0.8633  0.7620  1.5370
 8308TIP3   OH246338   0.524   1.863  13.857  0.8009 -0.0771  0.0352
 8308TIP3    H146339   0.618   1.872  13.841  0.9646  1.1611  1.4991
 8308TIP3    H246340   0.516   1.844  13.950 -0.3568 -1.7904 -0.3681
 8309TIP3   OH246341   3.293   3.397  13.335  0.2697  0.2153 -0.1080
 8309TIP3    H146342   3.359   3.383  13.267 -1.0430  0.9015 -1.5805
 8309TIP3    H246343   3.217   3.349  13.304  0.3890 -1.6642  2.1991
 8310TIP3   OH246344   2.192   2.537   0.314  0.3913 -0.6864 -0.0221
 8310TIP3    H146345   2.171   2.585   0.234  0.5164 -2.0965 -0.9410
 8310TIP3    H246346   2.282   2.507   0.300  0.6308 -0.4174  0.9223
 8311TIP3   OH246347   0.280   4.992   3.751 -0.4669  0.7507 -0.3398
 8311TIP3    H146348   0.288   5.013   3.844  3.7338  0.5534 -0.4218
 8311TIP3    H246349   0.303   5.073   3.706 -1.7927  0.6657 -1.2057
 8312TIP3   OH246350   1.763   3.067  13.484 -0.1740 -0.0378  0.2464
 8312TIP3    H146351   1.777   2.977  13.511 -0.8442 -0.0954  0.4349
 8312TIP3    H246352   1.668   3.073  13.467  0.0220  0.3396 -0.8254
 8313TIP3   OH246353   1.332   3.490  13.692 -0.3631 -0.1878  0.2268
 8313TIP3    H146354   1.247   3.529  13.673  0.8407  1.5736 -2.1988
 8313TIP3    H246355   1.389   3.564  13.710  1.0544 -1.1585 -0.0879
 8314TIP3   OH246356   5.308   2.960   3.539  0.1068 -0.7374 -0.1420
 8314TIP3    H146357   5.214   2.977   3.536 -0.2376 -2.4967 -1.2196
 8314TIP3    H246358   5.314   2.867   3.562  1.5774 -0.6933 -0.2889
 8315TIP3   OH246359   5.719   4.746  13.809 -0.5529 -0.0960  0.1887
 8315TIP3    H146360   5.631   4.712  13.791 -0.2095 -1.6565  1.2536
 8315TIP3    H246361   5.757   4.761  13.723 -2.2760  1.9187 -0.3395
 8316TIP3   OH246362   0.934   4.931   0.038  0.1456  0.1709  0.4698
 8316TIP3    H146363   0.871   4.929  -0.034 -0.4813 -0.6006  1.0252
 8316TIP3    H246364   0.996   4.861   0.018  0.4349  0.4714  0.2884
 8317TIP3   OH246365   4.431   6.726   4.492  0.5710  0.2535  0.2700
 8317TIP3    H146366   4.394   6.680   4.566 -0.7420 -1.7442 -1.5226
 8317TIP3    H246367   4.502   6.670   4.461  0.1066  0.2945 -0.9003
 8318TIP3   OH246368   3.829   4.382  13.317 -0.5136  0.1775  0.2778
 8318TIP3    H146369   3.769   4.450  13.345 -3.7712 -2.5523  0.5540
 8318TIP3    H246370   3.840   4.326  13.394  1.0176 -0.3410 -0.2771
 8319TIP3   OH246371   4.774   1.315  15.396  0.0861  0.1505 -0.0928
 8319TIP3    H146372   4.837   1.375  15.356  1.0328  0.9093  2.3630
 8319TIP3    H246373   4.742   1.262  15.323  0.9883  2.0470 -1.9620
 8320TIP3   OH246374   5.905   6.171  16.423  0.4341  0.4990 -0.5898
 8320TIP3    H146375   5.996   6.152  16.448 -0.4206 -3.5536  0.1125
 8320TIP3    H246376   5.904   6.163  16.328  0.2565 -3.9990 -0.4529
 8321TIP3   OH246377   0.357   1.090   2.202  0.2653  0.7097 -0.1612
 8321TIP3    H146378   0.291   1.114   2.266 -1.7044  0.5270 -2.0113
 8321TIP3    H246379   0.311   1.033   2.140  2.4577 -0.3340 -0.9397
 8322TIP3   OH246380   4.090   2.774   1.572  0.3549  0.5307 -0.6231
 8322TIP3    H146381   4.166   2.793   1.627  0.3689 -0.6031 -0.2329
 8322TIP3    H246382   4.103   2.684   1.543 -2.3811 -0.8593  2.0222
 8323TIP3   OH246383   4.094   3.274   4.596 -0.6064  0.1963 -0.5854
 8323TIP3    H146384   4.181   3.313   4.601 -0.4047 -0.2094 -0.8840
 8323TIP3    H246385   4.036   3.348   4.579 -0.0962  0.2644 -2.2596
 8324TIP3   OH246386   2.787   0.302  11.701  0.2185 -0.0083  0.6760
 8324TIP3    H146387   2.797   0.245  11.777 -0.2026 -2.5685 -1.0841
 8324TIP3    H246388   2.693   0.316  11.693  0.3267  1.2617  1.2422
 8325TIP3   OH246389   6.084   1.128   3.833  0.2932  0.0752  0.5590
 8325TIP3    H146390   6.126   1.185   3.769  0.7372 -0.4896  0.3412
 8325TIP3    H246391   6.154   1.105   3.894 -0.1529  0.7055  1.3317
 8326TIP3   OH246392   4.539   4.655   2.993  0.0618  0.7109  0.3785
 8326TIP3    H146393   4.635   4.652   2.994  0.0557  0.6876  0.8975
 8326TIP3    H246394   4.516   4.694   3.077 -0.4803 -1.4548  1.2860
 8327TIP3   OH246395   2.692   4.817  11.721 -0.2292  0.1562  0.0843
 8327TIP3    H146396   2.705   4.859  11.635 -0.0959  0.6705  0.3496
 8327TIP3    H246397   2.665   4.728  11.700  1.5985 -0.3142 -0.5084
 8328TIP3   OH246398   6.341   0.790   5.115 -0.1437 -0.2558 -0.1213
 8328TIP3    H146399   6.288   0.860   5.153  0.5624 -0.0898  0.5810
 8328TIP3    H246400   6.332   0.717   5.176 -0.7143 -0.7094 -0.7465
 8329TIP3   OH246401   3.847   5.019   3.739 -0.7236  0.6344  0.7060
 8329TIP3    H146402   3.858   5.027   3.644  0.5576 -1.4794  0.5982
 8329TIP3    H246403   3.762   5.060   3.757 -0.8452  1.3878 -1.2864
 8330TIP3   OH246404   4.077   2.608  12.161 -0.2617 -0.2652  0.1540
 8330TIP3    H146405   4.004   2.662  12.131 -1.0933 -1.2151  0.4374
 8330TIP3    H246406   4.079   2.534  12.100 -0.4176 -0.9559  0.9709
 8331TIP3   OH246407   0.200   1.735  11.824 -0.4493  0.5897 -0.1835
 8331TIP3    H146408   0.190   1.830  11.811  0.3163  0.5468 -1.0987
 8331TIP3    H246409   0.282   1.726  11.873 -0.8673  0.4251  0.5125
 8332TIP3   OH246410   1.941   3.640   1.178 -0.7205 -0.1645 -0.1158
 8332TIP3    H146411   1.885   3.717   1.168  0.3353  0.5432 -0.7498
 8332TIP3    H246412   1.916   3.583   1.105  0.8165  1.0974 -1.7164
 8333TIP3   OH246413   0.486   3.978  17.382 -0.2955 -0.0692 -0.2172
 8333TIP3    H146414   0.515   4.060  17.341  0.0837 -0.9491 -1.8093
 8333TIP3    H246415   0.567   3.928  17.395 -0.6547 -0.7382 -0.5264
 8334TIP3   OH246416   3.852   2.465  11.120  0.1326 -0.1150 -0.3275
 8334TIP3    H146417   3.948   2.471  11.116  0.0505  0.6687 -2.4173
 8334TIP3    H246418   3.822   2.525  11.053 -1.7888 -1.4909 -0.7747
 8335TIP3   OH246419   3.361   0.064  13.997 -0.0828  0.2558 -0.0532
 8335TIP3    H146420   3.338   0.146  13.954 -0.8045  0.9569  1.5624
 8335TIP3    H246421   3.280   0.037  14.042  0.4789 -0.6922  0.4231
 8336TIP3   OH246422   0.380   6.458  15.248  0.1152  0.0054 -0.0549
 8336TIP3    H146423   0.344   6.373  15.222  0.4256 -0.4011  0.8217
 8336TIP3    H246424   0.403   6.500  15.165 -2.3466  0.2998 -0.6587
 8337TIP3   OH246425   1.063   2.454  14.081  0.1112  0.0795  0.0763
 8337TIP3    H146426   1.058   2.496  13.995  2.9765  0.1463 -0.1497
 8337TIP3    H246427   1.015   2.372  14.070 -1.5280  1.0874 -0.8500
 8338TIP3   OH246428   0.781   4.307   1.740  0.2117 -0.4572 -0.2380
 8338TIP3    H146429   0.852   4.243   1.740 -1.0648 -1.9540  0.1125
 8338TIP3    H246430   0.757   4.317   1.648  1.1477  0.3963 -0.4001
 8339TIP3   OH246431   3.435   5.442  15.248  0.2844  0.0751  0.1275
 8339TIP3    H146432   3.443   5.364  15.303  1.1250  1.6549  2.4235
 8339TIP3    H246433   3.523   5.455  15.211  0.1231 -0.1065 -0.3237
 8340TIP3   OH246434   2.924   4.860   2.704  0.3368 -0.1416  0.2255
 8340TIP3    H146435   2.934   4.929   2.638 -2.3402  0.1696  0.0321
 8340TIP3    H246436   2.903   4.907   2.785  2.2650 -0.5979  1.0505
 8341TIP3   OH246437   4.333   1.619   5.089 -0.6756 -0.4919 -0.6010
 8341TIP3    H146438   4.426   1.631   5.107 -0.6722 -1.0777 -0.2372
 8341TIP3    H246439   4.288   1.656   5.165 -0.8178  1.5092 -1.5868
 8342TIP3   OH246440   5.076   4.638   0.211  0.5539 -0.0851 -0.7666
 8342TIP3    H146441   5.024   4.701   0.161 -0.0796  2.3682  2.5979
 8342TIP3    H246442   5.025   4.557   0.210 -0.8299  0.7573 -1.6551
 8343TIP3   OH246443   1.331   4.551  11.629  0.0574 -0.1305 -0.1001
 8343TIP3    H146444   1.424   4.542  11.650  0.0004 -1.4947 -0.3406
 8343TIP3    H246445   1.298   4.613  11.694  0.4140 -2.3333  2.3613
 8344TIP3   OH246446   6.650   5.924  11.053 -0.3677  0.8409  0.0063
 8344TIP3    H146447   6.567   5.951  11.012 -0.5280 -0.3563 -0.5173
 8344TIP3    H246448   6.712   5.923  10.980 -0.3213  0.0196  0.0565
 8345TIP3   OH246449   1.732   1.202  12.059 -0.2136 -0.3508  0.5609
 8345TIP3    H146450   1.680   1.160  12.127 -1.2095  0.5918  0.4104
 8345TIP3    H246451   1.670   1.216  11.987  0.7266 -0.9723 -0.3863
 8346TIP3   OH246452   3.896   2.194  12.628 -0.3286 -0.8580  0.0536
 8346TIP3    H146453   3.957   2.130  12.593  2.3920  0.2635  2.3598
 8346TIP3    H246454   3.948   2.272  12.642 -2.3971  0.3196  1.7669
 8347TIP3   OH246455   2.177   4.595  12.715 -0.1908 -0.0300 -0.1785
 8347TIP3    H146456   2.270   4.615  12.707 -0.3159 -0.1032 -2.2434
 8347TIP3    H246457   2.140   4.670  12.761  0.6866  0.5850 -0.4575
 8348TIP3   OH246458   3.889   0.860   3.491 -0.1464 -0.2937  0.1126
 8348TIP3    H146459   3.975   0.852   3.533  0.0915 -0.7797 -0.4413
 8348TIP3    H246460   3.887   0.788   3.428 -1.0158 -0.3603  0.2076
 8349TIP3   OH246461   4.344   2.486  10.646 -0.2924  0.5050  0.1166
 8349TIP3    H146462   4.406   2.514  10.579 -0.5902  0.5766 -0.1339
 8349TIP3    H246463   4.287   2.562  10.659 -0.6040  0.2912  0.0186
 8350TIP3   OH246464   4.244   5.953  11.185  0.0660 -0.2956  0.8794
 8350TIP3    H146465   4.167   6.008  11.195 -0.2193 -0.7684  1.3542
 8350TIP3    H246466   4.318   6.013  11.186 -0.3590  0.3394 -1.1717
 8351TIP3   OH246467   6.017   3.720   4.699 -0.3893 -0.4953  0.5109
 8351TIP3    H146468   5.959   3.695   4.771 -2.0481  1.1060 -0.1994
 8351TIP3    H246469   6.043   3.809   4.720  1.7327 -1.0928  0.6941
 8352TIP3   OH246470   0.972   5.847  13.009  0.2091  0.1289  0.6964
 8352TIP3    H146471   0.917   5.896  13.070 -1.6658 -0.7833 -0.1551
 8352TIP3    H246472   0.953   5.886  12.923  1.0887 -0.0628  0.4030
 8353TIP3   OH246473   1.574   2.323   4.343  0.3700 -0.7799 -0.6762
 8353TIP3    H146474   1.629   2.381   4.289  0.5511 -0.6305 -0.3350
 8353TIP3    H246475   1.636   2.262   4.383  0.7079  1.1501  1.9905
 8354TIP3   OH246476   5.770   5.622   0.467  0.3519  0.3791  1.0429
 8354TIP3    H146477   5.765   5.526   0.469  4.1449 -0.0473 -0.9888
 8354TIP3    H246478   5.713   5.647   0.394  0.7808 -0.5350  0.3769
 8355TIP3   OH246479   2.628   0.953   4.363  0.6389  0.1015 -0.0151
 8355TIP3    H146480   2.622   1.038   4.408 -1.5990  0.8086 -1.4949
 8355TIP3    H246481   2.566   0.960   4.291  1.3988 -2.3466 -0.9929
 8356TIP3   OH246482   4.332   4.321  16.033  0.2027 -0.3134 -0.2755
 8356TIP3    H146483   4.240   4.304  16.055  0.4386 -1.4913 -0.1504
 8356TIP3    H246484   4.369   4.235  16.015  1.2631  0.1618 -0.4443
 8357TIP3   OH246485   6.202   5.850   4.247 -0.0531 -0.7193  0.2290
 8357TIP3    H146486   6.123   5.871   4.296  0.5037 -0.2797  0.9578
 8357TIP3    H246487   6.260   5.925   4.260  0.3656 -0.8949 -0.5552
 8358TIP3   OH246488   2.473   1.196  15.235 -0.5444 -0.5749  0.1530
 8358TIP3    H146489   2.567   1.195  15.249 -0.6136 -1.7436  0.6467
 8358TIP3    H246490   2.439   1.128  15.293 -1.9375  1.1820  1.5041
 8359TIP3   OH246491   4.807   0.640  11.409 -0.0568 -0.0469  0.3559
 8359TIP3    H146492   4.863   0.717  11.423  1.6417 -0.9781 -0.9494
 8359TIP3    H246493   4.718   0.673  11.418  0.6542  1.8506  0.8815
 8360TIP3   OH246494   5.872   2.767   3.311  0.4151  0.1389 -0.4047
 8360TIP3    H146495   5.846   2.799   3.225 -0.2404 -0.3611 -0.4035
 8360TIP3    H246496   5.790   2.741   3.352  0.7035  0.5424  0.4455
 8361TIP3   OH246497   1.573   3.076  14.335  0.0261  0.5922 -0.0708
 8361TIP3    H146498   1.593   3.140  14.267 -1.3152 -1.0294 -2.1316
 8361TIP3    H246499   1.518   3.011  14.292 -0.7625 -0.6468  2.5631
 8362TIP3   OH246500   0.035   2.327  13.109 -0.0395  0.4324  0.0074
 8362TIP3    H146501   0.023   2.348  13.016  0.2855  0.2377 -0.0821
 8362TIP3    H246502  -0.044   2.359  13.152  0.5276  2.0508 -0.0825
 8363TIP3   OH246503   5.925   3.743   4.450  0.0207  0.1764 -0.1443
 8363TIP3    H146504   5.974   3.720   4.529  1.7790 -2.2844 -1.8071
 8363TIP3    H246505   5.850   3.683   4.449 -0.0682  0.2887 -0.2860
 8364TIP3   OH246506   3.931   5.201   6.262  0.2289  0.5012  0.4490
 8364TIP3    H146507   3.927   5.164   6.174  1.1560  2.5851 -0.5291
 8364TIP3    H246508   3.950   5.125   6.318 -0.4343 -0.8833 -1.1001
 8365TIP3   OH246509   2.046   6.366  16.959  0.3193  0.3958 -0.1062
 8365TIP3    H146510   2.030   6.321  17.042  1.2796  0.7311  0.2653
 8365TIP3    H246511   2.141   6.362  16.947  0.3521  1.7366 -0.4004
 8366TIP3   OH246512   0.892   2.279  17.166  0.0636 -0.0758 -0.3198
 8366TIP3    H146513   0.851   2.226  17.234 -0.6236  1.0119  0.1363
 8366TIP3    H246514   0.933   2.215  17.107 -0.4463 -1.0848  0.3922
 8367TIP3   OH246515   4.336   4.339  12.804 -0.5303  0.3136 -0.2316
 8367TIP3    H146516   4.255   4.292  12.821  0.6105 -0.4401  4.5786
 8367TIP3    H246517   4.341   4.404  12.873  3.5021 -0.5897  0.5915
 8368TIP3   OH246518   2.889   3.370  17.250 -0.0910 -0.3633 -0.1640
 8368TIP3    H146519   2.922   3.309  17.184  2.1921  0.3103  0.3007
 8368TIP3    H246520   2.843   3.437  17.199  1.5371  0.0932 -1.0894
 8369TIP3   OH246521   6.343   1.334   5.899  0.2518 -0.3243  0.1371
 8369TIP3    H146522   6.349   1.240   5.882 -0.7095 -0.3294 -0.2221
 8369TIP3    H246523   6.332   1.340   5.994 -4.2441 -0.8953 -0.1495
 8370TIP3   OH246524   4.372   6.151  17.005 -0.1852 -0.2981  0.1960
 8370TIP3    H146525   4.416   6.224  16.962 -1.5261  0.5440  0.2268
 8370TIP3    H246526   4.284   6.149  16.967 -0.1642 -1.9512  0.1355
 8371TIP3   OH246527   4.503   4.822  16.374  0.7630 -0.0266  0.3232
 8371TIP3    H146528   4.508   4.873  16.455 -0.4149  0.2241  0.2585
 8371TIP3    H246529   4.410   4.803  16.363  0.7416  0.8393 -1.5013
 8372TIP3   OH246530   6.145   5.118   3.823  0.1764  0.3233  0.0125
 8372TIP3    H146531   6.196   5.195   3.798  0.8569 -0.1175  0.0444
 8372TIP3    H246532   6.127   5.073   3.741 -1.0072  0.9823 -0.1192
 8373TIP3   OH246533   4.102   0.451  13.902 -0.0351 -0.2577  0.2027
 8373TIP3    H146534   4.131   0.539  13.875  1.3780 -0.8997 -0.4907
 8373TIP3    H246535   4.152   0.433  13.981  1.3829 -1.2782 -0.8641
 8374TIP3   OH246536   0.501   2.313   5.175  0.3882 -0.1505  0.4083
 8374TIP3    H146537   0.581   2.292   5.127 -0.3750 -0.7554 -0.6243
 8374TIP3    H246538   0.432   2.312   5.109 -0.6462 -0.7290  1.4726
 8375TIP3   OH246539   1.152   2.566  11.645 -0.2642  0.2668 -0.6182
 8375TIP3    H146540   1.235   2.613  11.638 -0.4584  0.5078 -1.3722
 8375TIP3    H246541   1.139   2.528  11.558 -1.0692  0.4492 -0.5847
 8376TIP3   OH246542   2.709   0.326   5.805 -0.4657  0.4289 -0.0256
 8376TIP3    H146543   2.669   0.412   5.813 -0.3812  0.4233  0.4666
 8376TIP3    H246544   2.700   0.304   5.712 -0.8502  0.7898 -0.0767
 8377TIP3   OH246545   2.768   0.187   6.400  0.2364 -0.1160 -0.1091
 8377TIP3    H146546   2.695   0.248   6.392  0.7293  0.4922 -0.0539
 8377TIP3    H246547   2.846   0.242   6.393  0.6887 -0.6908  0.3003
 8378TIP3   OH246548   3.401   0.642  12.439  0.0362  0.9260 -0.1351
 8378TIP3    H146549   3.404   0.574  12.372 -0.5429  0.8671 -0.1073
 8378TIP3    H246550   3.344   0.606  12.507 -0.0567  1.3293  0.0052
 8379TIP3   OH246551   1.810   4.968  15.042 -0.5140 -0.3034  0.2072
 8379TIP3    H146552   1.903   4.951  15.025 -1.1648 -2.1037 -2.0329
 8379TIP3    H246553   1.778   5.010  14.961 -1.5133  1.0930  1.2724
 8380TIP3   OH246554   6.407   4.343   3.416 -0.6282  0.0060 -0.5876
 8380TIP3    H146555   6.396   4.274   3.351 -1.2022  0.3152 -0.8240
 8380TIP3    H246556   6.324   4.391   3.416  0.6223  2.4536 -2.5129
 8381TIP3   OH246557   4.792   3.534   4.057 -0.1701 -0.2232  0.4422
 8381TIP3    H146558   4.698   3.538   4.073 -0.2246  0.8561 -0.0584
 8381TIP3    H246559   4.800   3.507   3.966  0.0766 -2.5722  1.0875
 8382TIP3   OH246560   3.958   5.232   0.898  0.3590 -0.8361 -0.3364
 8382TIP3    H146561   3.983   5.222   0.990  3.2293 -1.2375 -1.0544
 8382TIP3    H246562   4.039   5.256   0.854 -1.2451  0.8965 -2.5881
 8383TIP3   OH246563   1.863   0.089   2.528  0.7090 -0.5100 -0.0574
 8383TIP3    H146564   1.912   0.087   2.610 -0.3659  1.1846  0.6820
 8383TIP3    H246565   1.771   0.097   2.555  0.4453  1.9201 -1.3508
 8384TIP3   OH246566   2.197   2.002   3.604 -0.0771 -0.3425  0.3217
 8384TIP3    H146567   2.185   2.050   3.522 -2.3262  3.0550  2.3434
 8384TIP3    H246568   2.109   1.972   3.627  0.4314 -0.8405  1.7051
 8385TIP3   OH246569   0.903   4.107  12.033 -0.2696 -0.1741 -0.1401
 8385TIP3    H146570   0.990   4.080  12.065 -0.8935 -2.9023 -0.4688
 8385TIP3    H246571   0.921   4.158  11.954  1.0474 -0.5188 -0.0893
 8386TIP3   OH246572   4.484   4.313  14.924 -0.6329  0.4609  0.2769
 8386TIP3    H146573   4.553   4.345  14.865 -0.0519  0.2735  0.8337
 8386TIP3    H246574   4.523   4.237  14.967 -1.5310 -0.2023 -0.0630
 8387TIP3   OH246575   2.273   4.593  12.410 -0.5257  0.1733  0.0563
 8387TIP3    H146576   2.304   4.649  12.482  0.8792  0.4501 -0.7397
 8387TIP3    H246577   2.333   4.519  12.409 -3.0094 -2.0529  1.8118
 8388TIP3   OH246578   4.534   6.458  14.846 -0.4146 -0.5579  0.3780
 8388TIP3    H146579   4.512   6.467  14.753 -0.9247  0.1201  0.5551
 8388TIP3    H246580   4.623   6.491  14.854 -0.7860  0.4819  0.3185
 8389TIP3   OH246581   6.113   4.861   5.943  0.2269 -0.2007  0.4032
 8389TIP3    H146582   6.194   4.847   5.992  0.1654 -0.3850  0.4539
 8389TIP3    H246583   6.141   4.898   5.859  0.2889  0.6982  0.8129
 8390TIP3   OH246584   2.435   3.213  14.038 -0.0383 -0.3634 -0.0838
 8390TIP3    H146585   2.448   3.307  14.024  1.1111 -0.5686 -0.4695
 8390TIP3    H246586   2.415   3.178  13.951 -1.0027 -0.4053  0.1438
 8391TIP3   OH246587   1.452   3.500  10.364 -0.3699 -0.4864  0.6559
 8391TIP3    H146588   1.489   3.422  10.322 -2.6401 -1.1742 -0.2062
 8391TIP3    H246589   1.360   3.478  10.378 -0.7080  1.4679  1.8849
 8392TIP3   OH246590   2.486   5.237   3.082  0.0827  0.1293  0.6615
 8392TIP3    H146591   2.493   5.169   3.149 -1.2398  0.1278  0.8259
 8392TIP3    H246592   2.395   5.233   3.054 -0.3359  2.5509  1.4453
 8393TIP3   OH246593   6.704   2.577  16.279 -0.1243  0.3470 -0.0221
 8393TIP3    H146594   6.661   2.493  16.261  0.0730  0.1777  0.2860
 8393TIP3    H246595   6.647   2.619  16.344  0.9914 -0.5867  1.6485
 8394TIP3   OH246596   3.334   5.496   1.383 -0.3292  0.2845 -0.3353
 8394TIP3    H146597   3.253   5.466   1.342 -0.7846  2.0451 -0.8321
 8394TIP3    H246598   3.308   5.576   1.429  0.8040 -0.0288  0.8866
 8395TIP3   OH246599   0.337   1.747  13.432  0.2808 -0.5264 -0.2319
 8395TIP3    H146600   0.379   1.665  13.459 -1.9388 -1.2743  1.1923
 8395TIP3    H246601   0.370   1.812  13.494 -0.5457 -1.0883  0.8242
 8396TIP3   OH246602   4.494   1.093  16.677  0.3416  0.5536  0.4036
 8396TIP3    H146603   4.479   1.114  16.769 -1.7289  0.9922  0.0165
 8396TIP3    H246604   4.459   1.168  16.629 -1.2311 -0.8734 -0.8069
 8397TIP3   OH246605   5.758   1.819   0.645 -0.3478  0.0098  0.8410
 8397TIP3    H146606   5.745   1.800   0.738 -0.7103  1.0246  1.0131
 8397TIP3    H246607   5.680   1.868   0.620  0.6667  1.5365  0.5325
 8398TIP3   OH246608   2.291   5.289  10.811 -0.0290  0.2278 -0.3413
 8398TIP3    H146609   2.264   5.200  10.790 -0.3615  0.6684 -1.9364
 8398TIP3    H246610   2.348   5.314  10.739  0.7550  1.0246  0.5261
 8399TIP3   OH246611   2.579   2.667  17.354 -0.4618  0.2578  0.3483
 8399TIP3    H146612   2.503   2.651  17.299 -0.9978 -0.3311  1.2348
 8399TIP3    H246613   2.598   2.583  17.395  1.4484  0.0774 -0.7943
 8400TIP3   OH246614   5.671   4.997  12.249  0.2419 -0.0088 -0.0125
 8400TIP3    H146615   5.616   5.042  12.184  0.2690  0.3415  0.2056
 8400TIP3    H246616   5.627   4.913  12.263 -1.9218  1.3598  2.3013
 8401TIP3   OH246617   0.177   5.547  11.865 -0.1757  0.0521  0.1763
 8401TIP3    H146618   0.187   5.461  11.824 -1.5919  0.4692 -1.1396
 8401TIP3    H246619   0.145   5.529  11.953  0.8833 -0.8001  0.3990
 8402TIP3   OH246620   6.609   4.018   3.498 -0.7980  0.2258  0.0838
 8402TIP3    H146621   6.643   4.044   3.412  1.7075 -1.8297  0.3451
 8402TIP3    H246622   6.647   4.082   3.559  1.9631 -1.4253  0.2333
 8403TIP3   OH246623   5.198   6.012  13.193 -0.4777 -0.7872  0.8303
 8403TIP3    H146624   5.204   5.947  13.263 -0.0047 -0.2158  1.3330
 8403TIP3    H246625   5.289   6.034  13.172 -0.5645  2.0264  2.8857
 8404TIP3   OH246626   1.951   4.505   5.948  0.3829  0.0886 -0.1193
 8404TIP3    H146627   2.027   4.461   5.985  0.3370 -0.6914 -0.9169
 8404TIP3    H246628   1.971   4.598   5.956  1.2859 -0.1025 -0.0514
 8405TIP3   OH246629   3.812   3.980   0.715  0.2170 -0.1091  0.3107
 8405TIP3    H146630   3.858   3.986   0.631 -0.0690  1.1771  0.2236
 8405TIP3    H246631   3.836   4.061   0.760 -1.3869  0.2522  0.5551
 8406TIP3   OH246632   5.420   4.788   5.389  0.1142 -0.0299  0.4275
 8406TIP3    H146633   5.331   4.811   5.415 -0.9196  0.1032 -2.8120
 8406TIP3    H246634   5.469   4.869   5.397 -0.9259  0.7711 -0.8840
 8407TIP3   OH246635   1.462   4.007  13.658  0.8394 -0.6409  0.0223
 8407TIP3    H146636   1.428   4.033  13.573 -1.2629 -0.2990  0.9125
 8407TIP3    H246637   1.389   3.963  13.701  1.5458 -0.0323  1.9665
 8408TIP3   OH246638   2.514   3.874   5.782 -0.0678 -0.2624  0.8957
 8408TIP3    H146639   2.520   3.923   5.700 -0.5601 -1.8703 -0.1259
 8408TIP3    H246640   2.485   3.940   5.846 -0.3160  0.8710 -0.3330
 8409TIP3   OH246641   2.161   4.946   6.709  0.8246 -0.2547  0.2845
 8409TIP3    H146642   2.113   4.942   6.792 -0.9746 -2.2544 -0.7414
 8409TIP3    H246643   2.211   4.864   6.707  1.4734  0.1442 -0.2898
 8410TIP3   OH246644   1.446   3.273   2.166  0.4743  0.2383  0.5605
 8410TIP3    H146645   1.386   3.346   2.151 -1.1881 -0.7060  2.1661
 8410TIP3    H246646   1.506   3.275   2.091 -1.3155  1.4804 -0.9274
 8411TIP3   OH246647   2.881   3.956   1.169 -0.5098  1.0383  0.4596
 8411TIP3    H146648   2.786   3.958   1.180 -0.5727  1.4365 -0.1053
 8411TIP3    H246649   2.915   4.015   1.237 -0.5987  0.1565  1.2771
 8412TIP3   OH246650   4.915   0.510  11.840  0.4416  0.0294 -0.6739
 8412TIP3    H146651   4.978   0.572  11.805 -0.9012  2.2704  0.6865
 8412TIP3    H246652   4.963   0.461  11.907  0.7078  1.9541  0.6019
 8413TIP3   OH246653   6.340   4.976  16.095 -0.4035 -0.3699  0.4457
 8413TIP3    H146654   6.265   5.034  16.088 -1.1687 -1.3452  0.4064
 8413TIP3    H246655   6.404   5.012  16.033 -1.0524  0.1434  0.0645
 8414TIP3   OH246656   0.582   2.533   3.531 -0.1218  0.6752  1.0922
 8414TIP3    H146657   0.656   2.482   3.497  0.7744  1.6310  1.5606
 8414TIP3    H246658   0.508   2.506   3.476  0.9733  1.1025 -0.6997
 8415TIP3   OH246659   3.125   2.109  14.749 -0.2432  0.0821  0.0300
 8415TIP3    H146660   3.143   2.042  14.815  0.5220  1.3095  1.1264
 8415TIP3    H246661   3.204   2.111  14.695 -1.1088 -1.3500 -1.3678
 8416TIP3   OH246662   6.127   0.870   4.197 -0.4818  0.2591 -0.2002
 8416TIP3    H146663   6.038   0.836   4.192  0.0768 -1.2355 -0.5294
 8416TIP3    H246664   6.165   0.825   4.273  0.4068 -0.1987 -0.8964
 8417TIP3   OH246665   1.814   3.306   4.987 -0.5031  0.7222 -0.2901
 8417TIP3    H146666   1.832   3.364   4.913 -0.3223 -0.8141 -1.5097
 8417TIP3    H246667   1.732   3.262   4.963 -0.0553 -0.3388  0.0346
 8418TIP3   OH246668   4.529   2.151   1.197  0.4958  0.3302 -0.4951
 8418TIP3    H146669   4.588   2.088   1.155 -1.1447 -1.2760 -0.5453
 8418TIP3    H246670   4.463   2.096   1.240  0.0690  2.0115  1.1135
 8419TIP3   OH246671   4.019   1.891   3.051  0.3518  0.1072 -0.1639
 8419TIP3    H146672   4.058   1.978   3.046 -0.0744  0.2496 -1.6672
 8419TIP3    H246673   3.963   1.893   3.128 -0.0087  1.3202 -0.4417
 8420TIP3   OH246674   4.479   2.528  13.061 -0.4755 -0.1586 -0.4836
 8420TIP3    H146675   4.403   2.487  13.101  1.2096 -0.3196  2.8778
 8420TIP3    H246676   4.459   2.621  13.062 -0.2331 -0.0870  1.4960
 8421TIP3   OH246677   0.450   6.424   2.240  0.0093 -0.0456 -0.2134
 8421TIP3    H146678   0.504   6.472   2.302 -0.4788  0.2865 -0.0392
 8421TIP3    H246679   0.385   6.380   2.294 -1.8253  2.0116 -0.5791
 8422TIP3   OH246680   5.846   0.407   2.398  0.4060 -0.0047 -0.2951
 8422TIP3    H146681   5.769   0.420   2.453  1.2165  1.8156  0.5053
 8422TIP3    H246682   5.835   0.320   2.361 -1.6498 -0.0926  0.3950
 8423TIP3   OH246683   2.832   4.625  15.230  0.1127 -0.3424 -0.1631
 8423TIP3    H146684   2.767   4.594  15.167 -2.6422 -0.2289  2.4020
 8423TIP3    H246685   2.863   4.707  15.193 -0.0479 -1.1392 -2.1985
 8424TIP3   OH246686   3.637   0.088  17.038  0.0329  0.1012 -0.4615
 8424TIP3    H146687   3.575   0.030  17.082 -1.4443  3.3527  2.1721
 8424TIP3    H246688   3.597   0.104  16.952 -0.4015 -1.3446 -0.5590
 8425TIP3   OH246689   2.831   2.955  12.473 -0.1668  0.3366  0.4351
 8425TIP3    H146690   2.741   2.925  12.488 -0.1933 -1.2337 -2.3312
 8425TIP3    H246691   2.886   2.893  12.520 -0.4502 -0.4069 -0.2058
 8426TIP3   OH246692   2.332   1.967  16.633  0.5590  0.0843  0.2227
 8426TIP3    H146693   2.345   1.880  16.597  1.9275  1.0310 -1.7218
 8426TIP3    H246694   2.402   1.977  16.698  0.1457 -0.4019  0.7475
 8427TIP3   OH246695   4.082   5.886  12.132  0.5832  0.0945  0.3627
 8427TIP3    H146696   4.140   5.950  12.174  1.0973  0.0760 -0.3132
 8427TIP3    H246697   4.123   5.801  12.150 -0.1177 -0.0668  1.2920
 8428TIP3   OH246698   6.405   4.580  11.550 -0.0288  0.5258  0.6613
 8428TIP3    H146699   6.432   4.554  11.462  0.1838 -0.9560  1.1375
 8428TIP3    H246700   6.487   4.605  11.593  0.1463 -0.6511  1.0360
 8429TIP3   OH246701   5.695   3.244   2.418  0.7235 -0.2190 -0.0103
 8429TIP3    H146702   5.731   3.212   2.335  0.9495 -2.7048  0.9502
 8429TIP3    H246703   5.659   3.330   2.397  4.3586  1.0767 -1.7546
 8430TIP3   OH246704   4.438   0.738   2.907  0.0300  1.0826  0.0969
 8430TIP3    H146705   4.371   0.783   2.855 -0.3638  0.0010 -0.3581
 8430TIP3    H246706   4.516   0.742   2.852 -0.1442  0.7535 -0.1793
 8431TIP3   OH246707   6.290   4.682   3.591 -0.2287  0.0021  0.0896
 8431TIP3    H146708   6.327   4.754   3.539  1.5755  0.6383  2.0667
 8431TIP3    H246709   6.279   4.610   3.529  3.1735  0.2404 -1.0345
 8432TIP3   OH246710   4.588   4.439  12.391 -0.3061 -0.0290  0.2357
 8432TIP3    H146711   4.563   4.349  12.372  0.4508 -0.2596  0.3145
 8432TIP3    H246712   4.552   4.457  12.477  0.8751 -0.7867  0.9057
 8433TIP3   OH246713   6.547   4.630   2.617  0.3689  0.2158  0.2689
 8433TIP3    H146714   6.548   4.540   2.649  0.5464 -0.5957 -1.8389
 8433TIP3    H246715   6.638   4.659   2.622  0.4447 -0.0122  0.1929
 8434TIP3   OH246716   3.499   6.341  15.626  0.4012  0.3175  0.4300
 8434TIP3    H146717   3.529   6.378  15.543 -1.0253  2.3166  0.7515
 8434TIP3    H246718   3.579   6.311  15.669  1.2635  0.0984 -1.2233
 8435TIP3   OH246719   3.601   6.510  11.918 -0.3798  0.2483  0.3048
 8435TIP3    H146720   3.694   6.490  11.930  0.4110  3.1609 -0.2103
 8435TIP3    H246721   3.582   6.487  11.828 -0.2420 -0.5944  0.4867
 8436TIP3   OH246722   4.498   5.596   3.113 -0.4153 -0.6675 -0.1731
 8436TIP3    H146723   4.413   5.552   3.107  0.0053 -1.7869  1.3634
 8436TIP3    H246724   4.509   5.614   3.206  1.3405 -1.2083 -0.2407
 8437TIP3   OH246725   0.277   4.407  11.747 -0.0480  0.1281 -0.0903
 8437TIP3    H146726   0.212   4.475  11.762  1.9411  1.7107  2.1610
 8437TIP3    H246727   0.246   4.332  11.799  0.4362  1.2830  1.9793
 8438TIP3   OH246728   2.090   0.437  17.054  0.5954 -0.0606 -0.1768
 8438TIP3    H146729   2.148   0.407  17.124  2.3711  1.9654 -0.6837
 8438TIP3    H246730   2.136   0.415  16.973  0.5083  1.2176 -0.5969
 8439TIP3   OH246731   5.707   5.037   6.557  0.0858  0.2187  0.6154
 8439TIP3    H146732   5.730   5.028   6.464  0.5412 -0.4795  0.7929
 8439TIP3    H246733   5.611   5.033   6.558  0.0965 -0.1869  0.2166
 8440TIP3   OH246734   2.739   2.138  15.114 -0.3709 -0.3982  0.0918
 8440TIP3    H146735   2.769   2.140  15.205 -1.1744 -1.7137  0.4116
 8440TIP3    H246736   2.764   2.223  15.079  1.8138 -0.6508  0.9241
 8441TIP3   OH246737   0.658   3.395  15.479  0.0467  0.1679  0.2312
 8441TIP3    H146738   0.675   3.489  15.479 -1.5431  0.4860 -0.5598
 8441TIP3    H246739   0.718   3.359  15.414  2.6918  0.1670  2.4821
 8442TIP3   OH246740   6.621   4.503   5.739 -0.1800  0.0599 -0.1056
 8442TIP3    H146741   6.698   4.484   5.793 -0.4418  0.8987  0.5837
 8442TIP3    H246742   6.613   4.427   5.682  0.8116 -0.3073  0.2185
 8443TIP3   OH246743   0.878   6.094   2.359 -0.0167 -0.1897 -0.1271
 8443TIP3    H146744   0.824   6.100   2.280  1.3321 -1.1596 -1.1818
 8443TIP3    H246745   0.829   6.140   2.426 -1.7995 -0.4209 -1.2207
 8444TIP3   OH246746   6.186   2.626  11.087 -0.1861 -0.2161 -0.7238
 8444TIP3    H146747   6.240   2.680  11.029 -2.6553  0.2187 -2.7553
 8444TIP3    H246748   6.140   2.689  11.142  1.1593 -0.5826  0.8955
 8445TIP3   OH246749   4.114   0.219  12.072  0.1324 -0.1325 -0.6940
 8445TIP3    H146750   4.039   0.231  12.014 -0.3963  0.0868  0.0209
 8445TIP3    H246751   4.190   0.228  12.015 -0.3533  0.9704 -1.2053
 8446TIP3   OH246752   5.455   4.598  17.372 -0.5906 -0.5538 -1.4202
 8446TIP3    H146753   5.374   4.576  17.326 -0.2090 -1.2039 -1.7866
 8446TIP3    H246754   5.455   4.694  17.375 -1.0906 -0.5330 -1.9196
 8447TIP3   OH246755   5.528   0.578  16.032 -0.0447  0.6037  0.0102
 8447TIP3    H146756   5.443   0.621  16.028 -0.4775 -0.0604  1.4720
 8447TIP3    H246757   5.524   0.511  15.964 -0.6463  0.6483 -0.0013
 8448TIP3   OH246758   5.077   4.592   5.744 -0.2418 -0.0614 -0.1167
 8448TIP3    H146759   5.150   4.650   5.723  0.0884 -0.5741 -0.4057
 8448TIP3    H246760   5.015   4.648   5.792  0.0165  0.5562 -0.4820
 8449TIP3   OH246761   2.906   1.535   5.538  0.3899  0.3492  0.4600
 8449TIP3    H146762   2.909   1.441   5.556 -1.4681  0.0948 -0.3365
 8449TIP3    H246763   2.903   1.541   5.443  0.2136  1.2026  0.5108
 8450TIP3   OH246764   2.136   3.277   1.907  0.1470  0.0370  0.7442
 8450TIP3    H146765   2.206   3.287   1.842 -1.4674  0.2597 -1.0769
 8450TIP3    H246766   2.109   3.186   1.898 -0.9257  0.3903  0.1259
 8451TIP3   OH246767   3.499   0.685  10.496 -0.0984 -0.7901 -0.3359
 8451TIP3    H146768   3.433   0.741  10.455 -0.5219 -1.5185 -0.6874
 8451TIP3    H246769   3.527   0.626  10.426  0.8920 -0.5275 -0.1692
 8452TIP3   OH246770   2.050   5.493   4.682  0.4911  0.2493 -0.5887
 8452TIP3    H146771   2.039   5.580   4.645  1.5907  0.4670 -0.4474
 8452TIP3    H246772   2.015   5.434   4.615  0.6235  0.7419 -1.1026
 8453TIP3   OH246773   5.387   4.490   0.850 -0.5116 -0.1671  0.3426
 8453TIP3    H146774   5.354   4.511   0.937 -1.5138  1.3850 -0.3603
 8453TIP3    H246775   5.482   4.504   0.856 -0.7443  1.3806  0.8215
 8454TIP3   OH246776   1.629   1.290  14.094  0.0781 -0.2691  0.0111
 8454TIP3    H146777   1.702   1.322  14.041 -0.6130  0.4361 -0.5552
 8454TIP3    H246778   1.557   1.278  14.030 -1.0177  1.3577  0.8722
 8455TIP3   OH246779   4.299   2.154   4.904 -0.3749 -0.4158  0.1993
 8455TIP3    H146780   4.297   2.059   4.914 -0.5074 -0.4674 -0.3013
 8455TIP3    H246781   4.389   2.178   4.926  0.6603 -1.0491 -2.8922
 8456TIP3   OH246782   4.753   1.400   3.744  0.7221  0.1678  0.0705
 8456TIP3    H146783   4.812   1.471   3.769  0.6472  0.6365 -1.0060
 8456TIP3    H246784   4.697   1.438   3.677 -0.9489 -0.2140  1.1868
 8457TIP3   OH246785   1.073   0.616   1.001 -0.1656 -0.0733 -0.8583
 8457TIP3    H146786   1.047   0.533   0.962 -2.0197  0.5044 -0.9521
 8457TIP3    H246787   1.002   0.677   0.979  0.3320  1.1170  0.6080
 8458TIP3   OH246788   0.964   4.860  12.113 -0.2656 -0.6157  0.1298
 8458TIP3    H146789   0.980   4.793  12.179 -0.0215 -0.7420 -0.0567
 8458TIP3    H246790   0.973   4.943  12.160 -1.7958 -0.7228  0.6441
 8459TIP3   OH246791   5.810   1.370   3.648 -0.1151  0.2703  0.3512
 8459TIP3    H146792   5.825   1.276   3.637 -1.8611  0.1666 -1.8199
 8459TIP3    H246793   5.874   1.411   3.590  0.7523  0.4646  1.4168
 8460TIP3   OH246794   0.749   2.821   5.351  0.0484  0.2738 -0.1595
 8460TIP3    H146795   0.746   2.798   5.258  0.7890  0.0268 -0.1291
 8460TIP3    H246796   0.841   2.842   5.368  0.2351 -1.1786  0.8711
 8461TIP3   OH246797   2.139   3.445   6.333 -0.2324 -0.3099  0.0828
 8461TIP3    H146798   2.165   3.496   6.410  0.0162 -1.0435  0.4925
 8461TIP3    H246799   2.128   3.356   6.366 -1.2492 -0.4120 -0.5047
 8462TIP3   OH246800   0.429   5.268   1.817  0.3111  0.0050  0.3690
 8462TIP3    H146801   0.412   5.343   1.874  0.6437  0.2243  0.1872
 8462TIP3    H246802   0.348   5.259   1.765 -0.1275 -0.4226  1.1154
 8463TIP3   OH246803   2.461   6.653  15.741  0.4264  0.1460 -0.3737
 8463TIP3    H146804   2.371   6.686  15.737  0.5589  0.4576 -0.8849
 8463TIP3    H246805   2.514   6.724  15.705  0.8215 -0.2432 -0.5699
 8464TIP3   OH246806   4.366   0.841  11.117  0.8850  0.3063 -0.4188
 8464TIP3    H146807   4.383   0.866  11.027 -0.6354  0.6718 -0.6193
 8464TIP3    H246808   4.380   0.746  11.118  0.5981  0.2525 -1.1035
 8465TIP3   OH246809   4.279   3.350  14.506  0.0956  0.5072  0.6003
 8465TIP3    H146810   4.256   3.258  14.518  1.8548 -0.2504 -1.2363
 8465TIP3    H246811   4.255   3.369  14.415  2.1827  1.0431  0.1175
 8466TIP3   OH246812   6.431   6.333  13.512 -0.1045 -0.4876 -0.1862
 8466TIP3    H146813   6.434   6.258  13.571 -0.0627 -1.1064 -0.9529
 8466TIP3    H246814   6.487   6.398  13.553  0.0898 -0.9840  0.3519
 8467TIP3   OH246815   6.753   6.130  14.879  0.2771  0.1389  0.1364
 8467TIP3    H146816   6.848   6.134  14.871  0.2207  2.5779  0.1430
 8467TIP3    H246817   6.728   6.215  14.915 -1.7000 -1.3588  2.6226
 8468TIP3   OH246818   4.212   3.022   4.362  0.3867  0.1295  0.1150
 8468TIP3    H146819   4.201   2.927   4.353  1.0037  0.0033  0.5908
 8468TIP3    H246820   4.266   3.032   4.441 -1.7375  0.9833  1.5490
 8469TIP3   OH246821   2.394   2.724   4.480 -0.2324  0.1117  0.1601
 8469TIP3    H146822   2.418   2.815   4.500  0.2672  0.0909 -0.3257
 8469TIP3    H246823   2.431   2.674   4.553 -0.4590  0.2873  0.3998
 8470TIP3   OH246824   1.837   6.100  15.822  0.2521 -0.4176 -0.9016
 8470TIP3    H146825   1.897   6.171  15.798 -0.0012 -0.1162 -0.6488
 8470TIP3    H246826   1.770   6.101  15.754  0.6075 -0.8475 -1.2621
 8471TIP3   OH246827   2.578   1.619   4.209 -0.4879 -0.6317  0.7258
 8471TIP3    H146828   2.672   1.636   4.214  0.1166 -3.1294 -0.7018
 8471TIP3    H246829   2.571   1.524   4.197 -3.2373 -0.6043  1.4484
 8472TIP3   OH246830   1.744   5.828  13.331 -0.1759  0.1726  0.0498
 8472TIP3    H146831   1.744   5.899  13.267  1.5203 -0.0522 -0.2467
 8472TIP3    H246832   1.809   5.854  13.396  0.3381 -1.0124  0.0309
 8473TIP3   OH246833   5.575   5.178   1.612  0.3403  0.5406 -0.4896
 8473TIP3    H146834   5.526   5.161   1.531  0.1259 -2.4683  0.1308
 8473TIP3    H246835   5.659   5.133   1.599 -0.0927 -0.9269  1.2583
 8474TIP3   OH246836   5.163   2.357  16.945  0.0905 -0.5960 -0.1661
 8474TIP3    H146837   5.192   2.308  17.022 -1.0656  0.5965  1.0985
 8474TIP3    H246838   5.243   2.378  16.897  1.0406 -0.0045  1.5788
 8475TIP3   OH246839   3.452   3.741  11.506 -0.3609 -0.4887  0.5857
 8475TIP3    H146840   3.391   3.715  11.437  1.6673  0.5597 -1.7602
 8475TIP3    H246841   3.500   3.660  11.526  0.2934 -0.4321 -0.6443
 8476TIP3   OH246842   6.325   3.737   3.748 -0.3912  0.4020 -0.1599
 8476TIP3    H146843   6.266   3.789   3.694 -1.0278 -0.1303  0.0116
 8476TIP3    H246844   6.300   3.756   3.838 -0.2601  0.2222 -0.0830
 8477TIP3   OH246845   6.445   6.235   5.097 -0.8665 -0.1799 -0.2333
 8477TIP3    H146846   6.473   6.144   5.102 -3.2149 -1.0033 -0.5715
 8477TIP3    H246847   6.490   6.278   5.169 -1.3733 -2.1238  1.3513
 8478TIP3   OH246848   3.403   3.845   3.334  0.2482  0.5583 -0.0312
 8478TIP3    H146849   3.401   3.811   3.424  0.7991  0.3990 -0.0758
 8478TIP3    H246850   3.382   3.769   3.280  2.6575 -0.0381 -0.2103
 8479TIP3   OH246851   1.280   3.774   3.936 -0.1411 -0.3170  0.3800
 8479TIP3    H146852   1.242   3.722   3.866  1.0446 -1.1322  0.3149
 8479TIP3    H246853   1.213   3.840   3.956 -0.6281 -0.2620 -1.2782
 8480TIP3   OH246854   6.245   2.700   2.736 -0.6910 -0.3082  0.5672
 8480TIP3    H146855   6.176   2.740   2.790 -1.3064  2.2178 -1.8780
 8480TIP3    H246856   6.197   2.650   2.670 -0.0009 -1.5077  0.9337
 8481TIP3   OH246857   3.452   3.429  11.825  0.1440  0.0507 -0.1813
 8481TIP3    H146858   3.454   3.360  11.891 -0.0317 -1.3659 -1.6123
 8481TIP3    H246859   3.362   3.462  11.827 -0.6011 -1.7461 -1.4175
 8482TIP3   OH246860   4.707   2.030  13.248 -0.2769 -0.5295 -0.5278
 8482TIP3    H146861   4.731   2.085  13.322 -1.3713 -1.0154  0.2194
 8482TIP3    H246862   4.760   2.063  13.175 -0.4432  1.0867  0.0401
 8483TIP3   OH246863   2.878   0.553  12.006 -0.8428 -0.1651  0.0531
 8483TIP3    H146864   2.844   0.465  12.021 -0.1971 -0.4543 -0.1231
 8483TIP3    H246865   2.857   0.572  11.914 -0.3935 -0.4160 -0.1086
 8484TIP3   OH246866   2.958   2.781   4.132 -0.2929  0.3497  0.0458
 8484TIP3    H146867   3.010   2.857   4.106  0.6385 -0.5023 -0.6721
 8484TIP3    H246868   2.877   2.788   4.081 -0.1107  0.7261 -0.1937
 8485TIP3   OH246869   2.842   4.347  12.725 -0.3097  0.2027  0.4245
 8485TIP3    H146870   2.850   4.259  12.686 -1.1283  0.4696 -0.3906
 8485TIP3    H246871   2.873   4.406  12.657  2.3911  0.4581  1.7719
 8486TIP3   OH246872   1.580   4.209   2.747  0.2475  0.0662 -0.8002
 8486TIP3    H146873   1.544   4.172   2.666  0.3230  1.7708 -1.6559
 8486TIP3    H246874   1.670   4.232   2.724  0.6990 -0.6649  0.1910
 8487TIP3   OH246875   1.797   6.227   2.708 -0.1280  0.1270 -0.1028
 8487TIP3    H146876   1.747   6.192   2.634 -0.7644  0.2386  0.2701
 8487TIP3    H246877   1.760   6.184   2.785 -0.4646  1.0977  0.2935
 8488TIP3   OH246878   2.542   1.937   0.538  0.5367 -0.4503 -0.4278
 8488TIP3    H146879   2.629   1.966   0.512  0.3514 -0.7298 -1.4116
 8488TIP3    H246880   2.492   1.934   0.456  0.2737 -2.5866 -0.2548
 8489TIP3   OH246881   1.298   1.803  17.211  0.0804  0.0948 -0.0622
 8489TIP3    H146882   1.233   1.740  17.181  0.4730 -0.9976  1.3058
 8489TIP3    H246883   1.302   1.868  17.140 -0.4565 -1.2955 -1.4365
 8490TIP3   OH246884   2.166   0.776   2.211  0.2793 -0.0051 -0.4025
 8490TIP3    H146885   2.224   0.851   2.227  0.1380  0.2807 -1.2022
 8490TIP3    H246886   2.101   0.781   2.281 -0.8664  1.7606 -1.5076
 8491TIP3   OH246887   0.985   2.492   1.376  0.0427  0.2032 -0.0245
 8491TIP3    H146888   0.917   2.499   1.443 -0.9002  1.0637 -1.0275
 8491TIP3    H246889   1.006   2.583   1.353  0.7540 -0.0717 -0.5022
 8492TIP3   OH246890   1.451   2.830  14.293 -0.1512 -0.7655 -0.2635
 8492TIP3    H146891   1.544   2.807  14.293  0.2070  0.6063 -0.8784
 8492TIP3    H246892   1.418   2.801  14.208 -0.2620 -1.0904 -0.1144
 8493TIP3   OH246893   6.438   1.668  12.821  0.1951  0.1806  0.5799
 8493TIP3    H146894   6.499   1.614  12.871 -0.4150 -1.2514 -0.1912
 8493TIP3    H246895   6.351   1.640  12.850 -0.1533 -0.1768 -0.7722
 8494TIP3   OH246896   0.126   1.830   1.005  0.0481  0.2657  0.2997
 8494TIP3    H146897   0.167   1.914   1.028 -0.1269 -0.0992  2.1356
 8494TIP3    H246898   0.186   1.791   0.942 -0.3546  2.1730 -1.3615
 8495TIP3   OH246899   0.808   1.425  11.011 -0.3903  0.0320 -0.3262
 8495TIP3    H146900   0.895   1.419  11.049  0.3149  2.7347 -1.2459
 8495TIP3    H246901   0.823   1.434  10.917 -1.3826  2.9541 -0.3197
 8496TIP3   OH246902   4.249   1.791   5.278 -0.2195 -0.1365  0.0745
 8496TIP3    H146903   4.299   1.815   5.356 -1.4171 -0.1882  0.8813
 8496TIP3    H246904   4.267   1.861   5.216  3.1585 -1.5587 -0.8023
 8497TIP3   OH246905   5.958   3.501   6.943 -0.1741  0.6409  0.0095
 8497TIP3    H146906   5.900   3.506   6.867 -1.4327 -1.0970  0.7685
 8497TIP3    H246907   6.024   3.567   6.927 -0.3205  0.2759 -2.6440
 8498TIP3   OH246908   2.192   3.846   5.734 -0.0215 -0.5702 -0.5489
 8498TIP3    H146909   2.142   3.927   5.740 -0.8121 -0.7580 -3.1937
 8498TIP3    H246910   2.126   3.777   5.729  0.6317 -1.3662  1.0718
 8499TIP3   OH246911   0.704   2.000   2.665 -0.5080 -0.4378  0.3515
 8499TIP3    H146912   0.684   2.003   2.758 -1.3426 -1.1383  0.2082
 8499TIP3    H246913   0.619   2.011   2.622 -0.3065 -1.3519 -0.3061
 8500TIP3   OH246914   2.063   4.829  15.913  0.4419 -0.2289  0.4137
 8500TIP3    H146915   2.157   4.848  15.917  0.8837 -2.0098 -0.4051
 8500TIP3    H246916   2.051   4.786  15.828 -1.6627  2.5681 -0.8704
 8501TIP3   OH246917   4.031   3.407  15.742  0.2001 -0.2567  0.6550
 8501TIP3    H146918   4.100   3.356  15.784  0.7184  0.9152  1.2797
 8501TIP3    H246919   3.950   3.378  15.784  0.4974 -0.4949  1.0630
 8502TIP3   OH246920   1.020   3.422   1.527  0.5130 -0.0926  0.0173
 8502TIP3    H146921   0.989   3.493   1.584  1.5160 -1.1915  2.0829
 8502TIP3    H246922   1.094   3.385   1.575  1.9985 -0.5405 -2.5059
 8503TIP3   OH246923   6.597   6.061  12.656 -0.0808  0.1113 -0.1235
 8503TIP3    H146924   6.686   6.097  12.657 -0.3958  0.9552 -1.3298
 8503TIP3    H246925   6.543   6.130  12.618 -1.3100 -0.3049  0.7868
 8504TIP3   OH246926   4.510   5.538   5.107  0.3327 -0.1018  0.2741
 8504TIP3    H146927   4.518   5.627   5.071 -1.6023 -0.0569 -0.1643
 8504TIP3    H246928   4.548   5.482   5.039 -1.0128  0.1909 -0.7605
 8505TIP3   OH246929   5.255   4.330  14.778 -0.1745  0.4867 -0.0194
 8505TIP3    H146930   5.330   4.387  14.798 -0.2158  0.5362 -0.0050
 8505TIP3    H246931   5.241   4.280  14.859  2.2221 -2.2601 -1.1412
 8506TIP3   OH246932   1.545   4.707   2.719  0.5193  0.3684 -0.3248
 8506TIP3    H146933   1.596   4.754   2.652 -0.1099 -0.3917 -1.3774
 8506TIP3    H246934   1.608   4.685   2.787  1.5186 -0.1758 -1.3928
 8507TIP3   OH246935   1.784   3.729   2.483 -0.1008  0.0916 -0.6512
 8507TIP3    H146936   1.819   3.765   2.402 -0.5296  0.4650 -0.6738
 8507TIP3    H246937   1.812   3.638   2.483  1.3728  0.5121 -0.3881
 8508TIP3   OH246938   1.695   4.912   6.142  0.7661  0.5242  0.2885
 8508TIP3    H146939   1.705   5.005   6.124 -1.1429  0.4269 -1.7203
 8508TIP3    H246940   1.626   4.908   6.208  1.9545  0.5564  1.5667
 8509TIP3   OH246941   4.977   2.134  14.139  0.3474  0.0110  0.8752
 8509TIP3    H146942   4.942   2.161  14.224  2.1843 -1.2839  2.1322
 8509TIP3    H246943   4.938   2.047  14.123  0.0759  0.2118  0.4277
 8510TIP3   OH246944   4.716   5.154  12.178 -0.1646 -0.1408  0.2898
 8510TIP3    H146945   4.803   5.131  12.144 -0.5763 -0.3323 -0.6602
 8510TIP3    H246946   4.666   5.179  12.101 -0.9644 -0.0445  0.8294
 8511TIP3   OH246947   0.804   4.489  12.449  0.1825  0.0333 -0.3626
 8511TIP3    H146948   0.766   4.401  12.447  1.3083 -0.4841  0.2193
 8511TIP3    H246949   0.758   4.536  12.379 -1.0355 -0.7517 -0.1191
 8512TIP3   OH246950   3.388   1.247  13.054  0.4558 -0.6971 -0.3376
 8512TIP3    H146951   3.340   1.259  12.972  1.3551 -1.2087 -0.9630
 8512TIP3    H246952   3.437   1.165  13.041  1.5427 -0.1619  0.2384
 8513TIP3   OH246953   5.000   1.669  15.190  0.4117 -0.1248  0.1212
 8513TIP3    H146954   5.026   1.733  15.124  0.7409  0.2342  0.6010
 8513TIP3    H246955   4.910   1.694  15.214  0.6713  0.3779  0.5741
 8514TIP3   OH246956   2.708   4.125   0.762  0.0340  0.0899 -0.1466
 8514TIP3    H146957   2.783   4.181   0.744  0.0208 -0.2256 -1.2205
 8514TIP3    H246958   2.671   4.160   0.844  2.0128 -0.4634  1.0456
 8515TIP3   OH246959   5.040   4.395   1.985  0.2900 -0.0705 -0.2447
 8515TIP3    H146960   5.043   4.444   1.903 -0.5489 -0.3367 -0.4429
 8515TIP3    H246961   4.997   4.454   2.046  1.5173  0.3877  0.1992
 8516TIP3   OH246962   1.014   0.187   4.807  0.4199 -0.0389 -0.0621
 8516TIP3    H146963   1.000   0.103   4.849  0.0665  0.2616  0.4327
 8516TIP3    H246964   1.076   0.232   4.864  2.5056 -0.8665 -1.5720
 8517TIP3   OH246965   3.712   4.351  12.263  0.4400 -0.1682  0.5401
 8517TIP3    H146966   3.658   4.273  12.275 -0.0121 -0.1116 -1.0088
 8517TIP3    H246967   3.650   4.423  12.263  0.4998 -0.0872 -1.0942
 8518TIP3   OH246968   3.444   4.833  15.297 -0.2027 -0.4702  0.4539
 8518TIP3    H146969   3.440   4.752  15.349  0.0335  0.5661  2.1560
 8518TIP3    H246970   3.353   4.864  15.296  0.0132  0.2288  1.4621
 8519TIP3   OH246971   6.229   6.491  13.840 -0.3155 -0.3063  0.4951
 8519TIP3    H146972   6.280   6.443  13.904  0.2175 -0.1681  0.1804
 8519TIP3    H246973   6.285   6.565  13.814  0.2227 -1.3110 -1.4091
 8520TIP3   OH246974   3.029   6.528   1.871 -0.4841  0.6674  0.1692
 8520TIP3    H146975   3.026   6.541   1.966  1.2842 -0.5494  0.4387
 8520TIP3    H246976   3.015   6.615   1.835 -0.0438  1.3580  1.5832
 8521TIP3   OH246977   0.662   5.489  11.218  0.3382  0.3014 -0.0628
 8521TIP3    H146978   0.750   5.510  11.186 -0.2853  2.1836 -0.6880
 8521TIP3    H246979   0.651   5.396  11.198  2.1661  0.0252  0.0195
 8522TIP3   OH246980   0.844   1.440   5.375  0.0670  0.3031  0.6198
 8522TIP3    H146981   0.893   1.458   5.294 -0.8314  0.5435  0.1186
 8522TIP3    H246982   0.781   1.511   5.381 -2.0232 -1.3600 -0.1831
 8523TIP3   OH246983   3.800   3.011  11.692  0.0368  0.1508  0.3390
 8523TIP3    H146984   3.724   2.957  11.711  0.7040 -1.2224 -0.6712
 8523TIP3    H246985   3.768   3.077  11.630 -0.2907 -0.6396 -0.3693
 8524TIP3   OH246986   1.668   3.254  15.136 -0.5803 -0.0310 -0.6370
 8524TIP3    H146987   1.638   3.177  15.086 -0.4127 -0.2106 -0.4654
 8524TIP3    H246988   1.628   3.243  15.222 -1.1080  0.4318 -0.8196
 8525TIP3   OH246989   1.052   1.671   2.377 -0.1457  0.2188 -0.0770
 8525TIP3    H146990   1.070   1.599   2.438  1.7616  0.8391  0.1563
 8525TIP3    H246991   1.138   1.697   2.344 -1.0752  0.2489 -2.6849
 8526TIP3   OH246992   4.626   3.696  16.378 -0.8163 -0.1360 -0.3981
 8526TIP3    H146993   4.578   3.733  16.452 -0.2360  0.2173 -0.1926
 8526TIP3    H246994   4.632   3.767  16.315  1.7590  0.7087  0.6817
 8527TIP3   OH246995   4.530   0.471  12.062 -0.3190  0.3040 -0.8587
 8527TIP3    H146996   4.494   0.434  11.982 -1.3526  1.0066 -0.7432
 8527TIP3    H246997   4.453   0.499  12.112  0.3047 -0.1133  0.3748
 8528TIP3   OH246998   4.309   2.935  15.808  0.4457 -0.6961 -1.1433
 8528TIP3    H146999   4.238   2.952  15.869 -1.2213 -2.1966 -2.5398
 8528TIP3    H247000   4.305   3.007  15.745  0.5295 -0.4860 -0.9083
 8529TIP3   OH247001   2.265   6.298  11.575 -0.1124  0.8747 -0.1649
 8529TIP3    H147002   2.201   6.312  11.504 -0.4105  0.5046  0.0270
 8529TIP3    H247003   2.330   6.239  11.538 -0.2854  0.6562 -0.1191
 8530TIP3   OH247004   4.867   1.396   3.060 -0.4373 -0.2999 -0.2249
 8530TIP3    H147005   4.806   1.405   3.133 -0.5372 -1.1250 -0.1922
 8530TIP3    H247006   4.837   1.459   2.995  1.3237  2.5342  1.5156
 8531TIP3   OH247007   4.009   3.295  11.585  0.3309 -0.1703 -0.2813
 8531TIP3    H147008   3.975   3.293  11.674  0.5360  2.0088 -0.0948
 8531TIP3    H247009   4.001   3.387  11.559  0.5139 -0.7107 -2.4193
 8532TIP3   OH247010   0.585   4.927   3.305  0.3122 -0.2541 -0.5218
 8532TIP3    H147011   0.564   4.842   3.344  1.3355  0.0955  0.8488
 8532TIP3    H247012   0.563   4.990   3.373  1.0042  0.4672 -0.9565
 8533TIP3   OH247013   0.968   4.417   5.251 -0.0966 -0.0728 -0.1382
 8533TIP3    H147014   0.927   4.503   5.257 -0.0586 -0.0850  0.3085
 8533TIP3    H247015   0.973   4.386   5.342  0.7249 -0.1475 -0.1940
 8534TIP3   OH247016   3.259   4.422   0.394 -0.2783  0.0858  0.7891
 8534TIP3    H147017   3.205   4.490   0.355  1.2381  0.9956  0.2053
 8534TIP3    H247018   3.196   4.355   0.422 -1.5635 -0.3498 -2.6114
 8535TIP3   OH247019   6.389   1.461   3.234 -0.3794  0.3195  0.3114
 8535TIP3    H147020   6.390   1.530   3.300  0.1275  0.9932 -0.3800
 8535TIP3    H247021   6.401   1.508   3.151  0.2548 -0.6293 -0.1426
 8536TIP3   OH247022   1.165   6.128   2.332  0.8484  0.4891  0.1620
 8536TIP3    H147023   1.075   6.128   2.300  0.1756 -0.4604  1.9187
 8536TIP3    H247024   1.164   6.069   2.407  3.1630 -0.2927 -0.3423
 8537TIP3   OH247025   5.647   3.652  13.902  0.1092 -0.0067 -0.2626
 8537TIP3    H147026   5.660   3.564  13.935  1.1538  0.0302 -0.5337
 8537TIP3    H247027   5.733   3.678  13.867 -0.2661  0.9784 -0.5025
 8538TIP3   OH247028   4.579   6.291   2.696  0.2477  0.4766  0.1066
 8538TIP3    H147029   4.577   6.382   2.665 -2.8011  0.2227 -0.7133
 8538TIP3    H247030   4.529   6.293   2.777 -0.7928 -0.6334 -0.4905
 8539TIP3   OH247031   3.113   2.979  12.977  0.3612  0.1323  0.0368
 8539TIP3    H147032   3.029   2.946  13.008  0.5113  0.8858  1.3315
 8539TIP3    H247033   3.153   2.906  12.929 -0.1974 -0.8532  1.0518
 8540TIP3   OH247034   6.218   0.072   3.403  0.0295 -0.4575 -0.2463
 8540TIP3    H147035   6.242  -0.020   3.411  1.2428 -0.0414  1.6207
 8540TIP3    H247036   6.301   0.117   3.385 -0.3194  0.3897  0.1939
 8541TIP3   OH247037   5.938   2.879  15.399 -0.2796 -0.3149 -0.0503
 8541TIP3    H147038   5.922   2.951  15.460 -0.1496  1.1284 -1.6365
 8541TIP3    H247039   6.020   2.903  15.355 -1.4608 -0.1634 -2.3046
 8542TIP3   OH247040   3.814   2.014  16.318 -0.5314  0.3506 -0.1839
 8542TIP3    H147041   3.897   2.025  16.271 -0.7790  1.1658 -0.4506
 8542TIP3    H247042   3.820   1.926  16.356  0.7002  0.6190  0.2922
 8543TIP3   OH247043   0.150   0.023   0.912  0.1506 -0.3862 -0.5310
 8543TIP3    H147044   0.065   0.065   0.927  1.1825  2.4980 -1.9749
 8543TIP3    H247045   0.181   0.060   0.829  3.3753 -0.2929  0.5776
 8544TIP3   OH247046   1.636   5.761  14.538 -0.0056  0.3984 -0.1727
 8544TIP3    H147047   1.568   5.694  14.529  0.1659 -0.1827  2.1668
 8544TIP3    H247048   1.637   5.806  14.453 -1.2656 -1.4697 -1.2529
 8545TIP3   OH247049   6.598   6.628   1.721 -0.5985 -0.1680 -0.0054
 8545TIP3    H147050   6.607   6.593   1.632 -1.7119  0.9577 -0.5984
 8545TIP3    H247051   6.593   6.551   1.777 -1.8181 -0.9469 -1.1326
 8546TIP3   OH247052   2.231   1.312  12.261  0.2038  0.5636  0.0311
 8546TIP3    H147053   2.150   1.322  12.210  0.5147 -0.8916 -0.8070
 8546TIP3    H247054   2.238   1.393  12.310 -0.5700  1.6860 -1.6166
 8547TIP3   OH247055   3.505   3.527   3.820 -0.2043 -0.0905  0.4968
 8547TIP3    H147056   3.449   3.499   3.892  0.2305  1.1781  1.3887
 8547TIP3    H247057   3.484   3.620   3.808  0.4362 -0.0401 -0.3538
 8548TIP3   OH247058   3.840   0.154  14.820 -0.0710 -0.3937 -0.8160
 8548TIP3    H147059   3.776   0.085  14.837 -0.1048 -0.3343 -0.7039
 8548TIP3    H247060   3.867   0.140  14.729 -0.0420 -0.5843 -0.7780
 8549TIP3   OH247061   1.846   3.467   0.340  0.1830  0.0132 -0.0496
 8549TIP3    H147062   1.904   3.452   0.415  0.5075  0.1033 -0.2832
 8549TIP3    H247063   1.843   3.562   0.331 -1.8874  0.1520  1.4422
 8550TIP3   OH247064   2.921   3.282  15.237 -0.2331  0.3343 -1.0499
 8550TIP3    H147065   2.830   3.281  15.206 -0.7378  1.2835  0.3492
 8550TIP3    H247066   2.952   3.193  15.220 -1.8980 -0.4549 -0.1756
 8551TIP3   OH247067   1.718   5.524  14.431 -0.3012 -0.3632 -0.6767
 8551TIP3    H147068   1.735   5.431  14.445 -1.1210 -0.3048  0.8937
 8551TIP3    H247069   1.627   5.536  14.458 -0.0037  1.0202 -0.2418
 8552TIP3   OH247070   0.469   5.382  12.808 -0.3181  0.4042 -0.0297
 8552TIP3    H147071   0.489   5.390  12.901  0.3464  0.3137 -0.1608
 8552TIP3    H247072   0.405   5.311  12.803  1.2720 -1.0890  0.1591
 8553TIP3   OH247073   4.628   4.261   3.946  0.1352 -0.4202  0.1250
 8553TIP3    H147074   4.571   4.198   3.990 -1.0856  1.5034  1.4935
 8553TIP3    H247075   4.581   4.282   3.864 -1.9986  2.1137  1.8192
 8554TIP3   OH247076   3.486   6.050   5.007 -0.7228  0.2967 -0.0294
 8554TIP3    H147077   3.438   5.991   5.065 -1.4209 -0.2171 -1.0960
 8554TIP3    H247078   3.578   6.031   5.024 -0.8593 -3.1039 -2.2070
 8555TIP3   OH247079   1.531   0.681  13.186  0.1568 -0.0924 -0.2007
 8555TIP3    H147080   1.460   0.738  13.155 -0.1698 -1.1444 -1.4877
 8555TIP3    H247081   1.492   0.593  13.187  1.3119 -0.6203 -0.4851
 8556TIP3   OH247082   1.401   3.234  12.841 -0.3445  0.5832  0.3888
 8556TIP3    H147083   1.387   3.278  12.925  0.3514  2.0150 -0.2054
 8556TIP3    H247084   1.487   3.193  12.849 -0.0052  1.2373  0.1839
 8557TIP3   OH247085   5.030   3.219   6.210 -0.4786 -0.4067 -0.3960
 8557TIP3    H147086   4.978   3.276   6.267 -0.7876 -1.4438  0.3932
 8557TIP3    H247087   5.087   3.172   6.270  0.9685  0.2585 -1.1947
 8558TIP3   OH247088   2.443   2.361  13.405  0.7136 -0.5389  0.1671
 8558TIP3    H147089   2.419   2.450  13.431 -0.3874 -0.0785 -2.1746
 8558TIP3    H247090   2.406   2.305  13.473 -1.5826  0.6063 -0.0311
 8559TIP3   OH247091   0.715   5.411   6.126 -0.7000 -0.3137 -0.1277
 8559TIP3    H147092   0.653   5.368   6.185  0.7260 -0.6844  1.2003
 8559TIP3    H247093   0.795   5.359   6.135  0.4628  1.4049 -0.0671
 8560TIP3   OH247094   1.216   0.899  13.700  0.3646  0.2561 -0.6612
 8560TIP3    H147095   1.227   0.974  13.759  0.4943  0.0367 -0.4025
 8560TIP3    H247096   1.122   0.880  13.702  0.5236 -0.5304  0.4602
 8561TIP3   OH247097   5.347   4.296   4.782 -0.2830 -0.1365  0.1599
 8561TIP3    H147098   5.433   4.256   4.770 -0.3750 -0.2582 -0.1083
 8561TIP3    H247099   5.363   4.371   4.840  0.1590  0.3738 -0.5941
 8562TIP3   OH247100   4.533   3.529   5.373 -0.2320 -0.6739  0.1819
 8562TIP3    H147101   4.538   3.472   5.450 -0.3540 -2.3523 -0.9847
 8562TIP3    H247102   4.554   3.471   5.299 -1.1958  0.6089 -1.1624
 8563TIP3   OH247103   4.527   6.135   0.473  0.0348  0.0086  0.4053
 8563TIP3    H147104   4.578   6.096   0.402  0.6146  2.4508 -0.6189
 8563TIP3    H247105   4.519   6.065   0.538  1.4862 -1.5944 -1.0446
 8564TIP3   OH247106   0.522   0.733  12.362 -0.1911 -0.0600 -0.0845
 8564TIP3    H147107   0.456   0.749  12.295  0.6746  0.0974 -0.9076
 8564TIP3    H247108   0.604   0.726  12.315  0.2611 -1.2817  0.8261
 8565TIP3   OH247109   6.731   5.947  16.673  0.4613 -0.8997 -0.3772
 8565TIP3    H147110   6.666   5.938  16.604  0.3679 -1.9785 -0.1647
 8565TIP3    H247111   6.733   5.862  16.716 -0.1259 -0.0061  1.5425
 8566TIP3   OH247112   4.524   3.902   4.934  0.2126  0.1224 -0.6793
 8566TIP3    H147113   4.521   3.821   4.884  0.4174 -0.4510  0.2202
 8566TIP3    H247114   4.610   3.939   4.914  0.6233 -0.5169 -0.1283
 8567TIP3   OH247115   6.487   3.680  12.271  0.6409  0.0655 -0.9393
 8567TIP3    H147116   6.398   3.688  12.304 -0.0753 -2.0856 -2.1831
 8567TIP3    H247117   6.540   3.668  12.350 -0.2965  0.3826 -0.2455
 8568TIP3   OH247118   1.532   1.224   5.828 -0.1545 -0.1406 -0.0952
 8568TIP3    H147119   1.590   1.162   5.873  0.4653  0.8071  0.4472
 8568TIP3    H247120   1.492   1.275   5.899 -1.3395 -0.4926 -0.4825
 8569TIP3   OH247121   6.157   4.946  12.182  0.6456 -0.5761 -0.0309
 8569TIP3    H147122   6.215   4.899  12.122  0.1862  0.5824 -1.4377
 8569TIP3    H247123   6.076   4.893  12.182  0.4994 -0.3674 -0.7818
 8570TIP3   OH247124   3.316   6.716  14.796  0.3244 -0.1601 -0.4109
 8570TIP3    H147125   3.366   6.788  14.758 -0.4365  1.0162  0.7382
 8570TIP3    H247126   3.376   6.676  14.859 -0.1971  1.3791  1.1182
 8571TIP3   OH247127   5.169   1.448   6.800  0.2951 -0.1815 -0.3385
 8571TIP3    H147128   5.186   1.358   6.827  0.9244  0.3062  0.9692
 8571TIP3    H247129   5.122   1.487   6.873 -0.7497  0.3343 -1.2479
 8572TIP3   OH247130   2.459   0.875  14.639 -0.3310  0.0809  0.8321
 8572TIP3    H147131   2.456   0.836  14.552 -1.4663  0.0335  0.8878
 8572TIP3    H247132   2.517   0.817  14.689 -0.1194 -0.1995  0.2696
 8573TIP3   OH247133   4.791   4.875  16.166  0.2642  0.0392  0.0538
 8573TIP3    H147134   4.721   4.940  16.168 -0.9362 -1.1166  3.2912
 8573TIP3    H247135   4.746   4.792  16.185  2.1184 -1.2691 -1.0275
 8574TIP3   OH247136   0.954   2.089  16.104 -0.1125  0.8058  0.5693
 8574TIP3    H147137   0.933   2.006  16.060 -0.6883  1.5177 -0.5641
 8574TIP3    H247138   0.874   2.112  16.150 -0.5528  1.5596 -0.5235
 8575TIP3   OH247139   4.194   4.814  11.591 -0.7988 -0.1932 -0.4125
 8575TIP3    H147140   4.262   4.779  11.533 -0.5007 -0.7908  0.2748
 8575TIP3    H247141   4.170   4.739  11.645 -1.8604  0.0730 -0.5080
 8576TIP3   OH247142   3.424   4.437  14.373  0.4377 -0.2842  0.2403
 8576TIP3    H147143   3.424   4.417  14.279  1.0600 -0.2306  0.2246
 8576TIP3    H247144   3.427   4.351  14.416 -2.0671 -0.4236  0.2674
 8577TIP3   OH247145   2.784   1.925  13.723  0.2007  0.0899 -0.3751
 8577TIP3    H147146   2.738   1.843  13.707 -1.6317  1.2085 -1.2116
 8577TIP3    H247147   2.811   1.921  13.815 -0.9807 -0.9240 -0.0520
 8578TIP3   OH247148   6.245   5.901  17.306 -0.0589 -0.5093 -0.4183
 8578TIP3    H147149   6.276   5.874  17.392 -0.7897  1.0817  0.3993
 8578TIP3    H247150   6.250   5.822  17.252 -1.3656 -2.0449  1.5628
 8579TIP3   OH247151   4.149   4.102  13.151  0.3383 -0.1220 -0.6238
 8579TIP3    H147152   4.134   4.194  13.171 -0.1080 -0.2529 -0.3346
 8579TIP3    H247153   4.237   4.099  13.114  0.9786  0.2027  0.8101
 8580TIP3   OH247154   0.269   1.874   5.857 -0.2209  0.1262  0.5240
 8580TIP3    H147155   0.241   1.954   5.813  0.0832 -0.1093 -0.1158
 8580TIP3    H247156   0.342   1.902   5.913 -1.3221  0.6287  1.7416
 8581TIP3   OH247157   2.336   1.373   0.498 -0.0843  0.1555 -0.5223
 8581TIP3    H147158   2.320   1.413   0.412  0.6997 -0.2528 -0.8766
 8581TIP3    H247159   2.357   1.282   0.477  1.9227  0.4655 -0.0797
 8582TIP3   OH247160   2.458   6.467   3.419 -0.2720  0.4671  0.2254
 8582TIP3    H147161   2.546   6.438   3.396 -0.8629 -1.0006 -0.2998
 8582TIP3    H247162   2.472   6.546   3.471  1.5168 -1.2623  2.6383
 8583TIP3   OH247163   5.799   3.555  12.409 -0.2680  0.0518 -0.0838
 8583TIP3    H147164   5.891   3.528  12.405 -0.5833 -1.0412 -0.4218
 8583TIP3    H247165   5.776   3.572  12.317 -0.7684 -1.0120 -0.1653
 8584TIP3   OH247166   0.095   4.185  17.117 -0.0180  0.9882  0.2900
 8584TIP3    H147167   0.138   4.266  17.090 -0.4401  0.5631 -1.8192
 8584TIP3    H247168   0.077   4.139  17.035 -0.8134 -0.7209  1.3747
 8585TIP3   OH247169   0.098   6.060   3.397 -0.4278 -0.0340 -0.5363
 8585TIP3    H147170   0.021   6.103   3.433 -0.3376  0.4399 -0.9077
 8585TIP3    H247171   0.070   5.969   3.383 -0.1026 -0.5903  1.8937
 8586TIP3   OH247172   3.064   0.012  11.759 -0.0383 -0.0550  0.4026
 8586TIP3    H147173   3.103   0.078  11.816  1.9760  0.7922 -1.7611
 8586TIP3    H247174   3.133  -0.009  11.696 -2.8785  1.3348 -3.5959
 8587TIP3   OH247175   6.186   3.922  16.453 -0.2351  0.2410 -0.9552
 8587TIP3    H147176   6.242   3.966  16.516  1.9946  0.1881 -2.7536
 8587TIP3    H247177   6.152   3.992  16.397 -0.7502  0.1277 -0.7902
 8588TIP3   OH247178   5.792   3.032   5.138  0.4538 -0.1033 -0.3043
 8588TIP3    H147179   5.853   3.046   5.065  0.4460 -1.2016 -0.5350
 8588TIP3    H247180   5.800   2.939   5.158 -1.6734 -0.4439 -0.8307
 8589TIP3   OH247181   3.837   0.939  10.628 -0.0122 -0.1972  0.8752
 8589TIP3    H147182   3.784   1.017  10.643  1.0519  1.1380 -1.5790
 8589TIP3    H247183   3.927   0.972  10.624  0.4388 -1.4716 -0.5097
 8590TIP3   OH247184   3.976   1.219  12.567 -0.2912 -0.2172  0.0356
 8590TIP3    H147185   3.966   1.301  12.519  0.8684 -0.3638 -0.4721
 8590TIP3    H247186   3.911   1.225  12.638  1.8111  2.5220  1.9420
 8591TIP3   OH247187   5.569   2.989   6.539 -0.0356  0.5163 -0.0905
 8591TIP3    H147188   5.520   2.908   6.555  1.1899 -0.2070  0.1212
 8591TIP3    H247189   5.572   2.996   6.444  0.1622  0.1098 -0.1178
 8592TIP3   OH247190   3.796   3.240   6.121  0.7600  0.4374 -0.4003
 8592TIP3    H147191   3.768   3.187   6.046 -1.7963  1.2491 -0.1221
 8592TIP3    H247192   3.890   3.250   6.109  0.8908 -1.8211 -1.9378
 8593TIP3   OH247193   1.405   0.322   0.892 -0.0933  0.0706  0.1672
 8593TIP3    H147194   1.441   0.400   0.850 -1.2205 -0.1502 -1.2871
 8593TIP3    H247195   1.314   0.319   0.863 -1.2339  0.3494  3.3454
 8594TIP3   OH247196   3.355   4.620   1.827 -0.3199  0.1618 -1.0161
 8594TIP3    H147197   3.302   4.601   1.904 -1.1607  0.1522 -1.5828
 8594TIP3    H247198   3.431   4.666   1.861  0.3867 -1.7014  0.0725
 8595TIP3   OH247199   0.708   6.731  10.933 -0.3681  0.1810 -0.1769
 8595TIP3    H147200   0.680   6.688  11.015 -0.5491 -0.2123 -0.4398
 8595TIP3    H247201   0.785   6.782  10.957 -0.1181 -0.3344  0.1370
 8596TIP3   OH247202   3.867   4.696   0.649  0.0391 -0.0805  0.3638
 8596TIP3    H147203   3.776   4.667   0.646  0.5190 -1.7256  0.8678
 8596TIP3    H247204   3.878   4.744   0.567 -1.2481  0.0666  0.2471
 8597TIP3   OH247205   1.048   3.383  11.052  0.0344  0.0215  0.1245
 8597TIP3    H147206   0.959   3.397  11.019  0.0486  3.2625  1.1578
 8597TIP3    H247207   1.099   3.362  10.973 -1.3534 -0.4919 -0.6835
 8598TIP3   OH247208   2.847   4.107   1.789  0.3068  0.4231 -0.3394
 8598TIP3    H147209   2.848   4.027   1.841 -0.5124 -0.9896 -2.3381
 8598TIP3    H247210   2.798   4.169   1.842  2.6871  0.3589  2.1718
 8599TIP3   OH247211   3.056   1.394  16.105  0.1429  0.1633 -0.1888
 8599TIP3    H147212   2.997   1.466  16.127  1.5127  0.7591  1.7559
 8599TIP3    H247213   2.998   1.323  16.078 -1.3870  1.1227  0.4706
 8600TIP3   OH247214   4.106   5.148   0.540  0.1542 -0.1575 -0.1227
 8600TIP3    H147215   4.199   5.128   0.553 -0.3574 -1.0882  2.7327
 8600TIP3    H247216   4.063   5.063   0.543 -1.0546  0.4635  1.7931
 8601TIP3   OH247217   2.973   4.549   4.881  0.3610 -0.3156  0.4750
 8601TIP3    H147218   2.977   4.633   4.836  1.0893 -0.9203 -0.6324
 8601TIP3    H247219   3.023   4.563   4.962  1.0443  0.1307 -0.0174
 8602TIP3   OH247220   6.434   2.902  14.324  0.5857 -0.1706  0.1251
 8602TIP3    H147221   6.524   2.890  14.354  0.5740 -0.5402  0.0162
 8602TIP3    H247222   6.412   2.819  14.282 -0.0450 -0.3336  0.7665
 8603TIP3   OH247223   2.692   5.842  14.257  0.5803 -0.9240  0.2511
 8603TIP3    H147224   2.599   5.846  14.233  0.7412  1.8604 -0.2618
 8603TIP3    H247225   2.693   5.859  14.351  0.5635 -0.6318  0.2010
 8604TIP3   OH247226   4.077   5.001  16.077 -0.5459 -0.4385 -0.7268
 8604TIP3    H147227   4.113   5.061  16.011  1.0220 -0.6390 -0.0965
 8604TIP3    H247228   4.133   5.014  16.153 -0.5069 -2.3356 -0.4018
 8605TIP3   OH247229   3.348   4.894   5.546 -0.1530  0.3285  0.7419
 8605TIP3    H147230   3.384   4.983   5.554  1.2054 -0.0030 -1.0459
 8605TIP3    H247231   3.424   4.839   5.530 -1.0596 -1.0656  1.0747
 8606TIP3   OH247232   0.929   4.965  13.253  0.2004 -0.1456  0.3158
 8606TIP3    H147233   1.014   4.974  13.210 -0.5524  0.2968 -1.1267
 8606TIP3    H247234   0.933   5.026  13.327  0.9723  0.2167 -0.0159
 8607TIP3   OH247235   4.806   5.779  11.254  0.0195 -0.2935  0.5720
 8607TIP3    H147236   4.871   5.748  11.317  0.1635 -1.1791 -0.0022
 8607TIP3    H247237   4.767   5.700  11.218  0.0429  0.2000 -0.5747
 8608TIP3   OH247238   1.735   5.686   3.774  0.0357  0.5253 -0.1315
 8608TIP3    H147239   1.676   5.748   3.818  2.1746  2.5209  0.1181
 8608TIP3    H247240   1.821   5.702   3.814  0.8665 -2.0500 -0.6780
 8609TIP3   OH247241   4.848   1.160  16.258 -0.1524 -0.0303  0.4973
 8609TIP3    H147242   4.849   1.079  16.310  2.4953 -0.9095 -0.7237
 8609TIP3    H247243   4.928   1.207  16.285 -1.0023  1.5987  0.2966
 8610TIP3   OH247244   6.718   3.108  15.584 -0.5366 -0.0848  0.3191
 8610TIP3    H147245   6.750   3.151  15.505 -1.7595 -1.3310 -0.9128
 8610TIP3    H247246   6.691   3.180  15.641  0.9222  0.8611 -0.1089
 8611TIP3   OH247247   2.188   2.661   4.980  0.2592 -0.2933  0.0232
 8611TIP3    H147248   2.256   2.597   4.959  0.3973 -1.1327  2.6994
 8611TIP3    H247249   2.114   2.608   5.010 -1.1019  0.6775 -1.4487
 8612TIP3   OH247250   0.322   0.027   3.324  0.4644 -0.3176  0.0776
 8612TIP3    H147251   0.289   0.082   3.395  0.6348  0.1149 -0.1711
 8612TIP3    H247252   0.245   0.006   3.272  0.4960  0.2926 -0.2323
 8613TIP3   OH247253   5.168   1.414   0.170  0.4748  0.1739 -0.0073
 8613TIP3    H147254   5.095   1.395   0.228 -0.8574  0.6117 -1.4881
 8613TIP3    H247255   5.215   1.331   0.163 -0.4185 -0.3670  0.2219
 8614TIP3   OH247256   5.081   6.615  11.350 -0.0600 -0.1216 -0.0447
 8614TIP3    H147257   5.109   6.617  11.258 -2.5418 -0.8608 -0.9017
 8614TIP3    H247258   5.051   6.526  11.364  0.0823  0.0373  1.4608
 8615TIP3   OH247259   4.202   6.087  14.066  0.3398 -0.2316  0.5718
 8615TIP3    H147260   4.155   6.044  14.138 -0.9934  0.2919  0.0244
 8615TIP3    H247261   4.143   6.155  14.035  0.8683 -0.4663 -1.0593
 8616TIP3   OH247262   4.474   4.437  11.090 -0.2828  0.2715 -0.0580
 8616TIP3    H147263   4.395   4.490  11.088 -2.4633 -2.7169 -1.9570
 8616TIP3    H247264   4.444   4.350  11.116  2.3846 -0.9791 -0.7823
 8617TIP3   OH247265   6.336   4.148  13.383 -0.0001  0.2951 -0.4780
 8617TIP3    H147266   6.407   4.210  13.365 -0.7207  0.6965 -2.1549
 8617TIP3    H247267   6.282   4.191  13.448  1.7788 -0.4452  1.6243
 8618TIP3   OH247268   5.086   5.957  12.954 -0.7302 -0.0627 -0.4133
 8618TIP3    H147269   5.126   5.881  12.912  2.5962  1.5656 -0.4413
 8618TIP3    H247270   5.137   5.971  13.034 -2.4275  1.1274  0.5452
 8619TIP3   OH247271   1.429   1.466   0.789  0.1033 -0.2418  0.4636
 8619TIP3    H147272   1.455   1.426   0.873 -1.5409  0.5302  1.3812
 8619TIP3    H247273   1.346   1.424   0.767  1.1940 -1.4770 -1.5688
 8620TIP3   OH247274   4.875   3.756  14.867  0.1340 -0.5351  0.2328
 8620TIP3    H147275   4.899   3.663  14.865  0.5296 -0.4799  1.5289
 8620TIP3    H247276   4.945   3.798  14.917  0.2702  0.5787 -0.8319
 8621TIP3   OH247277   1.229   4.650  13.135  0.3945  0.5516 -0.1849
 8621TIP3    H147278   1.260   4.635  13.224 -0.2977 -1.1300 -0.1796
 8621TIP3    H247279   1.234   4.564  13.093 -2.3449  0.5570 -0.7440
 8622TIP3   OH247280   2.395   3.924  11.445 -0.4048  0.0527  0.1431
 8622TIP3    H147281   2.397   3.910  11.539 -2.2399  1.7064  0.5046
 8622TIP3    H247282   2.410   3.838  11.407 -0.8523 -0.8749  1.9774
 8623TIP3   OH247283   6.117   1.818   1.997 -0.2366 -0.5002  0.4584
 8623TIP3    H147284   6.036   1.806   2.046 -0.7981 -0.1107 -0.3538
 8623TIP3    H247285   6.177   1.753   2.035 -0.7197 -0.3660  1.4864
 8624TIP3   OH247286   2.907   1.954  15.392  0.6928  0.1269  0.4273
 8624TIP3    H147287   2.907   1.928  15.300 -1.6973  0.9205  0.1256
 8624TIP3    H247288   2.879   2.046  15.391  1.4556  0.4027  1.9144
 8625TIP3   OH247289   5.186   0.994  11.538 -0.0305  0.7675  0.3900
 8625TIP3    H147290   5.126   1.017  11.609 -1.9311 -0.1883 -0.8070
 8625TIP3    H247291   5.257   0.946  11.580 -0.0239  1.9834  1.8709
 8626TIP3   OH247292   4.466   6.457  13.919 -0.3913  0.0768  0.2080
 8626TIP3    H147293   4.520   6.461  13.840 -0.2118  2.4905  0.3952
 8626TIP3    H247294   4.496   6.529  13.973 -2.3399  0.1497  1.2932
 8627TIP3   OH247295   2.943   0.859  11.545  0.0707  0.0681  0.0636
 8627TIP3    H147296   2.962   0.843  11.637  1.3029  0.2175 -0.1463
 8627TIP3    H247297   3.002   0.800  11.498 -0.1702  0.3775 -0.6380
 8628TIP3   OH247298   2.480   6.652  12.706  0.0892  0.3627  0.6824
 8628TIP3    H147299   2.487   6.635  12.611  1.1599  0.9051  0.6532
 8628TIP3    H247300   2.569   6.638  12.739 -0.2905  0.1248  1.6292
 8629TIP3   OH247301   0.096   4.670  14.934  0.1582 -0.1978  0.3794
 8629TIP3    H147302   0.114   4.763  14.944 -0.0674  0.4260 -3.4062
 8629TIP3    H247303   0.002   4.666  14.916  0.2281 -1.1092  0.1730
 8630TIP3   OH247304   5.185   3.492  13.287 -0.7982  0.1117  0.2764
 8630TIP3    H147305   5.182   3.514  13.194 -1.8579 -0.4659  0.1639
 8630TIP3    H247306   5.274   3.459  13.300 -0.6258  0.2398 -0.5242
 8631TIP3   OH247307   4.864   1.947  17.055  0.1261  0.3104  0.0968
 8631TIP3    H147308   4.912   1.998  16.990 -1.3556 -0.1026 -1.3922
 8631TIP3    H247309   4.889   1.986  17.139  2.5635  0.4759 -0.6285
 8632TIP3   OH247310   4.400   6.526   3.630  0.7158 -0.2385 -0.3053
 8632TIP3    H147311   4.429   6.472   3.556  0.9884  0.1060 -0.4549
 8632TIP3    H247312   4.421   6.615   3.603 -2.1642  0.2456 -1.2158
 8633TIP3   OH247313   5.793   2.592   1.415  0.1208  0.2862  0.1794
 8633TIP3    H147314   5.725   2.643   1.458 -0.0588 -0.6604  1.0637
 8633TIP3    H247315   5.872   2.607   1.468 -0.0499 -0.7133  0.7521
 8634TIP3   OH247316   6.408   2.465   2.034 -0.2469  0.2806  0.5815
 8634TIP3    H147317   6.374   2.418   1.958 -0.9811 -0.6486  1.4415
 8634TIP3    H247318   6.464   2.533   1.998  0.7080 -1.1449 -0.7355
 8635TIP3   OH247319   5.183   4.068  15.375  0.0768 -0.3937  0.3861
 8635TIP3    H147320   5.100   4.109  15.351  0.3796  0.1360  0.2462
 8635TIP3    H247321   5.169   3.975  15.357  0.2485 -0.0548 -1.7340
 8636TIP3   OH247322   6.407   2.608  14.250  0.1570  0.2352 -0.4628
 8636TIP3    H147323   6.478   2.587  14.189  0.1945  1.9340 -1.0618
 8636TIP3    H247324   6.328   2.608  14.196  0.0365  0.6784 -0.2899
 8637TIP3   OH247325   1.233   6.675  13.309  0.2211  0.1716 -0.5889
 8637TIP3    H147326   1.297   6.720  13.364 -0.6247  0.6864  0.0153
 8637TIP3    H247327   1.284   6.634  13.240  1.2928 -0.2436  0.4228
 8638TIP3   OH247328   4.650   4.045  11.950  0.7730 -0.2558  0.4638
 8638TIP3    H147329   4.742   4.038  11.927  0.7963  1.8326 -0.3353
 8638TIP3    H247330   4.610   4.090  11.875 -1.0221 -1.6390  0.5175
 8639TIP3   OH247331   5.748   2.047  13.305 -0.0393 -0.0065 -0.3550
 8639TIP3    H147332   5.741   1.951  13.309  3.4586 -0.5083 -2.2038
 8639TIP3    H247333   5.794   2.071  13.386 -1.6035  0.2896  0.4876
 8640TIP3   OH247334   4.263   2.422   2.473  0.0483  0.5462  0.7605
 8640TIP3    H147335   4.245   2.454   2.385  0.4778 -0.4428  0.3045
 8640TIP3    H247336   4.189   2.365   2.494  0.1574  0.4452  0.8752
 8641TIP3   OH247337   0.238   5.726  15.598  0.0293  0.3783  0.2289
 8641TIP3    H147338   0.238   5.731  15.694  0.1348 -0.6051  0.2866
 8641TIP3    H247339   0.148   5.747  15.573 -0.4518 -1.0535  0.6569
 8642TIP3   OH247340   6.453   5.478  16.493  0.3558 -0.6645  0.0479
 8642TIP3    H147341   6.381   5.541  16.494  0.6641 -0.3155  0.7111
 8642TIP3    H247342   6.411   5.392  16.498 -0.1140 -0.5721 -1.7712
 8643TIP3   OH247343   1.593   2.273   0.428  0.3498  0.8193 -0.6759
 8643TIP3    H147344   1.641   2.255   0.347 -0.2754 -1.9122 -0.5593
 8643TIP3    H247345   1.524   2.334   0.402 -0.0732 -0.2997 -2.3346
 8644TIP3   OH247346   1.524   5.769  10.853 -0.0047  0.6864 -0.0735
 8644TIP3    H147347   1.540   5.697  10.792 -1.4606 -0.3306  0.6728
 8644TIP3    H247348   1.611   5.791  10.887  0.4022 -1.5394  0.5219
 8645TIP3   OH247349   5.889   1.256   4.312 -0.6557 -0.3022 -0.3086
 8645TIP3    H147350   5.930   1.254   4.226 -0.1071 -1.2856 -0.0371
 8645TIP3    H247351   5.795   1.256   4.294 -0.5431  0.2864 -0.9142
 8646TIP3   OH247352   1.814   2.467  16.052  0.2356 -0.1088 -0.4103
 8646TIP3    H147353   1.803   2.454  15.958  2.1480 -1.4242 -0.5017
 8646TIP3    H247354   1.815   2.379  16.089  1.5468  0.2637  0.5407
 8647TIP3   OH247355   2.691   2.525   0.933  0.1900  0.3274  0.3630
 8647TIP3    H147356   2.637   2.446   0.937  0.2765  0.2870  0.7592
 8647TIP3    H247357   2.632   2.593   0.901  0.4462 -0.1805 -1.2960
 8648TIP3   OH247358   5.060   4.160   1.860  0.3720  0.0724  0.1544
 8648TIP3    H147359   4.972   4.129   1.880 -0.2768  1.8227  0.1803
 8648TIP3    H247360   5.064   4.247   1.898  1.6907  0.5106 -0.8993
 8649TIP3   OH247361   4.757   1.488  11.355  0.2713 -0.5143 -0.2952
 8649TIP3    H147362   4.689   1.464  11.292 -1.2351 -1.0242  1.4278
 8649TIP3    H247363   4.837   1.448  11.320 -0.2540  0.1971 -2.4336
 8650TIP3   OH247364   4.408   5.358   0.618  0.5199 -0.4243 -0.2260
 8650TIP3    H147365   4.479   5.350   0.682 -0.1187  1.2635  0.7791
 8650TIP3    H247366   4.423   5.288   0.555  3.0909 -0.0804 -0.0668
 8651TIP3   OH247367   3.928   0.875   2.188 -0.1091  0.0461 -0.7078
 8651TIP3    H147368   4.001   0.915   2.141  2.1917 -2.0025  0.8947
 8651TIP3    H247369   3.914   0.933   2.263  2.3284 -1.2617  0.8866
 8652TIP3   OH247370   4.340   4.228  15.247 -0.5414 -0.7032  0.1967
 8652TIP3    H147371   4.348   4.288  15.173 -0.4442 -0.1875  0.6132
 8652TIP3    H247372   4.349   4.141  15.209  1.6970 -0.3947 -0.1323
 8653TIP3   OH247373   6.144   4.987   1.109 -0.1391  0.3530  0.7397
 8653TIP3    H147374   6.152   4.921   1.039  1.3869  0.1475  1.0664
 8653TIP3    H247375   6.113   5.065   1.064 -1.3133 -0.3809  0.2222
 8654TIP3   OH247376   0.054   3.187   5.214  0.2081 -0.9964 -0.1328
 8654TIP3    H147377   0.143   3.222   5.214  0.4330 -1.4773 -1.6393
 8654TIP3    H247378  -0.003   3.264   5.220  0.7157 -0.6266 -0.0425
 8655TIP3   OH247379   4.522   4.050   6.630  0.5197 -0.3013  0.2770
 8655TIP3    H147380   4.452   4.019   6.688  1.2735 -0.3305  1.1934
 8655TIP3    H247381   4.582   3.976   6.623  0.3004 -0.3950 -0.7887
 8656TIP3   OH247382   2.373   6.113  12.271  0.4129 -0.1238 -0.2445
 8656TIP3    H147383   2.361   6.194  12.322  2.4021 -0.1607  0.4100
 8656TIP3    H247384   2.318   6.048  12.315  1.1628  0.1519  1.1656
 8657TIP3   OH247385   5.794   3.550   0.103  0.5542 -0.4354 -0.2845
 8657TIP3    H147386   5.824   3.637   0.078 -0.5442  0.2113  0.5307
 8657TIP3    H247387   5.713   3.537   0.053  0.2828 -0.6385  0.1936
 8658TIP3   OH247388   5.642   3.483   2.885  0.1199  0.5465  0.1605
 8658TIP3    H147389   5.683   3.434   2.814  0.7034 -0.5780  1.2354
 8658TIP3    H247390   5.550   3.492   2.859  0.6784  1.8066 -1.5874
 8659TIP3   OH247391   6.177   4.899  17.289 -0.0369 -0.2495  0.3653
 8659TIP3    H147392   6.161   4.925  17.198  3.2478  0.5448 -0.1342
 8659TIP3    H247393   6.187   4.982  17.336 -1.1110 -0.6575  1.3798
 8660TIP3   OH247394   3.833   0.479   4.684 -0.4423 -0.0447  0.4643
 8660TIP3    H147395   3.899   0.418   4.650  0.7298  1.2668  0.3098
 8660TIP3    H247396   3.836   0.468   4.779  3.5867  3.3215  1.0116
 8661TIP3   OH247397   1.166   0.304   6.205  0.3351  0.5056 -0.5686
 8661TIP3    H147398   1.085   0.334   6.246  0.6485 -0.1156  0.5435
 8661TIP3    H247399   1.209   0.384   6.176  0.7024  1.1165  1.4888
 8662TIP3   OH247400   6.287   2.463  15.644 -0.3519  0.0232  0.4631
 8662TIP3    H147401   6.380   2.476  15.628 -0.3722  1.8323  1.6001
 8662TIP3    H247402   6.276   2.368  15.646  1.2794 -0.2275 -0.5887
 8663TIP3   OH247403   4.518   4.102   1.793  0.0836  0.6867 -0.0972
 8663TIP3    H147404   4.484   4.056   1.716 -0.2333  1.0036 -0.1532
 8663TIP3    H247405   4.509   4.040   1.865 -0.0836  0.5646 -0.2238
 8664TIP3   OH247406   2.644   6.120  13.263  0.1456  0.5674  0.1347
 8664TIP3    H147407   2.676   6.093  13.177 -1.4805  0.5203 -0.4772
 8664TIP3    H247408   2.685   6.206  13.277  0.9489  0.2803 -0.3744
 8665TIP3   OH247409   1.393   3.601  12.345 -0.1579  0.0438  0.3538
 8665TIP3    H147410   1.459   3.533  12.327  0.6518  0.8985 -0.0245
 8665TIP3    H247411   1.352   3.617  12.260 -0.0019  0.3715  0.3384
 8666TIP3   OH247412   4.780   5.465  11.469 -0.4428 -0.5066  0.3210
 8666TIP3    H147413   4.798   5.556  11.493  0.1500 -0.9194  1.5314
 8666TIP3    H247414   4.687   5.453  11.491 -0.4904 -0.2351  0.2796
 8667TIP3   OH247415   2.221   0.540  13.289 -0.1511  0.4280  0.2624
 8667TIP3    H147416   2.198   0.524  13.380  1.1057 -0.6216  0.4219
 8667TIP3    H247417   2.248   0.632  13.287 -1.2474  0.7749  0.6994
 8668TIP3   OH247418   3.608   6.127   6.755 -0.2431  0.2386  0.0455
 8668TIP3    H147419   3.672   6.105   6.824 -0.2182  2.1167  0.6647
 8668TIP3    H247420   3.601   6.047   6.703  0.8554 -0.7579  1.3562
 8669TIP3   OH247421   5.489   6.458   2.183  0.4144 -0.6378 -0.4338
 8669TIP3    H147422   5.424   6.463   2.253  0.2110 -0.8376 -0.6089
 8669TIP3    H247423   5.548   6.532   2.200 -0.7294  0.4804 -1.1655
 8670TIP3   OH247424   3.540   4.856   3.169 -0.1532 -0.5950  0.0414
 8670TIP3    H147425   3.458   4.889   3.205  0.0688  1.1436 -0.9321
 8670TIP3    H247426   3.597   4.933   3.166  1.0280 -1.4715 -0.6431
 8671TIP3   OH247427   5.827   1.998   1.199  0.1445 -0.1474 -0.2545
 8671TIP3    H147428   5.896   1.950   1.152 -1.2093  0.2100 -2.7943
 8671TIP3    H247429   5.757   1.934   1.210 -0.1675  0.2172 -0.1126
 8672TIP3   OH247430   0.095   6.588   0.105  0.0404 -0.2964  0.0033
 8672TIP3    H147431   0.074   6.519   0.042  0.6391 -2.6025  2.1532
 8672TIP3    H247432   0.011   6.608   0.147 -0.2601  0.8608 -1.0735
 8673TIP3   OH247433   0.590   6.355  12.283 -0.2154  0.1551 -0.4219
 8673TIP3    H147434   0.530   6.299  12.332  0.2172 -1.7593 -1.9626
 8673TIP3    H247435   0.678   6.325  12.308  0.0729  1.1161 -0.2166
 8674TIP3   OH247436   3.504   6.159   3.909 -0.5316 -0.9178 -0.1122
 8674TIP3    H147437   3.449   6.125   3.838  0.2309  2.1228 -2.3624
 8674TIP3    H247438   3.580   6.197   3.864  0.3218  0.5786  2.3905
 8675TIP3   OH247439   5.521   2.083   5.399 -0.1647 -0.4143 -0.2278
 8675TIP3    H147440   5.568   2.010   5.439  0.2423  0.6571  1.3037
 8675TIP3    H247441   5.589   2.141   5.366 -0.3989  0.4976  0.8306
 8676TIP3   OH247442   2.356   3.540  16.648  0.0203 -0.4294  0.0841
 8676TIP3    H147443   2.400   3.546  16.732  0.9558 -0.8783 -0.3553
 8676TIP3    H247444   2.282   3.600  16.655  0.5410  0.1334  0.9420
 8677TIP3   OH247445   3.829   5.296  13.735  0.4530  0.1331  0.1154
 8677TIP3    H147446   3.914   5.272  13.698  0.6424  0.3362  0.4057
 8677TIP3    H247447   3.851   5.357  13.806 -0.0592  2.0726 -1.3064
 8678TIP3   OH247448   2.462   2.090   2.572 -0.0106  0.0190 -0.0602
 8678TIP3    H147449   2.435   2.037   2.498  0.0878  1.0249 -0.8341
 8678TIP3    H247450   2.387   2.090   2.631 -0.6323  0.4180 -0.8431
 8679TIP3   OH247451   0.865   3.775   4.039 -0.1513  0.4706 -0.5026
 8679TIP3    H147452   0.882   3.683   4.056 -1.4570  0.1113 -1.0404
 8679TIP3    H247453   0.778   3.791   4.076  1.0688  2.1672  1.9350
 8680TIP3   OH247454   2.640   2.659  12.999 -0.4046 -0.2510  0.2627
 8680TIP3    H147455   2.699   2.596  12.958 -0.2877 -0.7081  1.1133
 8680TIP3    H247456   2.695   2.710  13.058 -0.4625  0.7982 -0.5502
 8681TIP3   OH247457   5.922   4.092  12.271 -0.2378 -0.0210 -0.0881
 8681TIP3    H147458   5.922   4.183  12.242  1.8915  0.3772  0.9184
 8681TIP3    H247459   6.011   4.061  12.251 -0.3820 -1.3456  1.1349
 8682TIP3   OH247460   5.125   0.432  16.887 -0.2587  0.2806  0.5966
 8682TIP3    H147461   5.056   0.386  16.839  1.8158  0.0491 -2.4751
 8682TIP3    H247462   5.133   0.517  16.843  1.8496  0.0109  0.3518
 8683TIP3   OH247463   0.658   5.800   3.754 -0.4825 -0.4031 -0.3264
 8683TIP3    H147464   0.586   5.841   3.707 -1.4255 -2.7204 -1.0173
 8683TIP3    H247465   0.637   5.813   3.846 -0.8889  0.3788 -0.5192
 8684TIP3   OH247466   3.995   5.881   5.191 -0.0061  0.1515 -0.2218
 8684TIP3    H147467   4.074   5.849   5.147 -0.2401  0.7956 -1.1520
 8684TIP3    H247468   4.023   5.962   5.233  0.4064 -0.8470  1.5155
 8685TIP3   OH247469   2.838   2.962  11.744 -0.3080 -0.1944 -0.2214
 8685TIP3    H147470   2.933   2.963  11.728  0.0458 -1.8467  1.4297
 8685TIP3    H247471   2.804   3.031  11.688  1.7769 -0.0736 -1.4489
 8686TIP3   OH247472   4.303   1.668   2.134 -0.1534  0.2118  0.0933
 8686TIP3    H147473   4.354   1.606   2.081 -1.0236 -0.3177 -0.1440
 8686TIP3    H247474   4.233   1.698   2.076  0.0586  1.1744  0.3146
 8687TIP3   OH247475   4.667   4.781  12.098 -0.0046 -0.8723  0.6562
 8687TIP3    H147476   4.594   4.800  12.038  1.1738 -1.1287 -0.9119
 8687TIP3    H247477   4.697   4.694  12.073 -0.2602 -1.5258  2.4820
 8688TIP3   OH247478   4.158   3.431  14.270 -0.4282  0.8001 -0.1736
 8688TIP3    H147479   4.242   3.471  14.246  0.8447 -1.2004  0.6979
 8688TIP3    H247480   4.128   3.389  14.190 -0.0672  0.6491 -0.2349
 8689TIP3   OH247481   0.707   4.236  12.507  0.1264 -0.7134  0.3060
 8689TIP3    H147482   0.641   4.255  12.441 -0.1184 -0.1928  0.6895
 8689TIP3    H247483   0.741   4.150  12.484  1.3274  0.1969 -1.5688
 8690TIP3   OH247484   6.185   1.581  13.869 -0.5316  0.1280  0.5797
 8690TIP3    H147485   6.190   1.487  13.886 -1.8553  0.2175  1.6275
 8690TIP3    H247486   6.188   1.621  13.956 -1.2369  0.9796  0.2285
 8691TIP3   OH247487   6.752   4.843  17.254 -0.0831  0.9200 -0.2649
 8691TIP3    H147488   6.668   4.829  17.297  0.3979  1.9575  1.0721
 8691TIP3    H247489   6.801   4.899  17.314  2.7244 -2.0306  0.4615
 8692TIP3   OH247490   4.960   3.919   6.371 -0.6055 -0.3505 -0.0851
 8692TIP3    H147491   4.904   3.987   6.408 -0.0593  0.1609 -0.1837
 8692TIP3    H247492   5.008   3.964   6.301 -0.0971 -0.7900 -0.0212
 8693TIP3   OH247493   0.606   2.420  13.399  0.9255  0.7045 -0.4045
 8693TIP3    H147494   0.643   2.436  13.486  1.1658 -0.3704 -0.2917
 8693TIP3    H247495   0.682   2.425  13.340  1.2979 -1.4704 -0.1772
 8694TIP3   OH247496   1.970   1.771  13.557  0.2537  0.5652  0.4261
 8694TIP3    H147497   1.979   1.698  13.618 -0.3101 -0.6364 -0.8595
 8694TIP3    H247498   1.882   1.760  13.520  0.3980  1.5362 -0.2542
 8695TIP3   OH247499   0.171   3.470  12.638  0.6406 -0.3771  0.1490
 8695TIP3    H147500   0.177   3.499  12.547 -0.9383 -2.1129 -0.6035
 8695TIP3    H247501   0.122   3.388  12.633  1.3742 -1.0401  2.4904
 8696TIP3   OH247502   6.188   6.278   4.418 -0.3664 -0.1054 -0.2481
 8696TIP3    H147503   6.131   6.355   4.411 -0.6196 -0.4017 -1.9855
 8696TIP3    H247504   6.132   6.210   4.454 -1.0667 -0.3100 -1.6589
 8697TIP3   OH247505   1.920   0.779  15.746  0.1564 -0.2425 -0.2147
 8697TIP3    H147506   1.846   0.824  15.788  0.4573  0.7205 -0.6918
 8697TIP3    H247507   1.947   0.838  15.676 -0.2531 -1.7663 -1.7046
 8698TIP3   OH247508   3.599   6.440   2.791  0.0542  0.1689 -0.1896
 8698TIP3    H147509   3.665   6.467   2.856  0.9001 -0.5852 -0.7237
 8698TIP3    H247510   3.644   6.377   2.735 -1.2953 -0.8279 -0.2083
 8699TIP3   OH247511   1.801   6.358   0.308  0.5503  0.0047 -0.2184
 8699TIP3    H147512   1.743   6.301   0.358  1.7060 -0.5697  0.4970
 8699TIP3    H247513   1.778   6.341   0.216  0.1526 -0.8028  0.0241
 8700TIP3   OH247514   3.147   1.568  11.113 -0.3846  0.0100 -0.0238
 8700TIP3    H147515   3.111   1.569  11.024 -0.9326  1.7161  0.1651
 8700TIP3    H247516   3.198   1.649  11.118 -1.1140  0.4077  1.4842
 8701TIP3   OH247517   0.856   0.271  16.697  0.2749  0.0359 -0.1558
 8701TIP3    H147518   0.901   0.269  16.782  2.2127  2.2862 -1.0074
 8701TIP3    H247519   0.885   0.191  16.653  0.4683 -0.3959  0.7188
 8702TIP3   OH247520   5.788   5.628   3.620  0.6423 -0.2990 -0.1491
 8702TIP3    H147521   5.734   5.689   3.568 -2.7910 -1.6563  1.5107
 8702TIP3    H247522   5.784   5.546   3.571 -0.9035 -1.0386  1.1427
 8703TIP3   OH247523   4.211   5.080  13.599  0.0757  0.5474 -0.2645
 8703TIP3    H147524   4.192   4.993  13.564 -0.6631 -0.3387  2.1216
 8703TIP3    H247525   4.293   5.106  13.558  0.6868 -1.5897 -0.5031
 8704TIP3   OH247526   3.157   4.538   5.066  0.5983 -0.0151  0.6013
 8704TIP3    H147527   3.236   4.534   5.011  1.0238 -0.7536  1.2382
 8704TIP3    H247528   3.185   4.581   5.146 -0.0222  1.0563  0.2553
 8705TIP3   OH247529   2.223   1.280   5.839 -0.4367  0.1260  0.3284
 8705TIP3    H147530   2.286   1.325   5.895  1.5444 -2.4252  0.3154
 8705TIP3    H247531   2.237   1.187   5.857 -0.7460 -0.7704 -3.2905
 8706TIP3   OH247532   5.882   6.306  14.048 -0.0725 -0.2315  0.5129
 8706TIP3    H147533   5.867   6.270  13.960  1.7823  1.0035 -0.3694
 8706TIP3    H247534   5.877   6.401  14.036  0.0887 -0.0475  1.7931
 8707TIP3   OH247535   4.467   4.723   3.973  0.1163 -0.0315  0.0131
 8707TIP3    H147536   4.378   4.758   3.977 -0.1852 -0.6482 -0.9166
 8707TIP3    H247537   4.519   4.794   3.934 -0.4974 -0.5659 -1.8911
 8708TIP3   OH247538   6.299   0.189  12.362  1.1571  0.1487  0.3026
 8708TIP3    H147539   6.346   0.121  12.409  0.0005  0.1393  1.5233
 8708TIP3    H247540   6.235   0.143  12.308 -0.3937  0.2102  1.9688
 8709TIP3   OH247541   3.048   0.331  15.432  0.6441 -0.3065  0.6439
 8709TIP3    H147542   3.099   0.256  15.401 -0.3458 -0.7083 -0.0653
 8709TIP3    H247543   2.984   0.346  15.363 -0.3679  0.0236  1.6335
 8710TIP3   OH247544   3.128   2.752  13.854  0.3656 -0.3841 -0.2876
 8710TIP3    H147545   3.102   2.844  13.849 -0.1666 -0.4799  0.4695
 8710TIP3    H247546   3.102   2.714  13.770 -1.2052 -0.2705  0.1098
 8711TIP3   OH247547   2.475   2.349   1.994  0.2512 -0.3992 -0.5144
 8711TIP3    H147548   2.385   2.380   2.001  0.6061  0.7162 -0.6687
 8711TIP3    H247549   2.506   2.344   2.084  0.7724  1.5369 -0.5527
 8712TIP3   OH247550   2.281   4.014   4.314  0.2273  0.1302 -0.9048
 8712TIP3    H147551   2.196   4.047   4.342  0.2714 -0.1249 -0.4430
 8712TIP3    H247552   2.313   4.078   4.251 -0.8721 -0.4172 -2.0648
 8713TIP3   OH247553   2.768   6.584  14.392  0.2446 -0.1658  0.2638
 8713TIP3    H147554   2.803   6.627  14.470  2.2863  1.1629 -1.2634
 8713TIP3    H247555   2.689   6.633  14.371  0.7703  0.7662  0.4018
 8714TIP3   OH247556   4.873   0.670   4.232  0.0659  0.6058  0.7210
 8714TIP3    H147557   4.908   0.670   4.321  0.5969 -0.7088  0.5373
 8714TIP3    H247558   4.839   0.581   4.220 -2.6583  1.5901  0.6089
 8715TIP3   OH247559   1.523   1.893  13.901  0.5075  0.0159 -0.2457
 8715TIP3    H147560   1.535   1.887  13.996  0.1992  0.8567 -0.1415
 8715TIP3    H247561   1.470   1.972  13.889  1.3807  0.4752 -1.1935
 8716TIP3   OH247562   5.969   0.920  17.348 -0.0009 -0.7360  0.0660
 8716TIP3    H147563   5.889   0.938  17.300  0.0155 -1.5667 -0.2759
 8716TIP3    H247564   6.003   1.007  17.371  0.1710 -0.2947 -1.7004
 8717TIP3   OH247565   5.115   0.485   1.521  0.2480  0.7586  0.3450
 8717TIP3    H147566   5.065   0.442   1.451 -0.7277  2.0649  0.1977
 8717TIP3    H247567   5.196   0.512   1.479  0.0658  0.7084 -0.0459
 8718TIP3   OH247568   1.400   0.722   5.907  0.1852 -0.7779  0.0164
 8718TIP3    H147569   1.359   0.640   5.935  0.8744 -1.2889 -0.4358
 8718TIP3    H247570   1.493   0.709   5.923  0.2519  0.1187  0.4165
 8719TIP3   OH247571   5.812   2.503   5.943 -0.1041  0.1840  0.3071
 8719TIP3    H147572   5.824   2.590   5.982 -0.1787  0.8838 -1.1786
 8719TIP3    H247573   5.851   2.510   5.856 -1.4037 -0.8233 -0.3875
 8720TIP3   OH247574   6.134   3.559   5.973 -0.4210 -0.4553 -0.2047
 8720TIP3    H147575   6.076   3.577   5.900  0.4534 -0.7786 -1.0025
 8720TIP3    H247576   6.167   3.644   6.000 -0.5954 -0.3546 -0.3101
 8721TIP3   OH247577   1.220   5.001  14.956 -0.2779 -0.3789  0.2183
 8721TIP3    H147578   1.159   4.982  15.027 -1.6466  0.1946 -0.7749
 8721TIP3    H247579   1.165   5.014  14.879  1.1234 -0.2354 -0.8058
 8722TIP3   OH247580   3.689   1.529   5.318  0.0753  0.4031 -0.6777
 8722TIP3    H147581   3.762   1.471   5.340 -0.7584  0.3729  2.5849
 8722TIP3    H247582   3.725   1.617   5.324  0.1075  0.3551 -0.0719
 8723TIP3   OH247583   0.290   2.595  14.333  0.2366  0.4905 -0.0054
 8723TIP3    H147584   0.367   2.637  14.294  0.9811 -0.8763 -0.0629
 8723TIP3    H247585   0.220   2.659  14.322  1.1656  1.4240 -0.7215
 8724TIP3   OH247586   5.096   0.577  14.560  0.5890  0.5816  0.3356
 8724TIP3    H147587   5.168   0.560  14.621  2.2718  1.2959 -1.3594
 8724TIP3    H247588   5.040   0.640  14.606 -0.2007 -1.5734  2.5493
 8725TIP3   OH247589   6.504   0.030  16.634 -0.0458  0.7820 -0.4194
 8725TIP3    H147590   6.597   0.034  16.656  0.1342 -0.0185 -1.0003
 8725TIP3    H247591   6.465  -0.019  16.707  0.1860  0.0975 -0.7448
 8726TIP3   OH247592   0.653   4.233   0.319  0.0932 -0.0160  0.1926
 8726TIP3    H147593   0.613   4.146   0.326 -0.9852  0.4028 -0.4838
 8726TIP3    H247594   0.654   4.265   0.410 -3.4308  0.9073  0.0627
 8727TIP3   OH247595   0.257   1.721   3.349 -0.2516  0.4487 -0.1895
 8727TIP3    H147596   0.230   1.787   3.412 -0.9101 -1.1827  1.3144
 8727TIP3    H247597   0.353   1.721   3.355 -0.2831  0.6898  0.4145
 8728TIP3   OH247598   5.356   2.959   6.134  0.1253  1.1211  0.3743
 8728TIP3    H147599   5.329   2.883   6.082  0.7386  0.7710  0.5575
 8728TIP3    H247600   5.323   2.942   6.222 -0.3492  1.4038  0.2515
 8729TIP3   OH247601   5.719   4.176   0.387  0.6587  0.4447 -0.1474
 8729TIP3    H147602   5.752   4.243   0.447 -0.3156  1.1371 -0.3582
 8729TIP3    H247603   5.624   4.189   0.386  0.7292  1.4127 -2.9507
 8730TIP3   OH247604   5.472   3.239  11.378 -0.1581 -0.1252 -0.1737
 8730TIP3    H147605   5.540   3.172  11.384  0.0471  0.1912  1.1782
 8730TIP3    H247606   5.518   3.317  11.347 -0.3905 -0.5506 -1.7113
 8731TIP3   OH247607   5.276   6.555  10.712 -0.7157 -0.7466 -0.0836
 8731TIP3    H147608   5.252   6.505  10.790 -3.5590  0.1335 -0.2475
 8731TIP3    H247609   5.307   6.639  10.747 -1.0037 -0.7302  0.1457
 8732TIP3   OH247610   3.542   5.930   0.279  0.1346  0.2354 -0.0041
 8732TIP3    H147611   3.481   5.873   0.232  0.3058  0.1916 -0.1744
 8732TIP3    H247612   3.582   5.983   0.210 -1.2133  1.7168  0.2876
 8733TIP3   OH247613   6.258   5.798  12.965  0.6899 -0.0420  0.2596
 8733TIP3    H147614   6.308   5.879  12.969 -1.2481  1.5791 -3.3473
 8733TIP3    H247615   6.310   5.740  12.910  1.8805 -1.1958  2.5014
 8734TIP3   OH247616   6.606   0.411  13.723 -0.7109 -0.0544  0.1500
 8734TIP3    H147617   6.623   0.360  13.644 -1.8066  0.5802 -0.5132
 8734TIP3    H247618   6.691   0.416  13.767  0.0062 -0.0958 -1.1844
 8735TIP3   OH247619   6.663   2.496  14.393  0.0933 -0.7282  0.6029
 8735TIP3    H147620   6.724   2.569  14.404 -0.7549 -0.1733  1.9500
 8735TIP3    H247621   6.581   2.538  14.367 -0.2829 -1.2386  0.9487
 8736TIP3   OH247622   1.477   3.209   6.457 -0.0701  0.0231 -0.1563
 8736TIP3    H147623   1.399   3.258   6.433 -0.3526  0.2101  1.1015
 8736TIP3    H247624   1.522   3.265   6.521  1.9917  0.7116 -2.0675
 8737TIP3   OH247625   3.500   3.342  14.765  0.0389  0.4214  0.3341
 8737TIP3    H147626   3.485   3.411  14.829 -0.9397 -0.1732  0.7782
 8737TIP3    H247627   3.547   3.385  14.694 -1.4945  1.8241  0.0985
 8738TIP3   OH247628   6.069   6.465  11.110 -0.0366  0.3109 -0.2443
 8738TIP3    H147629   6.049   6.494  11.199 -1.4374 -0.0398 -0.4199
 8738TIP3    H247630   6.105   6.542  11.067 -1.3263  1.0905  0.0269
 8739TIP3   OH247631   3.220   4.283  12.633 -0.1967 -0.3337 -0.0697
 8739TIP3    H147632   3.287   4.262  12.699 -1.8293 -1.6377  1.2798
 8739TIP3    H247633   3.167   4.351  12.674 -1.6815 -1.6779  0.3809
 8740TIP3   OH247634   4.846   5.731  11.885  0.0962  0.1497  0.1710
 8740TIP3    H147635   4.874   5.822  11.889  0.9009 -0.0738 -0.1373
 8740TIP3    H247636   4.883   5.691  11.964  0.2940 -0.0486 -0.0180
 8741TIP3   OH247637   3.276   3.594  14.696 -0.5802 -0.0751 -0.0627
 8741TIP3    H147638   3.354   3.599  14.751 -0.4671 -1.1054 -0.1006
 8741TIP3    H247639   3.220   3.665  14.727 -0.1674 -0.1251  0.8394
 8742TIP3   OH247640   5.669   4.259  17.353 -0.0737  0.0943 -0.1478
 8742TIP3    H147641   5.759   4.284  17.377 -0.1964  2.2014 -1.5942
 8742TIP3    H247642   5.679   4.177  17.305  1.0894  0.2863 -0.2705
 8743TIP3   OH247643   0.649   1.047   5.364  0.2713 -0.1838  0.2436
 8743TIP3    H147644   0.568   0.995   5.366 -0.5043  0.9488 -0.5094
 8743TIP3    H247645   0.718   0.983   5.349 -0.8415 -0.8418 -2.6789
 8744TIP3   OH247646   1.837   4.276  16.159 -0.0491  0.5648  0.0822
 8744TIP3    H147647   1.898   4.245  16.092 -0.3734 -0.4707  0.2440
 8744TIP3    H247648   1.760   4.307  16.111 -0.7842 -1.2942 -0.0186
 8745TIP3   OH247649   5.259   6.484  12.626 -0.0442 -0.1949 -0.0569
 8745TIP3    H147650   5.287   6.570  12.594 -3.1669  0.6907 -0.7159
 8745TIP3    H247651   5.193   6.503  12.692 -0.6612 -2.0982 -0.0679
 8746TIP3   OH247652   2.537   1.887   3.897 -0.2871 -0.0493  0.3378
 8746TIP3    H147653   2.500   1.963   3.852  0.1783  0.3638  0.6405
 8746TIP3    H247654   2.534   1.817   3.832  0.6125  0.6101 -0.4390
 8747TIP3   OH247655   4.070   3.579  11.538  0.0170 -0.1032  0.0616
 8747TIP3    H147656   4.020   3.633  11.477  1.0607 -0.3476 -1.0637
 8747TIP3    H247657   4.048   3.613  11.624 -1.0826  0.6191 -0.4838
 8748TIP3   OH247658   0.164   5.116   5.562 -0.1249  0.2511  0.4134
 8748TIP3    H147659   0.171   5.199   5.514  0.4780  1.1882  2.0454
 8748TIP3    H247660   0.244   5.069   5.540 -0.6627 -0.1377 -0.8592
 8749TIP3   OH247661   1.703   5.559   0.715  0.1447  0.1422 -0.3243
 8749TIP3    H147662   1.693   5.511   0.632  0.4963 -1.4443  0.5043
 8749TIP3    H247663   1.624   5.539   0.764 -0.1937  1.3144 -0.3794
 8750TIP3   OH247664   3.688   5.864  13.345  0.3373  0.1896  0.1515
 8750TIP3    H147665   3.692   5.957  13.367  0.2708 -0.0936  1.4668
 8750TIP3    H247666   3.598   5.851  13.314  0.2923  0.5244  0.1318
 8751TIP3   OH247667   4.691   5.181   0.562 -0.4185 -0.0521 -0.3560
 8751TIP3    H147668   4.724   5.262   0.601  1.2385 -0.0780 -1.5679
 8751TIP3    H247669   4.617   5.208   0.508  0.8589  0.8850 -1.6991
 8752TIP3   OH247670   6.533   1.611  15.462 -0.4783  0.5737 -0.0863
 8752TIP3    H147671   6.445   1.620  15.500  0.4171 -1.1513  2.6360
 8752TIP3    H247672   6.551   1.517  15.466  1.2157  0.8122 -1.3500
 8753TIP3   OH247673   2.781   3.468   1.191 -0.2260 -0.3048 -0.6612
 8753TIP3    H147674   2.817   3.380   1.183  1.1133 -0.0655  1.6801
 8753TIP3    H247675   2.687   3.457   1.183 -0.2458 -2.2819  1.4208
 8754TIP3   OH247676   0.304   3.485   0.526  0.7306 -0.0227 -0.1239
 8754TIP3    H147677   0.258   3.407   0.557  0.4966 -0.3363 -1.2052
 8754TIP3    H247678   0.248   3.558   0.551  0.5801 -0.2586  0.2295
 8755TIP3   OH247679   5.969   3.770   6.018  0.2839 -0.0231 -0.4548
 8755TIP3    H147680   5.878   3.751   5.995 -0.8989  2.9514  1.2233
 8755TIP3    H247681   5.973   3.752   6.112  0.4325  2.8792  0.1738
 8756TIP3   OH247682   6.423   3.761  12.968  0.4115 -0.2549 -0.5874
 8756TIP3    H147683   6.405   3.667  12.974  2.0314 -0.5228  1.2998
 8756TIP3    H247684   6.414   3.793  13.058 -1.6225  1.7628 -1.4103
 8757TIP3   OH247685   2.320   4.796  13.369  0.0544 -0.4569  0.3421
 8757TIP3    H147686   2.303   4.863  13.436  2.0963 -0.8247  1.2901
 8757TIP3    H247687   2.270   4.826  13.293 -1.5401  0.4965  1.6836
 8758TIP3   OH247688   3.407   0.479   5.488  0.1336 -0.4323 -0.2685
 8758TIP3    H147689   3.357   0.398   5.484 -0.2297 -0.2376  0.2565
 8758TIP3    H247690   3.483   0.463   5.433 -1.0225 -0.3686 -1.9625
 8759TIP3   OH247691   0.360   1.956  15.502 -0.4190 -0.1743  0.1857
 8759TIP3    H147692   0.270   1.927  15.483  0.2375 -1.7975 -0.6306
 8759TIP3    H247693   0.413   1.878  15.492  1.1129  0.7558  0.6904
 8760TIP3   OH247694   5.779   0.211   0.848  0.2446  0.2979  0.0937
 8760TIP3    H147695   5.870   0.227   0.821 -0.1798  0.5713 -1.2553
 8760TIP3    H247696   5.732   0.288   0.817 -1.0149 -1.2771 -2.2104
 8761TIP3   OH247697   5.213   2.207   4.244 -0.2064  0.0124 -0.1199
 8761TIP3    H147698   5.223   2.118   4.277 -0.9346 -0.3087 -0.7095
 8761TIP3    H247699   5.261   2.208   4.161 -0.8273 -0.0689 -0.4914
 8762TIP3   OH247700   4.212   1.680  17.301 -0.1597  0.0012 -0.1578
 8762TIP3    H147701   4.173   1.692  17.214  2.1193  2.1061 -0.9919
 8762TIP3    H247702   4.280   1.614  17.287 -0.0827  0.0261  0.1057
 8763TIP3   OH247703   2.369   3.828   0.070  0.4534 -0.0934  0.0376
 8763TIP3    H147704   2.374   3.798   0.161  1.5080  1.3959  0.5181
 8763TIP3    H247705   2.444   3.787   0.028  0.4529 -0.1206  0.0635
 8764TIP3   OH247706   4.132   2.046  12.569 -0.0506  0.1407  0.1126
 8764TIP3    H147707   4.178   2.039  12.485  0.9272 -2.5329  0.7749
 8764TIP3    H247708   4.200   2.035  12.635 -1.2777 -1.9603  1.1547
 8765TIP3   OH247709   5.567   1.873   1.192  0.6523  0.0048 -0.0457
 8765TIP3    H147710   5.572   1.780   1.173 -1.0928 -0.0205 -0.5270
 8765TIP3    H247711   5.473   1.892   1.199  0.9028  1.9670 -1.2556
 8766TIP3   OH247712   4.296   4.397  12.430  0.2673  0.0631 -0.4034
 8766TIP3    H147713   4.248   4.374  12.509  1.1508 -0.8323 -0.1191
 8766TIP3    H247714   4.268   4.332  12.365 -0.1947  0.5865 -0.7390
 8767TIP3   OH247715   6.374   1.224   4.252  0.3638 -0.0072 -0.0030
 8767TIP3    H147716   6.441   1.291   4.243 -1.8417  2.3679  0.2327
 8767TIP3    H247717   6.373   1.202   4.345  0.9414 -0.2565 -0.0481
 8768TIP3   OH247718   4.260   2.417   6.100 -0.0150 -0.2192  0.0594
 8768TIP3    H147719   4.323   2.449   6.165 -1.0334  0.3588  0.7979
 8768TIP3    H247720   4.306   2.423   6.017  0.6529  0.9529  0.4885
 8769TIP3   OH247721   5.911   1.518  12.064  0.6780  0.6493 -0.1480
 8769TIP3    H147722   5.872   1.434  12.088  0.7472  1.0494  1.4635
 8769TIP3    H247723   5.961   1.544  12.141 -0.1103  2.6247 -0.2545
 8770TIP3   OH247724   2.013   2.414  13.377  0.2455 -0.1343  0.0195
 8770TIP3    H147725   1.972   2.342  13.328  0.9818  0.6856 -1.8754
 8770TIP3    H247726   2.106   2.408  13.356  0.1150  2.3940 -1.6387
 8771TIP3   OH247727   5.811   3.539   6.720 -0.3645  0.1501  0.4188
 8771TIP3    H147728   5.794   3.601   6.649  0.7506  0.5432  0.4735
 8771TIP3    H247729   5.726   3.499   6.737 -1.1657  1.7886  0.5024
 8772TIP3   OH247730   5.768   3.189   3.881 -0.1483 -0.5067 -0.0989
 8772TIP3    H147731   5.715   3.121   3.839 -1.0692  0.4065 -0.4492
 8772TIP3    H247732   5.823   3.223   3.811 -0.3463 -0.2566 -0.1311
 8773TIP3   OH247733   1.614   2.134  12.410  0.2639 -0.3394  0.2364
 8773TIP3    H147734   1.583   2.179  12.489 -1.4563  0.9675 -1.0836
 8773TIP3    H247735   1.599   2.041  12.427 -2.1961  0.0596  0.6572
 8774TIP3   OH247736   6.265   4.465  16.456 -0.2073 -0.0483 -0.0492
 8774TIP3    H147737   6.313   4.442  16.376 -0.6128 -1.9860  0.2138
 8774TIP3    H247738   6.201   4.531  16.427 -0.1794 -0.5366 -1.2776
 8775TIP3   OH247739   2.038   4.256   1.404  0.3224 -0.5401 -0.0807
 8775TIP3    H147740   1.987   4.242   1.324  0.4197 -1.0071 -0.0639
 8775TIP3    H247741   2.091   4.177   1.413  1.0916 -0.0391 -0.1231
 8776TIP3   OH247742   1.421   0.227  15.063 -0.2862 -0.4617 -0.3503
 8776TIP3    H147743   1.402   0.300  15.005 -0.4388  0.2858  0.6134
 8776TIP3    H247744   1.487   0.176  15.017  0.1680  0.5453 -0.8428
 8777TIP3   OH247745   6.449   1.360   5.348  0.4565  0.2768  0.0511
 8777TIP3    H147746   6.479   1.269   5.336  1.6164  0.6551 -0.0475
 8777TIP3    H247747   6.488   1.387   5.431  0.2300  0.7318  0.0130
 8778TIP3   OH247748   5.347   3.409   5.451  0.4299 -0.0639  0.6446
 8778TIP3    H147749   5.337   3.336   5.513 -1.7279 -0.4299 -0.0429
 8778TIP3    H247750   5.368   3.484   5.506  1.8008 -1.0167  1.4605
 8779TIP3   OH247751   1.765   0.143  10.992 -0.5340  0.1860  0.1485
 8779TIP3    H147752   1.683   0.190  10.975 -1.5915 -1.6857 -0.2308
 8779TIP3    H247753   1.753   0.059  10.949  1.9958  0.1911 -0.6768
 8780TIP3   OH247754   3.416   5.820   2.137  0.0409 -0.5561  0.3093
 8780TIP3    H147755   3.326   5.789   2.127 -0.3585  0.9744 -1.5646
 8780TIP3    H247756   3.408   5.902   2.185 -0.0497  1.2924 -2.6041
 8781TIP3   OH247757   2.036   6.716   6.145  0.1418  0.1219 -0.5763
 8781TIP3    H147758   2.041   6.771   6.223  1.6238 -0.8599  0.0579
 8781TIP3    H247759   1.942   6.701   6.133 -0.0949 -0.9909  1.9763
 8782TIP3   OH247760   3.646   2.085   3.383 -0.0578 -0.8147  0.2334
 8782TIP3    H147761   3.688   2.032   3.450  0.6540  1.1211  1.3818
 8782TIP3    H247762   3.718   2.124   3.334 -0.5398  0.0901  0.2311
 8783TIP3   OH247763   0.479   0.771   6.331 -0.1845  0.6621  0.1791
 8783TIP3    H147764   0.480   0.676   6.338  0.6709  0.6220 -0.3282
 8783TIP3    H247765   0.507   0.802   6.418 -0.6676  0.4668  0.4092
 8784TIP3   OH247766   5.440   3.980  16.816  0.4863  0.5403  0.3970
 8784TIP3    H147767   5.369   3.949  16.873  1.2894  1.4936  2.0162
 8784TIP3    H247768   5.410   3.962  16.727 -0.8729 -0.9414  1.1103
 8785TIP3   OH247769   4.829   2.544  17.192  0.4451 -0.4901 -0.1471
 8785TIP3    H147770   4.903   2.492  17.224 -0.6749 -2.1915 -0.1845
 8785TIP3    H247771   4.752   2.503  17.231 -0.4914  1.6138  0.4036
 8786TIP3   OH247772   2.159   0.780  13.985  0.8760 -0.0629 -0.4131
 8786TIP3    H147773   2.238   0.759  14.033  0.4005  0.0791  0.4467
 8786TIP3    H247774   2.114   0.696  13.974  0.8288 -0.0498 -0.3221
 8787TIP3   OH247775   0.285   5.924   1.689 -0.3307  0.4843  0.3906
 8787TIP3    H147776   0.266   5.951   1.779  1.1429 -0.7389  1.1137
 8787TIP3    H247777   0.321   6.002   1.648 -0.0410  0.7860  1.1898
 8788TIP3   OH247778   5.646   2.097  11.497  0.1447 -0.2774  0.1773
 8788TIP3    H147779   5.711   2.073  11.430  0.0664  1.0161 -0.3861
 8788TIP3    H247780   5.692   2.083  11.580  1.1058  0.4361 -0.2070
 8789TIP3   OH247781   5.394   5.713   1.096 -0.3224  0.5854 -0.1846
 8789TIP3    H147782   5.470   5.681   1.048  0.6083  1.4180  0.6792
 8789TIP3    H247783   5.326   5.723   1.030  0.2467 -0.3810 -0.9417
 8790TIP3   OH247784   0.714   0.895   2.756  0.5803 -0.2184  0.6932
 8790TIP3    H147785   0.744   0.805   2.744  0.1033 -0.4251  1.0172
 8790TIP3    H247786   0.707   0.906   2.851 -0.7601 -0.3273  0.6352
 8791TIP3   OH247787   0.590   3.918   3.535 -0.2113 -0.4492  0.0740
 8791TIP3    H147788   0.510   3.969   3.518  0.2462  0.9382  1.7512
 8791TIP3    H247789   0.569   3.830   3.504 -3.1002 -0.6126  2.0623
 8792TIP3   OH247790   2.081   6.589  12.029  0.0095  0.0016 -0.8715
 8792TIP3    H147791   2.115   6.654  11.969  1.0898 -0.0345 -0.3152
 8792TIP3    H247792   2.092   6.505  11.984 -0.6502  0.1214 -1.2632
 8793TIP3   OH247793   5.587   3.009  11.879  0.5366  0.0194 -0.1027
 8793TIP3    H147794   5.595   3.084  11.938 -1.7945 -0.8001  1.4085
 8793TIP3    H247795   5.651   2.945  11.913  0.6647  0.3348  0.2545
 8794TIP3   OH247796   5.199   2.572  14.714 -0.2161  0.8013  0.3645
 8794TIP3    H147797   5.108   2.573  14.741 -0.3730  0.2648 -0.1298
 8794TIP3    H247798   5.243   2.631  14.776 -1.2404  2.7272 -0.6507
 8795TIP3   OH247799   0.952   4.666   5.065 -0.1709 -0.0491 -0.2514
 8795TIP3    H147800   0.863   4.651   5.097 -0.2880 -1.2657 -1.0765
 8795TIP3    H247801   0.941   4.689   4.973  0.2788  1.5179  0.0576
 8796TIP3   OH247802   0.128   5.168   1.400  0.1527  0.2710 -0.7233
 8796TIP3    H147803   0.153   5.104   1.333 -0.8204 -0.8049 -0.1011
 8796TIP3    H247804   0.079   5.117   1.465  0.6716  1.3638  0.5858
 8797TIP3   OH247805   3.241   3.911  11.357 -1.0216 -0.4886 -0.4918
 8797TIP3    H147806   3.149   3.913  11.329 -0.6807  1.0443 -1.6716
 8797TIP3    H247807   3.290   3.930  11.277  0.1812  0.9944  0.5393
 8798TIP3   OH247808   2.044   0.385  12.642 -0.2363 -0.1569  0.1521
 8798TIP3    H147809   2.026   0.301  12.684 -0.5916 -0.8693 -1.3658
 8798TIP3    H247810   2.008   0.450  12.702 -1.1010 -1.1571  0.7409
 8799TIP3   OH247811   1.940   0.765   0.359  0.2589 -0.0740 -0.4418
 8799TIP3    H147812   1.973   0.799   0.443 -0.2044 -1.2253  0.2147
 8799TIP3    H247813   1.906   0.843   0.315 -2.6466  0.1473  1.8725
 8800TIP3   OH247814   3.655   4.080   4.726 -0.3877 -0.1665 -0.2673
 8800TIP3    H147815   3.659   3.988   4.700 -0.8173  0.1942 -1.7323
 8800TIP3    H247816   3.746   4.108   4.730 -0.2421 -0.7327  0.5247
 8801TIP3   OH247817   4.413   4.857   5.741  0.0818 -0.4984 -0.0485
 8801TIP3    H147818   4.392   4.784   5.683  0.3907 -0.9748  0.4277
 8801TIP3    H247819   4.328   4.893   5.766 -0.0589 -0.4505 -0.5891
 8802TIP3   OH247820   2.592   3.384   0.896 -0.4548 -0.6179 -0.1513
 8802TIP3    H147821   2.515   3.356   0.847 -0.3655 -2.9077  0.8863
 8802TIP3    H247822   2.557   3.428   0.973 -0.6026  2.1397 -1.6831
 8803TIP3   OH247823   3.469   4.681  12.554 -0.0341 -0.3749 -0.1187
 8803TIP3    H147824   3.486   4.632  12.635 -1.9860  1.5719  1.5977
 8803TIP3    H247825   3.530   4.755  12.558 -0.8421  0.2895  0.1261
 8804TIP3   OH247826   6.192   1.995  13.061 -0.2956  0.1293 -0.1329
 8804TIP3    H147827   6.275   1.998  13.014  0.3718 -1.4246  0.8741
 8804TIP3    H247828   6.146   1.920  13.023 -0.5800  0.0497  0.3667
 8805TIP3   OH247829   0.563   1.203  13.250 -0.0694 -0.4817 -0.3858
 8805TIP3    H147830   0.536   1.285  13.209  0.5982 -0.8163 -1.5235
 8805TIP3    H247831   0.559   1.221  13.344 -0.7956  0.5657 -0.5958
 8806TIP3   OH247832   0.732   6.232  12.636  0.4120 -0.1755 -0.7364
 8806TIP3    H147833   0.674   6.158  12.654  0.4935 -0.1642 -0.4299
 8806TIP3    H247834   0.725   6.244  12.541 -0.1562 -0.1145 -0.6913
 8807TIP3   OH247835   1.610   4.411   0.457  0.0171 -0.2621 -0.2279
 8807TIP3    H147836   1.580   4.380   0.542 -0.3621 -0.4778 -0.4346
 8807TIP3    H247837   1.705   4.415   0.464 -0.0434  0.1950  0.3635
 8808TIP3   OH247838   0.779   3.325   4.399 -0.2672  0.4849 -0.2521
 8808TIP3    H147839   0.742   3.295   4.316  0.0495 -1.1563  0.1639
 8808TIP3    H247840   0.705   3.320   4.461 -0.2883  0.8650 -0.2464
 8809TIP3   OH247841   6.707   3.837  16.753 -0.3933  0.3686  0.1966
 8809TIP3    H147842   6.763   3.857  16.679 -1.0211  0.5804 -0.2253
 8809TIP3    H247843   6.748   3.760  16.793  0.3133  0.6472  0.0275
 8810TIP3   OH247844   2.191   1.335   0.223  0.1601 -0.0958 -0.1934
 8810TIP3    H147845   2.121   1.325   0.287  0.1565 -1.0364 -0.3313
 8810TIP3    H247846   2.168   1.414   0.173  0.2146  0.7116  1.0089
 8811TIP3   OH247847   0.250   5.632  13.441 -0.3824  0.3655 -0.0733
 8811TIP3    H147848   0.238   5.726  13.430  0.6705  0.6289  0.8544
 8811TIP3    H247849   0.317   5.624  13.509 -0.8113 -1.0568  0.2186
 8812TIP3   OH247850   1.968   5.754   4.587 -0.9060 -0.6191  0.3960
 8812TIP3    H147851   1.930   5.722   4.505 -3.3644 -1.7644  1.8672
 8812TIP3    H247852   1.895   5.796   4.632  1.2734  3.9593  0.2829
 8813TIP3   OH247853   0.103   3.372  16.459 -0.1361  0.4598  0.0255
 8813TIP3    H147854   0.020   3.416  16.441 -0.5656 -0.7950 -1.2069
 8813TIP3    H247855   0.088   3.281  16.434  1.2828 -0.0201  0.8136
 8814TIP3   OH247856   2.108   4.750  17.388  0.6323  0.3476  0.4444
 8814TIP3    H147857   2.103   4.832  17.437 -0.5080  0.7209 -0.2485
 8814TIP3    H247858   2.191   4.756  17.341  0.9607  0.7133  1.0578
 8815TIP3   OH247859   2.029   6.618   3.302  0.4151  0.5096 -0.1767
 8815TIP3    H147860   2.062   6.682   3.365 -0.9129 -0.1026  1.1929
 8815TIP3    H247861   1.934   6.623   3.311  0.2355 -0.2876 -1.4564
 8816TIP3   OH247862   4.639   4.711   0.853  0.5457 -0.7724  0.0108
 8816TIP3    H147863   4.627   4.802   0.826 -0.1281  0.0709  2.7992
 8816TIP3    H247864   4.728   4.690   0.826  1.3845  1.3708  0.8668
 8817TIP3   OH247865   5.851   3.885   2.691  0.1054  0.0447 -0.0085
 8817TIP3    H147866   5.789   3.817   2.664  1.6619 -1.6936  0.4959
 8817TIP3    H247867   5.831   3.900   2.784 -0.0475  0.0340 -0.0404
 8818TIP3   OH247868   0.160   2.702   3.476 -0.4210 -0.3703 -0.3214
 8818TIP3    H147869   0.093   2.634   3.466 -0.6301 -0.1346 -0.5403
 8818TIP3    H247870   0.239   2.664   3.438 -0.5182 -0.5157 -0.3800
 8819TIP3   OH247871   5.010   1.056   0.660 -0.1447  0.2553  0.6076
 8819TIP3    H147872   5.072   1.127   0.672 -0.3709  1.0678 -2.2019
 8819TIP3    H247873   4.975   1.069   0.572 -2.6441 -1.4677  1.2153
 8820TIP3   OH247874   5.507   5.961   0.705 -0.3863 -0.1755  0.6725
 8820TIP3    H147875   5.501   6.056   0.696 -0.1808 -0.1977  0.3066
 8820TIP3    H247876   5.426   5.928   0.666 -0.9392 -0.0997  1.7093
 8821TIP3   OH247877   0.533   3.961  14.074  0.3291 -0.0476 -0.1985
 8821TIP3    H147878   0.441   3.960  14.103  0.6670  0.8102  0.9904
 8821TIP3    H247879   0.528   3.951  13.979 -0.9158 -1.4604 -0.0249
 8822TIP3   OH247880   3.272   3.727  16.833 -0.2254 -0.3933  0.5298
 8822TIP3    H147881   3.298   3.641  16.800  0.8871  0.6802 -1.5590
 8822TIP3    H247882   3.354   3.774  16.846 -0.8107  1.7609 -2.4942
 8823TIP3   OH247883   3.186   1.529  15.891 -0.5432  0.4781  0.0112
 8823TIP3    H147884   3.274   1.496  15.905 -0.3180  1.7214  1.8556
 8823TIP3    H247885   3.135   1.496  15.965 -1.5560  0.0952 -0.8220
 8824TIP3   OH247886   4.991   5.836  12.497  0.0681  0.0222  0.3888
 8824TIP3    H147887   4.907   5.835  12.450 -0.3439 -1.8761  1.0677
 8824TIP3    H247888   4.967   5.856  12.587  0.2962 -0.8241  0.6428
 8825TIP3   OH247889   5.979   5.766   3.413 -0.1755 -0.1278 -0.2583
 8825TIP3    H147890   5.948   5.686   3.455 -1.0977  0.2031 -0.2817
 8825TIP3    H247891   6.057   5.740   3.364  1.5066 -0.3896  2.3464
 8826TIP3   OH247892   0.676   5.720  13.287  0.1004 -0.6260  0.5386
 8826TIP3    H147893   0.697   5.710  13.380  0.2788 -1.0367  0.4560
 8826TIP3    H247894   0.704   5.810  13.266 -1.8995  0.2524  1.3836
 8827TIP3   OH247895   5.748   4.747  14.280  0.0516 -0.0378 -0.1655
 8827TIP3    H147896   5.827   4.730  14.229 -0.4786 -0.6455 -0.8294
 8827TIP3    H247897   5.771   4.817  14.340  0.0304  2.5812 -2.9527
 8828TIP3   OH247898   3.441   2.480  15.578 -0.3398 -0.0623 -0.3261
 8828TIP3    H147899   3.473   2.552  15.524 -1.7977 -0.0584 -1.2420
 8828TIP3    H247900   3.436   2.517  15.666 -0.5931  0.8107 -0.6950
 8829TIP3   OH247901   6.437   4.449   2.235 -0.8007  0.3645 -0.0491
 8829TIP3    H147902   6.433   4.431   2.141 -0.8924 -1.6808  0.2932
 8829TIP3    H247903   6.351   4.487   2.256 -0.6066  1.2801 -0.8508
 8830TIP3   OH247904   5.525   4.472  17.089 -0.9077 -0.3142 -0.0039
 8830TIP3    H147905   5.438   4.499  17.119 -0.2871 -0.2270  1.8278
 8830TIP3    H247906   5.583   4.488  17.164  0.8664  0.4224 -1.4334
 8831TIP3   OH247907   3.778   0.897  11.496 -0.0787  0.3299 -0.2056
 8831TIP3    H147908   3.863   0.932  11.522  0.0863  0.2887 -0.6802
 8831TIP3    H247909   3.791   0.867  11.406 -0.4311 -0.2386 -0.0709
 8832TIP3   OH247910   5.415   0.523   0.212 -0.4058 -0.1782  0.5512
 8832TIP3    H147911   5.357   0.596   0.188  0.4127  0.6796  1.1104
 8832TIP3    H247912   5.361   0.467   0.267 -0.6595  0.7255  1.2539
 8833TIP3   OH247913   6.119   5.654  11.097 -0.2442  0.1035  0.2990
 8833TIP3    H147914   6.134   5.731  11.043 -2.0357 -0.5907 -1.3200
 8833TIP3    H247915   6.095   5.585  11.035 -0.1930 -1.3493  1.8173
 8834TIP3   OH247916   5.317   1.277  17.049 -0.5139 -0.5069 -0.3682
 8834TIP3    H147917   5.225   1.267  17.026 -1.1146  0.6383  1.3559
 8834TIP3    H247918   5.342   1.191  17.083 -0.8429 -0.8973 -1.0661
 8835TIP3   OH247919   5.751   3.314   5.519 -0.7262  0.1455  0.1133
 8835TIP3    H147920   5.844   3.299   5.533 -0.1837  2.0336 -1.1523
 8835TIP3    H247921   5.724   3.244   5.460  0.2760  0.4902 -0.7819
 8836TIP3   OH247922   5.133   6.116   3.123 -0.5056  0.2931 -0.2955
 8836TIP3    H147923   5.175   6.109   3.209  3.0178 -1.7878 -1.9372
 8836TIP3    H247924   5.176   6.190   3.081 -1.0699  0.3354 -0.8192
 8837TIP3   OH247925   4.235   3.704   4.455  0.5624 -0.7251 -0.0619
 8837TIP3    H147926   4.188   3.679   4.534  0.8471 -0.2843  0.2509
 8837TIP3    H247927   4.241   3.623   4.404 -1.4346 -0.5876 -0.5944
 8838TIP3   OH247928   3.681   2.571  16.574  0.5235 -0.0758 -0.1701
 8838TIP3    H147929   3.692   2.524  16.657  3.7201  1.0890  0.1907
 8838TIP3    H247930   3.673   2.502  16.508  1.2002 -1.0967  0.7732
 8839TIP3   OH247931   1.623   1.657  14.367 -0.5667  0.0428  0.2647
 8839TIP3    H147932   1.615   1.670  14.272 -1.4209 -0.4651  0.2576
 8839TIP3    H247933   1.712   1.684  14.387 -0.1364 -0.5179 -0.8007
 8840TIP3   OH247934   0.153   3.829  13.968 -0.3084  0.2405  0.4465
 8840TIP3    H147935   0.168   3.883  14.045 -0.2973 -0.4815  0.9600
 8840TIP3    H247936   0.096   3.758  13.998 -1.3310  0.6225 -0.5024
 8841TIP3   OH247937   6.285   3.361  16.721  0.0436 -0.1819  0.1662
 8841TIP3    H147938   6.358   3.376  16.661 -0.1372  0.5219  0.1089
 8841TIP3    H247939   6.232   3.295  16.677  0.6434 -0.7092  0.2119
 8842TIP3   OH247940   4.542   1.655   3.760  0.4231 -0.2596 -0.4479
 8842TIP3    H147941   4.628   1.646   3.800 -0.5761  0.3849  2.0489
 8842TIP3    H247942   4.541   1.743   3.723  0.5374  0.0904  0.3659
 8843TIP3   OH247943   2.197   4.334   5.056  0.2935  0.7137 -0.0955
 8843TIP3    H147944   2.258   4.302   5.122  1.8318  3.0122 -0.2729
 8843TIP3    H247945   2.132   4.264   5.046  2.1847 -1.3086  1.0300
 8844TIP3   OH247946   5.837   3.260   0.128  0.3253  0.6931  0.4731
 8844TIP3    H147947   5.751   3.223   0.105  0.5309  1.5539 -1.9500
 8844TIP3    H247948   5.820   3.353   0.142  0.7633  0.7312  0.7630
 8845TIP3   OH247949   0.842   5.860   3.428 -0.0787 -0.2162  0.0880
 8845TIP3    H147950   0.752   5.849   3.457 -0.4116  1.4337 -0.2065
 8845TIP3    H247951   0.838   5.925   3.358  1.2883 -0.4803 -0.2828
 8846TIP3   OH247952   4.273   2.013  12.842  0.8406 -0.1953 -0.4588
 8846TIP3    H147953   4.309   1.929  12.812  2.4636  0.1373  0.4272
 8846TIP3    H247954   4.329   2.038  12.915 -1.7724 -0.0425  1.6572
 8847TIP3   OH247955   2.217   2.480   0.583  0.6534 -0.6835 -0.3925
 8847TIP3    H147956   2.191   2.516   0.499  2.2749 -0.4958 -0.8478
 8847TIP3    H247957   2.296   2.529   0.607 -0.9658  0.8946  2.3493
 8848TIP3   OH247958   4.179   0.194  17.244  0.0792 -0.6202 -0.6389
 8848TIP3    H147959   4.176   0.175  17.150  0.8511 -1.6320 -0.4695
 8848TIP3    H247960   4.262   0.157  17.274  0.4860  0.8851  0.1977
 8849TIP3   OH247961   4.921   5.932   0.292  0.1945  0.2279  0.1910
 8849TIP3    H147962   4.958   5.982   0.365  2.3609 -2.7346  1.3177
 8849TIP3    H247963   4.943   5.984   0.214  0.2147  2.1556  1.4222
 8850TIP3   OH247964   5.294   1.156  16.214  0.2973 -0.3935  0.4057
 8850TIP3    H147965   5.372   1.151  16.269 -0.0263  2.1482  1.2502
 8850TIP3    H247966   5.221   1.146  16.274 -0.0384  0.6979  0.2143
 8851TIP3   OH247967   3.373   2.757  14.001 -0.2014  0.3972 -0.2450
 8851TIP3    H147968   3.417   2.744  13.916  1.2713 -0.6342  0.6185
 8851TIP3    H247969   3.280   2.767  13.979  0.0950 -0.2637 -1.9488
 8852TIP3   OH247970   4.526   2.562   0.387 -0.3343 -0.4255  0.2810
 8852TIP3    H147971   4.586   2.500   0.345  0.0231 -0.4635  0.8345
 8852TIP3    H247972   4.525   2.535   0.479 -0.8637 -0.1549  0.3571
 8853TIP3   OH247973   5.658   4.219  10.778 -0.2340  0.3393 -0.3422
 8853TIP3    H147974   5.675   4.272  10.855  2.4463 -0.2987 -0.3908
 8853TIP3    H247975   5.704   4.264  10.707  2.2302 -1.9707 -0.3655
 8854TIP3   OH247976   5.617   3.949  11.921 -0.1158  0.1192  0.1593
 8854TIP3    H147977   5.631   3.969  12.013  0.1088 -1.1505  0.4227
 8854TIP3    H247978   5.567   3.867  11.921 -0.8894  0.5680 -0.8433
 8855TIP3   OH247979   6.234   2.651  14.011  0.3801  0.0700 -0.1376
 8855TIP3    H147980   6.149   2.666  13.970  0.2134 -0.4402  0.0079
 8855TIP3    H247981   6.244   2.556  14.010  0.8950  0.1214 -0.0418
 8856TIP3   OH247982   1.266   3.613  15.290  0.7261 -0.1225 -0.7707
 8856TIP3    H147983   1.208   3.635  15.217  1.9411 -2.0130 -2.3933
 8856TIP3    H247984   1.213   3.555  15.345 -0.2144  1.3530 -0.0394
 8857TIP3   OH247985   5.246   5.948   6.069  0.2465  0.0967  0.2305
 8857TIP3    H147986   5.264   5.892   6.144 -0.5732  2.8468  2.6560
 8857TIP3    H247987   5.160   5.986   6.086  1.1759  2.8734 -0.6712
 8858TIP3   OH247988   0.130   0.591  12.884 -0.2045  0.1699  0.3302
 8858TIP3    H147989   0.076   0.658  12.926 -1.9929 -0.2127 -1.1838
 8858TIP3    H247990   0.147   0.527  12.952 -0.6936  0.8764  1.1380
 8859TIP3   OH247991   6.643   5.603   1.619 -0.3996  0.2016 -0.1618
 8859TIP3    H147992   6.715   5.580   1.561 -0.6098 -2.7815  0.6122
 8859TIP3    H247993   6.683   5.656   1.688  0.1226  2.4538 -2.0541
 8860TIP3   OH247994   3.572   3.044  15.304 -0.0122 -0.2466  0.2288
 8860TIP3    H147995   3.664   3.016  15.301  0.6846  1.8789  0.2939
 8860TIP3    H247996   3.536   3.017  15.220  0.6790 -1.0256  0.1638
 8861TIP3   OH247997   3.123   5.149  15.420  0.3946  0.8809  1.0703
 8861TIP3    H147998   3.157   5.214  15.481  0.7199  2.1118 -0.3504
 8861TIP3    H247999   3.183   5.154  15.345 -1.6313  1.5775 -0.6138
 8862TIP3   OH248000   3.140   1.550   2.754 -0.0561  0.2595  0.0423
 8862TIP3    H148001   3.228   1.570   2.721 -0.2093  0.6588 -0.1383
 8862TIP3    H248002   3.083   1.565   2.678 -0.3009  0.2069  0.2171
 8863TIP3   OH248003   6.022   1.936  13.925  1.0620 -0.1907 -0.1267
 8863TIP3    H148004   6.066   2.020  13.934  0.3186  0.3488 -1.3069
 8863TIP3    H248005   6.041   1.908  13.835 -2.7044  1.1424 -1.5582
 8864TIP3   OH248006   2.176   4.945   0.865  0.2708 -0.3349 -0.4181
 8864TIP3    H148007   2.099   4.890   0.880  0.3181 -0.5206 -0.8463
 8864TIP3    H248008   2.151   5.004   0.794  0.0959  0.4522  0.2752
 8865TIP3   OH248009   0.438   2.843   6.751  0.5843  0.0354  0.3744
 8865TIP3    H148010   0.405   2.905   6.686 -0.4843 -0.4827  0.4050
 8865TIP3    H248011   0.480   2.774   6.700  0.5365  0.0823  0.2716
 8866TIP3   OH248012   4.035   5.826  16.205 -0.4482 -0.4266  0.4735
 8866TIP3    H148013   4.107   5.856  16.261 -0.1432  0.5797 -0.4244
 8866TIP3    H248014   4.078   5.778  16.134 -0.7989 -1.3058  0.8473
 8867TIP3   OH248015   2.590   2.279   2.745  0.3400 -0.2734  0.1047
 8867TIP3    H148016   2.540   2.287   2.663  0.6963 -0.2143 -0.1101
 8867TIP3    H248017   2.604   2.369   2.773  0.5581 -0.2824  0.0228
 8868TIP3   OH248018   5.753   5.458  13.436  0.2851  0.3787  0.0661
 8868TIP3    H148019   5.809   5.536  13.436  1.0096 -0.1079  1.8682
 8868TIP3    H248020   5.809   5.389  13.400 -0.2424  0.5736 -1.1877
 8869TIP3   OH248021   5.106   6.692  11.078 -0.3712  0.1012 -0.0125
 8869TIP3    H148022   5.057   6.773  11.068 -1.0707 -0.2208  0.7401
 8869TIP3    H248023   5.083   6.640  11.000 -1.6634 -0.2643  0.5868
 8870TIP3   OH248024   2.572   3.060   0.870 -0.1223  0.2921  0.0420
 8870TIP3    H148025   2.579   3.054   0.965 -1.1288 -1.6862  0.0476
 8870TIP3    H248026   2.488   3.020   0.849 -0.2215  1.2542 -1.6595
 8871TIP3   OH248027   1.699   4.103  12.701  0.2990  0.3596 -0.1815
 8871TIP3    H148028   1.761   4.145  12.762  1.6765 -0.4253 -0.9841
 8871TIP3    H248029   1.752   4.085  12.623  0.1968 -3.9906  0.5472
 8872TIP3   OH248030   2.467   2.115  10.825  0.2885  0.1854  0.1591
 8872TIP3    H148031   2.464   2.206  10.796  0.3532 -0.1805 -1.0544
 8872TIP3    H248032   2.383   2.078  10.795  0.3670 -0.2128  0.4261
 8873TIP3   OH248033   4.967   6.453   3.608 -0.1333 -0.0583 -0.1486
 8873TIP3    H148034   4.965   6.410   3.523 -0.6479  0.0220 -0.1749
 8873TIP3    H248035   4.877   6.481   3.624 -0.3571 -1.3223  1.0435
 8874TIP3   OH248036   0.767   0.235  13.797 -0.1850 -0.3914  0.3303
 8874TIP3    H148037   0.690   0.210  13.747  1.6513 -0.1726 -2.9548
 8874TIP3    H248038   0.801   0.153  13.832 -0.2659 -0.9640 -0.8725
 8875TIP3   OH248039   0.667   6.677  16.830 -0.1096 -0.1325  0.1697
 8875TIP3    H148040   0.710   6.706  16.910  0.4363  0.9990 -0.5011
 8875TIP3    H248041   0.738   6.671  16.765 -0.2072 -2.9188  0.2085
 8876TIP3   OH248042   3.221   0.262   4.200  0.5481  0.0191  0.0930
 8876TIP3    H148043   3.257   0.178   4.171  0.2425 -0.1059  0.0769
 8876TIP3    H248044   3.190   0.245   4.289  1.0206  0.2694  0.3070
 8877TIP3   OH248045   4.995   3.277  13.569 -0.3592 -0.3517  0.0938
 8877TIP3    H148046   5.011   3.201  13.513  0.1587 -1.1520  1.2949
 8877TIP3    H248047   4.966   3.345  13.508  0.2219 -1.1723 -1.1526
 8878TIP3   OH248048   1.159   6.617   0.780 -0.1087 -0.8245 -0.0829
 8878TIP3    H148049   1.124   6.626   0.868  0.5499  1.6161  0.0057
 8878TIP3    H248050   1.090   6.651   0.723 -0.0637 -1.2776 -0.4133
 8879TIP3   OH248051   2.792   4.783  13.113 -0.1925 -0.0311 -0.1431
 8879TIP3    H148052   2.705   4.744  13.122 -0.3060  0.2236 -0.1075
 8879TIP3    H248053   2.852   4.709  13.111 -0.4958 -0.2657 -1.1414
 8880TIP3   OH248054   6.459   0.702  14.176  0.3254 -0.4513 -0.2806
 8880TIP3    H148055   6.546   0.706  14.215 -0.9534  1.8689  2.7121
 8880TIP3    H248056   6.475   0.671  14.087  4.0760 -0.9634  0.3854
 8881TIP3   OH248057   3.396   0.831   3.067  0.1103  0.0351 -0.3837
 8881TIP3    H148058   3.475   0.801   3.021  1.2694 -0.0372  1.5509
 8881TIP3    H248059   3.423   0.838   3.158 -2.4599 -1.1024  0.5446
 8882TIP3   OH248060   0.229   3.487   5.403 -0.0634  0.7351 -0.4400
 8882TIP3    H148061   0.158   3.495   5.468  0.6085 -2.3073  0.8816
 8882TIP3    H248062   0.307   3.518   5.448  0.5227 -1.9508  0.6422
 8883TIP3   OH248063   4.708   0.868   5.532  0.4901  0.8374  0.1284
 8883TIP3    H148064   4.704   0.928   5.457 -2.5794 -0.3130 -0.7927
 8883TIP3    H248065   4.640   0.900   5.592  1.1784  0.2703  1.2366
 8884TIP3   OH248066   0.827   1.106   2.569 -0.0257  0.2347 -0.1207
 8884TIP3    H148067   0.778   1.049   2.629  1.0589  2.6080  3.3418
 8884TIP3    H248068   0.914   1.067   2.564 -0.9330 -1.6867 -2.8915
 8885TIP3   OH248069   0.416   0.041   2.870  0.1399  0.0282  0.3998
 8885TIP3    H148070   0.426  -0.051   2.897  0.6878 -0.2510 -0.6909
 8885TIP3    H248071   0.332   0.068   2.908  1.1712 -0.0785  3.0136
 8886TIP3   OH248072   6.463   6.191   4.075  0.2367 -0.3991 -0.0175
 8886TIP3    H148073   6.372   6.218   4.090  0.5718  0.3283  0.8343
 8886TIP3    H248074   6.513   6.273   4.078  0.7939 -0.6226 -1.7659
 8887TIP3   OH248075   3.575   5.611   2.986  0.3474  0.0510 -0.6448
 8887TIP3    H148076   3.649   5.569   2.942  0.4663  0.2927 -0.6764
 8887TIP3    H248077   3.505   5.545   2.984  1.1035 -0.8702  0.9471
 8888TIP3   OH248078   4.877   2.032   1.404  0.1162  0.5949  0.0080
 8888TIP3    H148079   4.847   1.947   1.373 -0.3989  0.0842  1.7918
 8888TIP3    H248080   4.948   2.012   1.464  1.9068  1.6277 -1.6677
 8889TIP3   OH248081   0.122   5.021  16.104 -0.1603 -0.1070  0.1540
 8889TIP3    H148082   0.062   5.088  16.138  0.0354  0.4093 -0.4959
 8889TIP3    H248083   0.089   4.939  16.141 -3.5424 -0.4032 -2.9534
 8890TIP3   OH248084   5.226   2.887   4.182 -0.0361  0.3035 -0.0690
 8890TIP3    H148085   5.238   2.814   4.242  0.1273 -0.2320 -0.7378
 8890TIP3    H248086   5.219   2.964   4.239 -2.9761 -0.5112  0.8357
 8891TIP3   OH248087   0.227   4.765   4.732 -0.4498 -0.2874  0.0862
 8891TIP3    H148088   0.258   4.833   4.792  1.6399 -0.7684 -0.3718
 8891TIP3    H248089   0.267   4.684   4.766 -2.5510 -1.2796  0.3876
 8892TIP3   OH248090   1.381   4.582  16.210 -0.0577  0.4996 -0.1493
 8892TIP3    H148091   1.471   4.554  16.229 -0.2649  0.3406  0.6370
 8892TIP3    H248092   1.379   4.675  16.232 -0.4978  0.1496  1.4182
 8893TIP3   OH248093   1.087   3.387  17.266  0.5165  0.3485 -0.3407
 8893TIP3    H148094   1.114   3.295  17.269 -1.3843 -0.2185  1.0314
 8893TIP3    H248095   1.064   3.402  17.174  1.7246 -0.2400 -0.7584
 8894TIP3   OH248096   0.758   2.605  13.903  0.0206  0.8706 -0.0768
 8894TIP3    H148097   0.732   2.653  13.825 -3.2076 -3.0511 -1.7152
 8894TIP3    H248098   0.840   2.562  13.879  0.0355  1.1872 -0.5948
 8895TIP3   OH248099   5.443   2.015  10.987  0.6604  0.5052  0.7900
 8895TIP3    H148100   5.445   1.993  10.894  0.6415 -3.0995  1.4916
 8895TIP3    H248101   5.521   2.068  11.001  0.8878  0.7842 -1.1872
 8896TIP3   OH248102   1.977   2.660  13.142 -0.4206  0.1811 -0.0632
 8896TIP3    H148103   1.949   2.665  13.233 -0.0196 -3.0167  0.3538
 8896TIP3    H248104   2.052   2.720  13.136 -1.1195  1.2668  1.3725
 8897TIP3   OH248105   2.977   4.519  13.827 -0.4221  0.4998  0.3516
 8897TIP3    H148106   2.936   4.483  13.748 -0.3714 -0.4556  0.7378
 8897TIP3    H248107   3.029   4.446  13.862 -1.1806  0.6034  1.7694
 8898TIP3   OH248108   0.629   1.849   4.017  0.5299 -0.1442  0.3903
 8898TIP3    H148109   0.562   1.909   3.985 -0.7235 -1.9768 -0.5346
 8898TIP3    H248110   0.583   1.767   4.034  2.3622 -1.1613  0.7076
 8899TIP3   OH248111   5.003   1.017   1.679 -0.0019 -0.0214  0.1100
 8899TIP3    H148112   5.038   1.007   1.767 -0.4285 -0.7234  0.2120
 8899TIP3    H248113   5.004   0.928   1.643  0.2962  0.2859 -0.6379
 8900TIP3   OH248114   5.975   0.034  15.912  0.1145 -0.2805  0.1370
 8900TIP3    H148115   5.978   0.056  16.006 -2.4263  0.2076  0.1780
 8900TIP3    H248116   5.990  -0.060  15.910  0.7111 -0.2201  0.9852
 8901TIP3   OH248117   4.506   4.916  12.551 -0.0978 -0.3593  0.1954
 8901TIP3    H148118   4.462   4.849  12.604 -0.3448  0.1604  0.6570
 8901TIP3    H248119   4.453   4.921  12.471 -0.6193 -0.0707  0.5485
 8902TIP3   OH248120   4.136   1.718  17.046 -0.1349 -0.2667 -0.4081
 8902TIP3    H148121   4.075   1.693  16.976 -0.3600 -0.3608 -0.1812
 8902TIP3    H248122   4.209   1.760  17.001  0.4101 -1.6272 -0.8252
 8903TIP3   OH248123   3.341   4.766   2.991  0.5840  0.7324  0.2962
 8903TIP3    H148124   3.359   4.717   3.071  0.5512  0.5746  0.2082
 8903TIP3    H248125   3.360   4.704   2.920  0.3242  0.7726  0.1886
 8904TIP3   OH248126   3.583   3.260  13.954 -0.4959 -0.3551  0.0731
 8904TIP3    H148127   3.492   3.286  13.971 -0.7057 -0.7112 -0.4883
 8904TIP3    H248128   3.577   3.191  13.888  0.0541 -1.7361  1.3873
 8905TIP3   OH248129   2.566   0.946   3.114  0.8198  0.2467  0.1559
 8905TIP3    H148130   2.654   0.910   3.107  1.2646  1.4532 -0.6896
 8905TIP3    H248131   2.562   0.986   3.201  1.9323  2.2036 -0.6276
 8906TIP3   OH248132   6.672   0.257   4.599  0.2705 -0.1963 -0.8089
 8906TIP3    H148133   6.633   0.204   4.668  1.1308  1.4063  1.0214
 8906TIP3    H248134   6.733   0.199   4.554 -3.1393 -2.4660 -3.0374
 8907TIP3   OH248135   3.350   2.862   4.023 -0.6604  0.0482 -0.0056
 8907TIP3    H148136   3.366   2.938   4.079 -2.2252 -0.0622  0.6621
 8907TIP3    H248137   3.433   2.815   4.020  0.5160  2.0741 -0.9302
 8908TIP3   OH248138   5.454   0.379   3.275 -0.2368  0.2598  0.0888
 8908TIP3    H148139   5.382   0.427   3.316 -0.2833  0.8440 -0.6559
 8908TIP3    H248140   5.454   0.294   3.319 -1.2553  0.3188  0.2336
 8909TIP3   OH248141   3.264   5.881   0.519 -1.0262  0.0840 -0.0547
 8909TIP3    H148142   3.208   5.918   0.587 -1.0423  0.0050 -0.0245
 8909TIP3    H248143   3.340   5.939   0.515 -0.6418 -0.3682  0.5962
 8910TIP3   OH248144   6.414   2.291   3.917 -0.0763  0.2085  0.1318
 8910TIP3    H148145   6.470   2.266   3.844  0.5767 -0.8662  0.9711
 8910TIP3    H248146   6.473   2.301   3.991 -0.9974 -1.4209  1.1586
 8911TIP3   OH248147   5.039   1.225  16.945  0.1119 -0.2913 -0.4110
 8911TIP3    H148148   4.992   1.296  16.990 -0.1933  0.5661 -2.0094
 8911TIP3    H248149   5.002   1.145  16.982 -1.7218  0.3731 -0.6832
 8912TIP3   OH248150   2.165   6.353  14.831  0.2675 -0.1919  0.0464
 8912TIP3    H148151   2.079   6.334  14.793  0.0306  0.3845  0.2897
 8912TIP3    H248152   2.168   6.448  14.837  0.2051 -0.2709  1.6885
 8913TIP3   OH248153   6.364   6.521   4.024  0.2372 -1.0080 -0.1552
 8913TIP3    H148154   6.283   6.481   3.993 -0.1357  1.1364 -2.2727
 8913TIP3    H248155   6.422   6.520   3.948  1.4607 -0.6694  0.7399
 8914TIP3   OH248156   0.008   2.925   4.181  0.2233  0.1992  0.2023
 8914TIP3    H148157   0.021   2.973   4.263  0.0086  0.6033  0.0006
 8914TIP3    H248158  -0.037   2.845   4.207  1.0914 -0.1695  0.6177
 8915TIP3   OH248159   4.608   5.572  16.079 -0.6371 -0.2644  0.3574
 8915TIP3    H148160   4.625   5.601  15.990 -0.9997 -1.7357 -0.2194
 8915TIP3    H248161   4.650   5.486  16.085 -0.4468 -0.1151  1.6776
 8916TIP3   OH248162   0.923   1.531  11.803  0.1925 -0.1414  0.1043
 8916TIP3    H148163   1.008   1.518  11.846 -0.0251 -1.4790  0.1548
 8916TIP3    H248164   0.864   1.556  11.874  0.5978  1.1343  0.0176
 8917TIP3   OH248165   4.354   3.627   0.457  0.6425  0.2502  0.4222
 8917TIP3    H148166   4.444   3.626   0.425  0.9723  2.6407  1.1200
 8917TIP3    H248167   4.313   3.701   0.413 -0.6907 -0.1604  0.9179
 8918TIP3   OH248168   0.419   4.020   2.060 -0.1185 -0.3589 -0.5178
 8918TIP3    H148169   0.324   4.027   2.049  0.1703 -0.2383 -3.6623
 8918TIP3    H248170   0.434   3.927   2.080 -0.8357 -0.5541 -0.8503
 8919TIP3   OH248171   0.034   5.242   0.013  0.4132  0.5105 -0.4769
 8919TIP3    H148172   0.019   5.179   0.083 -0.2874 -1.2947 -2.1336
 8919TIP3    H248173   0.129   5.254   0.010  0.4444  0.6333  0.7720
 8920TIP3   OH248174   6.013   4.531   2.076  0.3061  0.3498  0.0240
 8920TIP3    H148175   5.934   4.476   2.075 -0.8412  1.9239  0.5198
 8920TIP3    H248176   6.074   4.483   2.133 -1.3402  0.4349  1.9871
 8921TIP3   OH248177   4.032   0.724   3.089  0.4406  0.2100  0.1945
 8921TIP3    H148178   4.063   0.656   3.030 -1.3323  0.6274 -1.3076
 8921TIP3    H248179   3.991   0.789   3.032  1.4775  2.2367  1.6232
 8922TIP3   OH248180   1.694   5.681  15.608 -0.4345  0.0938 -0.0089
 8922TIP3    H148181   1.633   5.609  15.594  0.2373 -0.6533  0.7668
 8922TIP3    H248182   1.765   5.642  15.659  0.4822  1.0412 -0.5245
 8923TIP3   OH248183   0.044   4.278   3.147 -0.1973  0.8842  0.5079
 8923TIP3    H148184   0.001   4.267   3.063  1.0075  1.3402 -0.1941
 8923TIP3    H248185   0.016   4.364   3.178  0.4717  1.3443 -0.1267
 8924TIP3   OH248186   4.771   1.751  15.296 -0.6331  0.0314  0.2509
 8924TIP3    H148187   4.682   1.726  15.318 -0.5489  0.1697  0.7603
 8924TIP3    H248188   4.761   1.833  15.248 -0.7606  0.2167  0.5903
 8925TIP3   OH248189   4.236   1.772   3.199 -0.0141  0.4994  0.1793
 8925TIP3    H148190   4.149   1.812   3.189  0.4601  1.6274  0.3388
 8925TIP3    H248191   4.288   1.810   3.128 -0.3444 -2.3195 -1.6926
 8926TIP3   OH248192   4.860   0.299  12.986  0.8049  0.1515 -0.3737
 8926TIP3    H148193   4.880   0.361  13.057 -1.0729  1.4951 -0.9229
 8926TIP3    H248194   4.901   0.338  12.908  0.4050  0.2340 -0.5471
 8927TIP3   OH248195   4.661   3.788   4.266 -0.1116 -0.0893 -0.0457
 8927TIP3    H148196   4.666   3.748   4.179 -1.7453  0.2459 -0.3315
 8927TIP3    H248197   4.712   3.868   4.259 -0.2096 -0.0770 -0.6924
 8928TIP3   OH248198   2.372   5.149   0.838 -0.0743 -0.4964  0.3726
 8928TIP3    H148199   2.403   5.115   0.754  3.2807 -0.6011  1.5036
 8928TIP3    H248200   2.318   5.079   0.875  0.1476 -1.2908 -0.7609
 8929TIP3   OH248201   1.967   5.023   1.547  0.6650  0.3941 -0.1063
 8929TIP3    H148202   2.001   5.089   1.607  1.9877 -0.6994  0.4061
 8929TIP3    H248203   2.045   4.991   1.501 -0.3084  1.1481 -2.3768
 8930TIP3   OH248204   0.499   2.650   5.212  0.3423  0.2054  0.4724
 8930TIP3    H148205   0.496   2.562   5.173 -0.5005  0.3056  0.2984
 8930TIP3    H248206   0.540   2.705   5.146 -0.1487  0.1665  0.1333
 8931TIP3   OH248207   4.499   6.464   5.388 -0.6449  0.0801  0.3131
 8931TIP3    H148208   4.441   6.440   5.316 -1.4046 -0.1879  0.9967
 8931TIP3    H248209   4.479   6.401   5.457  0.0923  0.3105  0.7454
 8932TIP3   OH248210   6.685   5.637  16.500 -0.5261  0.0146 -0.1353
 8932TIP3    H148211   6.693   5.666  16.591 -0.9180  0.7360 -0.3260
 8932TIP3    H248212   6.600   5.592  16.497 -0.7559  0.4421 -0.2518
 8933TIP3   OH248213   3.578   0.626  16.793 -0.7112 -0.4089 -0.3799
 8933TIP3    H148214   3.669   0.651  16.808 -0.8936  0.2742 -0.3683
 8933TIP3    H248215   3.544   0.606  16.881 -0.0304 -2.6913 -0.5629
 8934TIP3   OH248216   5.871   5.720   5.403 -0.2131 -0.4942 -0.7101
 8934TIP3    H148217   5.936   5.649   5.411 -1.2368 -1.3106  0.8237
 8934TIP3    H248218   5.793   5.677   5.370 -0.7716 -0.0368 -0.0028
 8935TIP3   OH248219   6.649   6.083   3.889 -0.1152  0.0382  0.3652
 8935TIP3    H148220   6.607   6.089   3.975  0.7529 -0.1708  0.8055
 8935TIP3    H248221   6.694   6.166   3.878 -0.4243  0.1632 -0.0054
 8936TIP3   OH248222   0.514   2.522   6.340 -0.0917  0.0057  0.0691
 8936TIP3    H148223   0.449   2.578   6.383 -1.2494 -1.3485  0.1509
 8936TIP3    H248224   0.463   2.452   6.300  1.2817 -0.7526 -0.4250
 8937TIP3   OH248225   5.292   4.271   4.507 -0.1559  0.4655 -0.0586
 8937TIP3    H148226   5.320   4.320   4.585 -1.7464  0.5506  0.5035
 8937TIP3    H248227   5.373   4.237   4.470  0.6056 -0.3298  2.1506
 8938TIP3   OH248228   3.818   0.430   1.919  0.9322 -0.1379 -0.5632
 8938TIP3    H148229   3.906   0.445   1.954  1.3332 -0.1472 -1.5302
 8938TIP3    H248230   3.771   0.512   1.935 -0.1746 -1.3042  3.4633
 8939TIP3   OH248231   2.614   2.699  16.989 -0.2660  0.3566  0.4155
 8939TIP3    H148232   2.524   2.730  16.996  0.0499  1.1324  1.3742
 8939TIP3    H248233   2.614   2.615  17.034 -1.0713 -0.9982 -1.9629
 8940TIP3   OH248234   4.743   6.032  11.365 -0.2195  0.1806  0.9319
 8940TIP3    H148235   4.783   6.077  11.290  1.7445  0.8106  2.2679
 8940TIP3    H248236   4.756   5.939  11.346  2.7066  0.3520  1.6156
 8941TIP3   OH248237   2.958   0.066   2.571 -0.0301  0.4828  0.2220
 8941TIP3    H148238   2.968   0.037   2.662 -0.9205 -0.8242 -0.0653
 8941TIP3    H248239   2.866   0.092   2.565  0.0045  0.4772 -0.3302
 8942TIP3   OH248240   6.061   4.653   1.622 -0.1075  0.1742  0.5106
 8942TIP3    H148241   6.014   4.613   1.695  0.3460  1.1216  1.3507
 8942TIP3    H248242   6.153   4.646   1.646  0.0701  0.1043 -0.1760
 8943TIP3   OH248243   4.366   3.421   6.810 -0.5507 -0.0110  0.5824
 8943TIP3    H148244   4.331   3.507   6.836  1.9200  0.8519  1.3749
 8943TIP3    H248245   4.352   3.366   6.887  0.4300  0.5483  1.1904
 8944TIP3   OH248246   2.755   1.245   2.188  0.4002  0.2150 -0.2428
 8944TIP3    H148247   2.674   1.290   2.163  0.5152  0.1776 -0.6890
 8944TIP3    H248248   2.729   1.153   2.196  0.9728 -0.2851 -3.2084
 8945TIP3   OH248249   4.873   6.558  13.723 -0.4601 -0.4326 -0.8404
 8945TIP3    H148250   4.859   6.646  13.686 -0.6264 -0.6157 -1.2200
 8945TIP3    H248251   4.954   6.566  13.772 -1.0374  0.2267  0.0504
 8946TIP3   OH248252   2.552   1.384  15.491  0.7701  0.0563  0.2274
 8946TIP3    H148253   2.568   1.460  15.435  3.9251  0.0374  0.8844
 8946TIP3    H248254   2.606   1.314  15.452  2.9809  0.0158  3.0529
 8947TIP3   OH248255   3.704   0.427  11.347 -0.0065  0.4000  0.2268
 8947TIP3    H148256   3.672   0.403  11.260 -1.1521 -0.3604  0.8245
 8947TIP3    H248257   3.772   0.363  11.367 -0.4227 -0.0329  0.2755
 8948TIP3   OH248258   4.532   3.495   4.614  0.0932 -0.2684 -0.3127
 8948TIP3    H148259   4.510   3.571   4.668  0.1970 -0.5826  0.1799
 8948TIP3    H248260   4.615   3.519   4.573 -0.8395  0.6846 -1.7219
 8949TIP3   OH248261   0.600   4.073  13.122 -0.0629 -0.6767 -0.1913
 8949TIP3    H148262   0.539   4.124  13.176  0.2790  0.5245 -0.9068
 8949TIP3    H248263   0.615   3.993  13.172  1.1021  0.8386  2.0759
 8950TIP3   OH248264   0.065   5.136   6.451  0.1721 -0.0924 -0.3578
 8950TIP3    H148265   0.126   5.063   6.442 -1.5676 -1.6864  0.1329
 8950TIP3    H248266   0.120   5.215   6.448  1.9383 -1.2977 -2.7249
 8951TIP3   OH248267   0.827   0.962   6.170 -1.2568 -0.7853  0.4314
 8951TIP3    H148268   0.835   0.918   6.255 -2.0677 -0.5474  0.6401
 8951TIP3    H248269   0.834   0.892   6.106 -1.3725 -1.0685  0.7242
 8952TIP3   OH248270   1.262   6.194   4.043 -0.0912 -0.5121  0.1459
 8952TIP3    H148271   1.258   6.136   3.967  0.3651  0.5353 -0.7000
 8952TIP3    H248272   1.176   6.237   4.044 -0.1550 -0.6402  0.3327
 8953TIP3   OH248273   5.356   1.662  15.503 -0.4147  0.1383 -0.3558
 8953TIP3    H148274   5.385   1.697  15.587 -0.6323  1.2879 -0.7461
 8953TIP3    H248275   5.360   1.736  15.443  0.1573 -0.7735 -1.4764
 8954TIP3   OH248276   6.186   5.240   0.698  0.6154 -0.5211 -0.5893
 8954TIP3    H148277   6.256   5.215   0.758  0.0645 -0.6514  0.0100
 8954TIP3    H248278   6.107   5.202   0.736  0.0483  0.5504 -0.6558
 8955TIP3   OH248279   2.524   3.571  16.229 -0.0126  0.4324  0.3171
 8955TIP3    H148280   2.434   3.561  16.197  0.2450  0.5614 -0.4917
 8955TIP3    H248281   2.559   3.644  16.177  0.7415 -0.0066  0.1931
 8956TIP3   OH248282   1.484   6.565   2.958 -0.4932 -0.2036  0.0281
 8956TIP3    H148283   1.491   6.510   3.037 -0.0305  0.2222  0.2850
 8956TIP3    H248284   1.555   6.536   2.902 -1.0684 -0.7890 -0.4227
 8957TIP3   OH248285   2.091   0.768   1.747 -1.0292  0.3581 -0.2381
 8957TIP3    H148286   2.155   0.836   1.726 -0.6991 -0.1345 -0.8835
 8957TIP3    H248287   2.082   0.772   1.842  1.9634 -1.2597  0.2486
 8958TIP3   OH248288   0.555   2.568   1.466 -0.1443  0.6834  0.2910
 8958TIP3    H148289   0.582   2.636   1.405  0.8618 -0.2371 -0.3237
 8958TIP3    H248290   0.636   2.528   1.495 -0.7322 -0.5445  0.3001
 8959TIP3   OH248291   4.461   5.210  15.453  0.0637 -0.2015  0.0681
 8959TIP3    H148292   4.415   5.140  15.406  0.2229  0.0208 -0.4201
 8959TIP3    H248293   4.401   5.285  15.450 -0.6514 -0.6527  1.6544
 8960TIP3   OH248294   3.527   2.693   3.912  0.0336 -0.1089 -0.5656
 8960TIP3    H148295   3.607   2.640   3.915  0.3379  0.3073 -0.9866
 8960TIP3    H248296   3.517   2.714   3.819  0.3314  1.1677 -0.3327
 8961TIP3   OH248297   0.169   6.394   3.110 -0.5986  0.1177  0.3581
 8961TIP3    H148298   0.198   6.311   3.145 -2.1132 -0.7361 -0.2846
 8961TIP3    H248299   0.105   6.371   3.042  0.2435  1.7508 -1.1011
 8962TIP3   OH248300   4.036   5.686   1.825  0.1320 -0.1360 -0.0055
 8962TIP3    H148301   4.111   5.678   1.884  0.3486 -0.6911 -0.3463
 8962TIP3    H248302   4.036   5.778   1.799  0.7363 -0.1379 -0.0450
 8963TIP3   OH248303   0.048   1.683  11.565 -0.2534  0.1498  0.0006
 8963TIP3    H148304   0.082   1.693  11.653 -0.1619  2.0684 -0.2117
 8963TIP3    H248305  -0.047   1.688  11.575 -0.3414 -1.3901  0.1588
 8964TIP3   OH248306   2.761   0.963  13.789  0.1232 -0.4465 -0.4504
 8964TIP3    H148307   2.788   0.942  13.878  0.5363  1.3785 -0.0946
 8964TIP3    H248308   2.815   0.908  13.732  0.6423 -0.8127  0.3955
 8965TIP3   OH248309   4.638   3.035   0.088  0.3792 -0.7708  0.3336
 8965TIP3    H148310   4.613   2.954   0.133 -1.2380 -1.2587 -1.2815
 8965TIP3    H248311   4.688   3.005   0.012 -0.3240 -0.2845 -0.3331
 8966TIP3   OH248312   2.770   2.275  11.982 -0.2743  0.2060  0.3645
 8966TIP3    H148313   2.791   2.329  12.058  0.7394  0.2558  0.0655
 8966TIP3    H248314   2.813   2.319  11.909 -1.2161  0.1451 -0.2421
 8967TIP3   OH248315   4.909   5.192   1.540 -0.3542  0.0103  0.2857
 8967TIP3    H148316   4.836   5.208   1.480 -0.2862  0.3365  0.2851
 8967TIP3    H248317   4.913   5.271   1.594  1.8875  1.3867 -1.6705
 8968TIP3   OH248318   2.764   4.113   3.214  0.7262 -0.1002  0.2526
 8968TIP3    H148319   2.813   4.067   3.145 -0.0021  0.5793 -0.7502
 8968TIP3    H248320   2.795   4.203   3.209 -2.6403  1.1606 -2.5457
 8969TIP3   OH248321   0.716   6.585  14.347 -0.7867 -0.2069  0.2866
 8969TIP3    H148322   0.769   6.660  14.374 -0.1124 -0.6192  0.1439
 8969TIP3    H248323   0.651   6.622  14.287 -0.5853  0.2933  0.3707
 8970TIP3   OH248324   1.024   2.136  13.622 -0.8368  0.2107 -0.6440
 8970TIP3    H148325   0.944   2.114  13.669 -0.8752  1.2399 -0.2160
 8970TIP3    H248326   0.996   2.145  13.531 -0.8991 -1.0277 -0.7658
 8971TIP3   OH248327   1.908   1.743  14.393  0.0903 -0.6298  0.7663
 8971TIP3    H148328   1.991   1.749  14.346  0.0513 -1.1001  0.6267
 8971TIP3    H248329   1.876   1.833  14.398  0.0677 -0.5762 -0.1584
 8972TIP3   OH248330   1.778   5.553   5.868 -0.0866 -0.1326  0.1416
 8972TIP3    H148331   1.808   5.465   5.891  1.0513  0.2723  0.2456
 8972TIP3    H248332   1.775   5.553   5.772  0.4303 -0.1244  0.1221
 8973TIP3   OH248333   5.275   0.688   4.536 -0.0540  0.1386  0.2761
 8973TIP3    H148334   5.327   0.656   4.462 -0.2337 -0.6304  0.4753
 8973TIP3    H248335   5.284   0.620   4.603 -1.7192 -0.2903  0.1313
 8974TIP3   OH248336   1.205   2.706  12.378 -0.3318 -0.0078  0.2201
 8974TIP3    H148337   1.158   2.630  12.412 -3.2316  1.4892 -0.1516
 8974TIP3    H248338   1.199   2.771  12.448 -0.9288  1.0210 -0.7615
 8975TIP3   OH248339   6.131   4.087  11.204  0.1369 -0.4356  0.0120
 8975TIP3    H148340   6.181   4.097  11.123  0.6939 -0.1731  0.3798
 8975TIP3    H248341   6.152   3.998  11.234  0.2870 -0.3697  0.1019
 8976TIP3   OH248342   0.070   1.293   3.174  0.8649  0.2476  0.1015
 8976TIP3    H148343   0.087   1.369   3.229  3.2937 -0.4913  0.5029
 8976TIP3    H248344   0.030   1.329   3.095  0.5360  1.7425  0.9153
 8977TIP3   OH248345   2.357   5.103  12.075 -0.0901  0.2013 -0.2934
 8977TIP3    H148346   2.412   5.060  12.010  0.2769  0.5088 -0.1921
 8977TIP3    H248347   2.383   5.063  12.158  0.1889  0.5479 -0.2105
 8978TIP3   OH248348   1.864   4.875  13.308 -0.0921  0.5630  0.0272
 8978TIP3    H148349   1.853   4.944  13.374 -4.5541  0.2154 -0.0435
 8978TIP3    H248350   1.821   4.910  13.230  2.1920 -0.3496 -1.7452
 8979TIP3   OH248351   5.237   3.175  14.455  0.1073  0.2700 -0.4663
 8979TIP3    H148352   5.142   3.179  14.470 -0.1070 -2.3528 -0.6333
 8979TIP3    H248353   5.249   3.213  14.368 -0.7223  0.9428 -0.3076
 8980TIP3   OH248354   0.525   5.416   1.227 -0.4804 -0.3587 -0.0945
 8980TIP3    H148355   0.617   5.438   1.241 -0.2258 -0.9373 -0.7822
 8980TIP3    H248356   0.501   5.364   1.304  0.1580 -1.3423 -0.5448
 8981TIP3   OH248357   1.908   5.362  11.141  0.6442 -0.5948  0.4382
 8981TIP3    H148358   1.860   5.444  11.136  1.3326 -0.1766  0.4678
 8981TIP3    H248359   1.870   5.307  11.072 -0.3110 -0.5220  0.9037
 8982TIP3   OH248360   0.752   5.734   5.284 -0.9319  0.0157  0.0048
 8982TIP3    H148361   0.675   5.772   5.326 -2.4244 -0.8540 -1.8012
 8982TIP3    H248362   0.798   5.689   5.355 -1.0190  2.1143  1.4886
 8983TIP3   OH248363   5.630   3.249   1.813  0.1889 -0.4025  0.5195
 8983TIP3    H148364   5.537   3.264   1.795  0.4355  1.9542  0.8440
 8983TIP3    H248365   5.650   3.165   1.772 -1.7451 -0.2675 -0.8145
 8984TIP3   OH248366   4.141   0.793   0.686  0.2230 -0.8076 -0.3179
 8984TIP3    H148367   4.109   0.708   0.653  1.5729 -2.6787  2.7581
 8984TIP3    H248368   4.235   0.780   0.697  0.5670  1.3649 -0.2922
 8985TIP3   OH248369   5.245   3.986   2.505  0.0190  0.8585 -0.3785
 8985TIP3    H148370   5.190   3.912   2.529 -0.9316  1.2572 -1.2128
 8985TIP3    H248371   5.297   4.005   2.583  0.7621 -1.0873 -0.3711
 8986TIP3   OH248372   3.852   2.625  10.916 -0.2342 -0.3619  0.0300
 8986TIP3    H148373   3.790   2.646  10.845 -0.8004  0.4903  0.7566
 8986TIP3    H248374   3.856   2.705  10.968  1.3013 -0.4963  0.1447
 8987TIP3   OH248375   5.135   4.603   1.389  0.4142  0.1964 -0.1548
 8987TIP3    H148376   5.166   4.518   1.358  0.4043  0.6589 -1.5076
 8987TIP3    H248377   5.215   4.656   1.397  0.3088  0.4064 -0.4655
 8988TIP3   OH248378   0.178   6.244   1.465  0.1364 -0.3473 -0.0756
 8988TIP3    H148379   0.268   6.212   1.462  0.1270 -0.3284 -0.8597
 8988TIP3    H248380   0.148   6.227   1.554  0.7397 -0.8369  0.0330
 8989TIP3   OH248381   4.090   2.403  15.375 -0.1932 -0.2648  0.1310
 8989TIP3    H148382   4.039   2.484  15.368 -0.9523 -0.7764 -0.5210
 8989TIP3    H248383   4.045   2.353  15.443 -0.1570 -0.4295  0.0350
 8990TIP3   OH248384   1.151   1.402   2.857  0.1390 -0.0050  0.6669
 8990TIP3    H148385   1.125   1.364   2.941 -0.6596 -0.1711  0.3583
 8990TIP3    H248386   1.218   1.343   2.824 -0.7641 -0.9175  0.4047
 8991TIP3   OH248387   4.241   1.874  16.225  0.0648 -0.1049 -0.0536
 8991TIP3    H148388   4.336   1.872  16.238  0.0655 -0.6046 -0.0999
 8991TIP3    H248389   4.225   1.952  16.173  0.4651 -0.0755 -0.1349
 8992TIP3   OH248390   0.968   5.179   5.330 -0.4820  0.2772  0.0399
 8992TIP3    H148391   0.972   5.096   5.282 -0.3311 -0.0148  0.5442
 8992TIP3    H248392   0.991   5.245   5.265 -0.7518 -0.0604 -0.4064
 8993TIP3   OH248393   2.148   1.753  16.706  0.2436  0.0465 -0.2369
 8993TIP3    H148394   2.227   1.700  16.703  0.3163 -0.0455  2.0156
 8993TIP3    H248395   2.171   1.828  16.761 -1.2768 -0.1035  0.6666
 8994TIP3   OH248396   3.757   3.355  15.792 -0.9450  0.2045  0.1896
 8994TIP3    H148397   3.701   3.308  15.853 -0.1908 -1.2268 -0.1774
 8994TIP3    H248398   3.704   3.362  15.712 -1.5436  1.1705  0.6466
 8995TIP3   OH248399   4.329   6.713  14.751  0.8245 -0.1516 -0.2844
 8995TIP3    H148400   4.320   6.672  14.837 -2.1465  0.2474 -0.3068
 8995TIP3    H248401   4.269   6.665  14.695 -0.9900  2.5690 -0.9008
 8996TIP3   OH248402   0.256   4.084   0.621  0.4345 -0.5732  0.5261
 8996TIP3    H148403   0.296   4.037   0.694  0.1072  0.6432  1.5243
 8996TIP3    H248404   0.183   4.028   0.594 -0.8953  0.0010  2.6940
 8997TIP3   OH248405   3.132   3.271  16.780 -0.0940 -0.5552  0.2461
 8997TIP3    H148406   3.141   3.332  16.707  2.4457 -0.4393  0.5715
 8997TIP3    H248407   3.124   3.185  16.739 -0.7953 -0.2997 -0.1710
 8998TIP3   OH248408   5.823   0.372   4.946  0.0252  0.1517  0.0758
 8998TIP3    H148409   5.842   0.389   5.038  0.8272  1.2583 -0.2725
 8998TIP3    H248410   5.852   0.451   4.900 -0.9504 -0.1145 -1.0651
 8999TIP3   OH248411   4.715   4.254   0.090  0.5936 -0.1877  0.5125
 8999TIP3    H148412   4.728   4.180   0.029  1.1227  0.3216 -0.0051
 8999TIP3    H248413   4.744   4.220   0.175  0.5787 -0.6643  0.3307
 9000TIP3   OH248414   5.216   6.487   0.994 -0.0373 -0.3154 -0.4308
 9000TIP3    H148415   5.228   6.543   0.917 -2.3768  0.8825 -0.0039
 9000TIP3    H248416   5.126   6.457   0.987  0.2534 -1.5729  0.9829
 9001TIP3   OH248417   3.475   0.060   4.566 -0.1643 -0.6064  0.4096
 9001TIP3    H148418   3.439   0.117   4.498 -0.3153  0.3465  1.2665
 9001TIP3    H248419   3.482   0.116   4.643  0.1624 -1.6234  1.1392
 9002TIP3   OH248420   3.757   2.391   2.550 -0.1389 -0.4022 -0.0955
 9002TIP3    H148421   3.758   2.362   2.459 -1.0943 -0.6325 -0.0442
 9002TIP3    H248422   3.699   2.467   2.551 -0.5247 -0.6900  0.3965
 9003TIP3   OH248423   4.051   2.660  13.317 -0.2547  0.3768  0.8246
 9003TIP3    H148424   4.030   2.649  13.410  2.2928  1.2464  1.5957
 9003TIP3    H248425   3.983   2.718  13.284 -1.0449  0.3007  2.2352
 9004TIP3   OH248426   2.067   3.815  15.930  0.4888  0.1509 -0.5076
 9004TIP3    H148427   2.023   3.865  15.998  0.1079 -0.7568 -0.0739
 9004TIP3    H248428   2.158   3.809  15.959  0.2957 -0.3690  0.0225
 9005TIP3   OH248429   2.210   4.652   1.241  0.0488  0.1937  0.0781
 9005TIP3    H148430   2.296   4.620   1.269 -0.0170  0.0299  0.0938
 9005TIP3    H248431   2.197   4.614   1.154 -0.1024  0.0386  0.1665
 9006TIP3   OH248432   6.208   0.042   5.612 -0.3123 -0.3090 -0.1336
 9006TIP3    H148433   6.184   0.133   5.593  0.7878 -0.1933 -1.0297
 9006TIP3    H248434   6.295   0.047   5.651 -1.1402 -0.8270  1.9156
 9007TIP3   OH248435   0.172   0.879   1.530  0.2289  0.6356 -0.3835
 9007TIP3    H148436   0.082   0.899   1.504 -0.1807 -0.6033  0.0123
 9007TIP3    H248437   0.165   0.853   1.622  0.9060  0.0341 -0.4949
 9008TIP3   OH248438   4.005   4.916  14.877  0.4015 -0.2504  0.5901
 9008TIP3    H148439   4.087   4.916  14.828 -0.6578  2.0749 -1.3795
 9008TIP3    H248440   4.029   4.947  14.964  1.3882  2.7874 -0.6259
 9009TIP3   OH248441   1.143   4.937  11.373 -0.1012  0.7442 -0.0107
 9009TIP3    H148442   1.166   4.925  11.281 -1.9527  0.3902 -0.4741
 9009TIP3    H248443   1.058   4.981  11.371 -3.2430 -4.3867  1.2856
 9010TIP3   OH248444   4.763   3.023   3.634 -0.8904 -0.1196  0.5468
 9010TIP3    H148445   4.783   2.971   3.556  0.9640 -0.0776  0.9383
 9010TIP3    H248446   4.731   2.959   3.698 -0.7985 -0.4226  0.2928
 9011TIP3   OH248447   5.758   2.160   3.593 -0.4746  0.1919  1.0576
 9011TIP3    H148448   5.794   2.074   3.615 -0.7972 -0.1266  0.3534
 9011TIP3    H248449   5.775   2.171   3.500 -1.1803  0.5319  0.9631
 9012TIP3   OH248450   6.494   2.216  12.119  0.7137 -0.3228 -0.0788
 9012TIP3    H148451   6.489   2.233  12.213 -1.1734 -0.3218 -0.1450
 9012TIP3    H248452   6.554   2.141  12.111 -0.8438 -1.7980  1.3334
 9013TIP3   OH248453   0.351   6.649  16.447 -0.3947  0.2917  0.1890
 9013TIP3    H148454   0.439   6.621  16.423  0.1134  0.6985  1.4960
 9013TIP3    H248455   0.352   6.651  16.543 -1.9659 -0.1459  0.2439
 9014TIP3   OH248456   5.595   4.244  13.527  0.4918 -0.6581  0.7106
 9014TIP3    H148457   5.583   4.219  13.435  0.6738 -1.0533  0.7952
 9014TIP3    H248458   5.540   4.183  13.576 -0.4218  0.2127  0.7950
 9015TIP3   OH248459   6.288   0.183   1.382 -0.2951 -0.3884 -0.2330
 9015TIP3    H148460   6.312   0.101   1.425 -1.0418 -0.5065 -0.0292
 9015TIP3    H248461   6.197   0.198   1.407 -0.3920  0.1260 -0.8610
 9016TIP3   OH248462   6.680   4.037  12.284 -0.1918  0.3608 -0.7493
 9016TIP3    H148463   6.645   3.964  12.233 -0.2303  1.1340 -1.8580
 9016TIP3    H248464   6.649   4.021  12.373  0.4581 -1.3895 -0.7949
 9017TIP3   OH248465   6.051   4.654  16.389  0.2331 -0.3632  0.1089
 9017TIP3    H148466   6.048   4.747  16.365  0.1030 -0.5519 -0.6498
 9017TIP3    H248467   5.990   4.612  16.328  1.7544 -1.2182 -0.8936
 9018TIP3   OH248468   3.893   4.917   6.581 -0.4457  0.3584 -0.1088
 9018TIP3    H148469   3.922   4.826   6.576  2.8815  1.3470 -2.3811
 9018TIP3    H248470   3.969   4.968   6.553 -2.2995  3.8589  0.6257
 9019TIP3   OH248471   3.812   1.712  12.527  0.7161 -0.1010  1.1294
 9019TIP3    H148472   3.801   1.806  12.519 -1.2874 -0.3230  0.7629
 9019TIP3    H248473   3.734   1.683  12.574  0.0705 -1.8456 -0.8631
 9020TIP3   OH248474   4.944   0.610   0.273  0.3423  0.1224 -0.2097
 9020TIP3    H148475   4.917   0.587   0.184  0.2578 -2.7009  0.4579
 9020TIP3    H248476   4.942   0.527   0.320  1.0220  1.4481  2.2798
 9021TIP3   OH248477   6.306   6.733  16.912 -0.0215 -0.0465 -0.1642
 9021TIP3    H148478   6.213   6.756  16.915  0.0454  0.2159 -0.1066
 9021TIP3    H248479   6.307   6.643  16.879 -0.2840  0.0272 -0.3820
 9022TIP3   OH248480   3.194   5.264   3.096 -0.4207  0.2194  0.4073
 9022TIP3    H148481   3.180   5.229   3.184 -2.6836 -1.0067 -0.3522
 9022TIP3    H248482   3.229   5.189   3.046 -0.5601  0.4698 -0.0749
 9023TIP3   OH248483   1.839   6.496   1.464 -0.0507 -0.3073  0.5721
 9023TIP3    H148484   1.787   6.546   1.401  0.0717 -1.2646 -0.3256
 9023TIP3    H248485   1.823   6.405   1.441  0.0957 -0.6847  1.8686
 9024TIP3   OH248486   3.781   6.022  15.338 -0.1404  0.7349 -0.1264
 9024TIP3    H148487   3.728   5.984  15.408 -0.4974  1.3396 -0.0646
 9024TIP3    H248488   3.866   6.040  15.379 -0.0162  0.1541 -0.1172
 9025TIP3   OH248489   1.152   3.924   5.574 -0.3231  0.1053 -0.4516
 9025TIP3    H148490   1.155   3.835   5.610  1.9866 -0.4857 -1.9044
 9025TIP3    H248491   1.174   3.913   5.482 -1.5455  2.0618 -1.0256
 9026TIP3   OH248492   2.911   0.361  15.206 -0.8839  0.2056 -0.2998
 9026TIP3    H148493   2.904   0.452  15.177  0.4199  0.1837 -0.7552
 9026TIP3    H248494   2.877   0.310  15.132 -0.3196  0.2793 -0.6200
 9027TIP3   OH248495   2.085   3.785   3.626 -0.1177 -0.3330 -0.3245
 9027TIP3    H148496   2.160   3.843   3.641 -0.2626 -0.5453  1.4819
 9027TIP3    H248497   2.021   3.840   3.581  0.4018  0.4166 -0.1708
 9028TIP3   OH248498   3.351   3.622  16.386 -0.0812 -0.2468 -0.1374
 9028TIP3    H148499   3.429   3.570  16.405 -0.3565 -0.5804  0.0897
 9028TIP3    H248500   3.381   3.713  16.392  0.7660 -0.3511 -2.0049
 9029TIP3   OH248501   5.100   0.224   4.651 -0.0552 -0.1194  0.5278
 9029TIP3    H148502   5.017   0.186   4.624  0.2491 -1.3274  1.2234
 9029TIP3    H248503   5.157   0.149   4.668  0.7654  0.6562  1.3395
 9030TIP3   OH248504   6.655   5.666   0.479 -0.1539 -0.4392  0.4722
 9030TIP3    H148505   6.660   5.740   0.418 -0.1143 -1.2423 -0.5332
 9030TIP3    H248506   6.623   5.704   0.560 -0.2151  0.6672 -0.0490
 9031TIP3   OH248507   1.521   5.335  12.391  0.6539 -0.8633 -0.3792
 9031TIP3    H148508   1.601   5.385  12.405 -0.1708  0.4065 -0.0163
 9031TIP3    H248509   1.496   5.304  12.478 -0.4520  0.7020 -0.0885
 9032TIP3   OH248510   1.809   3.509   4.440 -0.3443  0.1337 -0.3297
 9032TIP3    H148511   1.892   3.462   4.437 -0.7798 -0.8862  1.8682
 9032TIP3    H248512   1.756   3.469   4.372  0.2833 -0.5954 -0.3984
 9033TIP3   OH248513   2.946   0.857   0.983 -0.7189  0.1633  0.1450
 9033TIP3    H148514   2.860   0.821   0.961 -0.8781  0.3951  0.3875
 9033TIP3    H248515   2.985   0.878   0.898 -0.3017 -1.2875 -0.0594
 9034TIP3   OH248516   2.126   2.184   0.930 -0.0211 -0.9461  0.1756
 9034TIP3    H148517   2.091   2.238   0.859 -2.2814 -0.7843  1.3323
 9034TIP3    H248518   2.156   2.248   0.996  0.4058 -1.0972  0.1297
 9035TIP3   OH248519   4.466   2.975  12.442  0.6103 -0.1304  0.3210
 9035TIP3    H148520   4.477   2.916  12.367  0.5197  0.5729 -0.2645
 9035TIP3    H248521   4.444   2.918  12.515  2.2841 -0.9934  0.1927
 9036TIP3   OH248522   6.588   3.362  17.016  0.0099  0.2741  0.7340
 9036TIP3    H148523   6.535   3.283  17.014  0.9356 -0.3773 -1.8846
 9036TIP3    H248524   6.666   3.338  17.065  0.7266 -0.8170 -0.8550
 9037TIP3   OH248525   1.888   1.440   1.510 -0.3326  0.2779  0.4799
 9037TIP3    H148526   1.869   1.515   1.566 -1.1664 -0.6050  1.4355
 9037TIP3    H248527   1.815   1.380   1.526 -0.8726  0.1824 -1.9348
 9038TIP3   OH248528   5.829   4.617   0.026  0.4344 -0.0377 -0.4298
 9038TIP3    H148529   5.888   4.614   0.100 -1.0827 -1.4375  0.8049
 9038TIP3    H248530   5.744   4.640   0.064 -0.3151 -0.4585 -1.7752
 9039TIP3   OH248531   5.522   4.389  12.274  0.3146 -0.1639  0.6590
 9039TIP3    H148532   5.443   4.430  12.239 -1.5348 -2.2502  2.1400
 9039TIP3    H248533   5.585   4.395  12.203 -1.4968  0.6441 -0.9853
 9040TIP3   OH248534   3.628   5.717  16.501  0.2887 -0.0213  0.0526
 9040TIP3    H148535   3.661   5.758  16.421 -2.0507  0.3957 -0.7752
 9040TIP3    H248536   3.533   5.713  16.488  0.1288 -2.8870  1.4479
 9041TIP3   OH248537   5.497   6.044   2.795 -0.7077 -0.2295  0.7701
 9041TIP3    H148538   5.568   5.980   2.792 -0.6856 -0.1870 -1.9722
 9041TIP3    H248539   5.418   5.991   2.809 -0.6707 -0.9193 -1.3149
 9042TIP3   OH248540   6.122   6.615  15.544 -0.3383 -0.1243 -0.2512
 9042TIP3    H148541   6.137   6.653  15.457  3.7060  0.8697  0.6645
 9042TIP3    H248542   6.097   6.524  15.526  1.3161 -0.2243 -2.5314
 9043TIP3   OH248543   2.184   3.307   5.366 -0.5340  0.3771 -0.1110
 9043TIP3    H148544   2.170   3.290   5.459 -0.3118 -0.8898 -0.2816
 9043TIP3    H248545   2.107   3.269   5.323  1.1222 -2.6201 -0.7060
 9044TIP3   OH248546   4.449   0.883  15.553 -0.0417 -0.9201 -0.0182
 9044TIP3    H148547   4.537   0.873  15.590  0.2935 -0.8481 -0.7793
 9044TIP3    H248548   4.414   0.794  15.551  0.3897 -1.0852 -0.5993
 9045TIP3   OH248549   1.442   0.576  14.392  0.1239 -0.0361 -0.5888
 9045TIP3    H148550   1.410   0.583  14.302  0.7689  0.3980 -0.7981
 9045TIP3    H248551   1.477   0.487  14.399 -1.6375 -0.7266 -0.1663
 9046TIP3   OH248552   0.416   2.694  15.280 -0.7067 -0.6365 -0.3011
 9046TIP3    H148553   0.480   2.700  15.208  0.7130 -0.4858  0.9325
 9046TIP3    H248554   0.416   2.601  15.304 -1.6524 -0.8024 -0.8801
 9047TIP3   OH248555   1.703   3.617  16.364 -0.2218 -0.1059  0.1693
 9047TIP3    H148556   1.619   3.662  16.354 -0.0404  0.1914 -0.0233
 9047TIP3    H248557   1.706   3.556  16.290  1.1918  2.2075 -1.8047
 9048TIP3   OH248558   3.279   6.230  14.806 -0.7052 -0.1713  0.4929
 9048TIP3    H148559   3.350   6.286  14.839 -1.6196  0.1929  1.9176
 9048TIP3    H248560   3.264   6.166  14.876 -2.6078  0.5336  0.7846
 9049TIP3   OH248561   1.539   5.071  15.773  0.3769 -0.3309  0.4202
 9049TIP3    H148562   1.521   5.025  15.855 -1.3439  0.9221  0.7792
 9049TIP3    H248563   1.632   5.094  15.779  0.2200 -0.0025  2.1592
 9050TIP3   OH248564   3.455   6.256   5.278 -0.4770  0.3760  0.0905
 9050TIP3    H148565   3.524   6.274   5.214 -2.5124  0.0516 -2.3461
 9050TIP3    H248566   3.420   6.342   5.301  1.0252  0.5923  1.7952
 9051TIP3   OH248567   2.644   3.002   0.433 -0.4112  0.3952  0.1387
 9051TIP3    H148568   2.589   3.048   0.369  0.6718  1.1909 -0.2444
 9051TIP3    H248569   2.679   2.928   0.385 -1.1491 -0.1265  0.3900
 9052TIP3   OH248570   5.800   6.658   3.383  0.2877 -0.7001 -0.6722
 9052TIP3    H148571   5.767   6.628   3.299 -0.7228  0.4754 -0.7247
 9052TIP3    H248572   5.796   6.754   3.378  0.4549 -0.6020  0.6051
 9053TIP3   OH248573   2.937   5.432   4.470  0.0643  0.5005  0.3814
 9053TIP3    H148574   2.987   5.504   4.509 -0.4420  1.0243  0.0750
 9053TIP3    H248575   2.983   5.353   4.498  0.3943  0.9235  1.0540
 9054TIP3   OH248576   2.373   4.509  14.916 -0.5694 -0.2472 -0.2186
 9054TIP3    H148577   2.301   4.470  14.866 -0.9796 -0.4162  0.4899
 9054TIP3    H248578   2.346   4.499  15.008 -0.1674  0.7188  0.0070
 9055TIP3   OH248579   5.649   0.526   5.886 -0.8721 -0.1381 -0.5716
 9055TIP3    H148580   5.615   0.555   5.971  0.6424  1.5158 -0.4692
 9055TIP3    H248581   5.622   0.435   5.879 -0.5064 -0.5120  1.9724
 9056TIP3   OH248582   1.519   6.192  12.398  0.2024  0.7970 -0.2302
 9056TIP3    H148583   1.587   6.132  12.430  0.3981 -0.8250 -3.3560
 9056TIP3    H248584   1.512   6.173  12.305 -3.4770  2.0049 -0.3508
 9057TIP3   OH248585   1.970   3.605  16.932  0.3921  0.7914 -0.2766
 9057TIP3    H148586   1.912   3.680  16.943  0.7820  1.1452 -0.6241
 9057TIP3    H248587   1.944   3.544  17.002  0.5292  1.5302  0.4299
 9058TIP3   OH248588   0.528   5.248   5.506  0.1256 -0.1532  0.0330
 9058TIP3    H148589   0.483   5.219   5.585  0.1986 -2.1561 -0.5884
 9058TIP3    H248590   0.470   5.221   5.434  1.7924 -1.9979 -0.7401
 9059TIP3   OH248591   5.438   5.953   5.563 -0.2276 -0.0555 -0.3861
 9059TIP3    H148592   5.495   6.027   5.588  0.6082 -0.2232 -1.6725
 9059TIP3    H248593   5.395   5.928   5.645 -0.5307  1.8401  0.1013
 9060TIP3   OH248594   6.028   0.847  14.519  0.0833 -0.3319  0.3260
 9060TIP3    H148595   5.966   0.919  14.531 -0.4804 -0.4950 -1.2959
 9060TIP3    H248596   6.050   0.818  14.608 -0.5959  1.0587  0.9662
 9061TIP3   OH248597   1.956   5.339   4.465  0.2274 -0.1246 -0.0088
 9061TIP3    H148598   1.903   5.323   4.387 -0.3771 -2.0692  0.7618
 9061TIP3    H248599   2.012   5.262   4.473  2.7321  1.5443 -0.3748
 9062TIP3   OH248600   1.303   5.329   0.375 -0.0676 -0.0000 -0.1600
 9062TIP3    H148601   1.226   5.386   0.382  1.3768  2.2247 -1.4653
 9062TIP3    H248602   1.291   5.282   0.292 -1.1211 -1.4841  0.7830
 9063TIP3   OH248603   2.415   5.934  13.289 -0.3972 -0.7141 -0.1412
 9063TIP3    H148604   2.422   5.882  13.209  2.5744 -2.0169  0.8422
 9063TIP3    H248605   2.486   5.998  13.283 -0.3534 -0.5986  1.3032
 9064TIP3   OH248606   5.036   3.433  14.196 -0.1832 -0.0376 -0.2812
 9064TIP3    H148607   4.969   3.500  14.203 -0.5470 -0.3483 -0.6969
 9064TIP3    H248608   5.115   3.473  14.233 -1.1539 -0.4871  2.4781
 9065TIP3   OH248609   4.976   0.178  11.099 -0.1563  0.3791 -0.2050
 9065TIP3    H148610   4.966   0.199  11.006 -0.8851 -0.0835 -0.2367
 9065TIP3    H248611   4.887   0.177  11.133  0.1719  2.2979  0.9007
 9066TIP3   OH248612   3.338   3.400   3.364  0.8965 -0.1163  0.0887
 9066TIP3    H148613   3.271   3.346   3.322  0.3647  0.7115 -0.1616
 9066TIP3    H248614   3.383   3.341   3.425  0.9736 -1.0689 -0.8735
 9067TIP3   OH248615   2.222   5.951   0.804  0.1037 -0.1966 -0.0129
 9067TIP3    H148616   2.129   5.937   0.786 -0.1328  1.9234 -0.7479
 9067TIP3    H248617   2.224   5.982   0.895  0.0147  0.4086 -0.2162
 9068TIP3   OH248618   6.426   6.535   6.355  0.7695  0.0863  0.4568
 9068TIP3    H148619   6.486   6.606   6.378  0.8900  0.3561 -0.6693
 9068TIP3    H248620   6.371   6.524   6.433  1.1760  0.9694  0.8752
 9069TIP3   OH248621   0.297   6.103  12.810 -0.0021 -0.0541 -0.2490
 9069TIP3    H148622   0.341   6.184  12.835 -1.3551  0.8599 -0.7587
 9069TIP3    H248623   0.355   6.063  12.745  0.9691  0.1824  0.4506
 9070TIP3   OH248624   6.553   4.843  12.348  0.0057 -0.0200 -0.0329
 9070TIP3    H148625   6.598   4.760  12.361  2.1540  1.1446  0.3565
 9070TIP3    H248626   6.591   4.878  12.268  0.5904  1.4637  0.8584
 9071TIP3   OH248627   6.317   0.480   5.479 -0.2147 -0.2518  0.6333
 9071TIP3    H148628   6.407   0.491   5.447  1.0407 -1.8782  3.2699
 9071TIP3    H248629   6.312   0.535   5.556 -2.3535  1.6711 -0.7557
 9072TIP3   OH248630   5.475   6.209  14.138 -0.0037  0.1188  0.2383
 9072TIP3    H148631   5.418   6.281  14.167 -0.0961  0.0504  0.2253
 9072TIP3    H248632   5.435   6.179  14.057 -1.1623 -1.3164  1.2833
 9073TIP3   OH248633   0.032   0.383   0.549 -0.4094  0.6382  0.1946
 9073TIP3    H148634   0.007   0.404   0.639 -2.6545 -0.6957 -0.0384
 9073TIP3    H248635  -0.034   0.428   0.495  0.7117  1.1484 -0.7842
 9074TIP3   OH248636   6.346   4.551  14.916  0.4303 -0.4973 -0.2127
 9074TIP3    H148637   6.257   4.524  14.940  0.4446  1.0436  1.8279
 9074TIP3    H248638   6.390   4.469  14.892 -0.8093 -1.6624  1.2548
 9075TIP3   OH248639   2.607   6.160  12.463  0.7724  0.8067 -0.3091
 9075TIP3    H148640   2.622   6.068  12.485  0.8706  1.1689  1.2473
 9075TIP3    H248641   2.664   6.177  12.388 -0.8090 -0.9330 -2.0207
 9076TIP3   OH248642   5.718   6.677   3.804 -0.0463  0.6320  0.2751
 9076TIP3    H148643   5.772   6.729   3.744 -0.2480  0.7769  0.2196
 9076TIP3    H248644   5.634   6.722   3.806 -1.4332 -1.5496 -2.4845
 9077TIP3   OH248645   3.089   1.485  13.920  0.1241 -0.2053  0.0351
 9077TIP3    H148646   3.093   1.578  13.899 -0.9964 -0.2810 -0.6564
 9077TIP3    H248647   3.053   1.481  14.008  3.2065  0.0728  1.4092
 9078TIP3   OH248648   2.559   5.846  14.554  0.1535  0.0297  0.1669
 9078TIP3    H148649   2.502   5.826  14.629  0.2326  0.7191  0.4231
 9078TIP3    H248650   2.607   5.925  14.581  0.5565 -0.0118 -0.4109
 9079TIP3   OH248651   1.352   5.936  15.332 -0.2033  0.0033 -0.0955
 9079TIP3    H148652   1.362   5.941  15.427  1.2503  0.0684 -0.2254
 9079TIP3    H248653   1.310   6.018  15.307  1.1574  0.8626  0.3136
 9080TIP3   OH248654   2.798   4.813  13.496 -0.1540  0.0627 -0.0478
 9080TIP3    H148655   2.748   4.770  13.427  0.4447  0.4382 -0.7304
 9080TIP3    H248656   2.878   4.843  13.453 -0.3417  1.4478  0.4970
 9081TIP3   OH248657   3.025   5.224   6.085  0.1548 -0.2067 -0.3798
 9081TIP3    H148658   3.074   5.221   6.167 -0.5824 -0.7878  0.0571
 9081TIP3    H248659   2.936   5.199   6.110 -0.0484 -0.5266 -1.3812
 9082TIP3   OH248660   5.658   6.277   5.408  0.0830  0.2516 -0.0604
 9082TIP3    H148661   5.683   6.262   5.499 -0.8755 -0.4399  0.0961
 9082TIP3    H248662   5.738   6.256   5.359  0.4196  0.0055  0.5716
 9083TIP3   OH248663   3.230   0.840  13.197  0.3389  0.8355 -0.4937
 9083TIP3    H148664   3.167   0.787  13.149 -1.5120  0.7194  1.8409
 9083TIP3    H248665   3.295   0.777  13.229  1.3072  0.8514 -2.2936
 9084TIP3   OH248666   4.782   4.290   5.336  0.0530 -0.6778 -0.2431
 9084TIP3    H148667   4.698   4.247   5.317 -0.0809 -0.2161 -0.7221
 9084TIP3    H248668   4.762   4.383   5.333  0.6561 -0.5603 -0.6867
 9085TIP3   OH248669   6.390   6.285  12.847 -0.3511  0.1642 -0.4294
 9085TIP3    H148670   6.424   6.221  12.910 -1.4115 -0.3617 -0.3686
 9085TIP3    H248671   6.379   6.365  12.898 -1.2029 -0.2600  0.0844
 9086TIP3   OH248672   6.147   6.479  12.185 -0.4180  0.0309  0.4565
 9086TIP3    H148673   6.054   6.466  12.199 -0.1685 -2.6961  0.1740
 9086TIP3    H248674   6.189   6.441  12.263  0.4682  0.6209  0.2875
 9087TIP3   OH248675   4.483   0.427   2.684 -0.1993 -0.4938  0.3805
 9087TIP3    H148676   4.402   0.377   2.680  0.6262 -1.8838  0.2612
 9087TIP3    H248677   4.519   0.408   2.771 -0.0546  0.2268  0.4909
 9088TIP3   OH248678   6.634   4.599  16.885  0.3250  0.7232  0.0632
 9088TIP3    H148679   6.567   4.578  16.820  0.2125  0.9117  0.1183
 9088TIP3    H248680   6.705   4.537  16.867 -1.3052 -2.0454  2.3321
 9089TIP3   OH248681   5.370   3.525  15.214 -0.5784  0.2357 -0.4758
 9089TIP3    H148682   5.423   3.449  15.190 -0.0080  0.4713  0.0100
 9089TIP3    H248683   5.300   3.489  15.268 -0.8147 -0.0547 -0.9711
 9090TIP3   OH248684   2.578   6.392   1.460  0.5380  0.3744 -0.0244
 9090TIP3    H148685   2.594   6.356   1.373 -0.4210  1.2661 -0.5869
 9090TIP3    H248686   2.490   6.362   1.483  0.4649  0.8251  0.2896
 9091TIP3   OH248687   0.160   5.776   0.316  0.5873  0.2629 -0.1048
 9091TIP3    H148688   0.116   5.858   0.293  0.1850 -0.0350 -0.4217
 9091TIP3    H248689   0.225   5.763   0.246 -0.1790 -0.3005 -0.7318
 9092TIP3   OH248690   3.647   5.512  13.523  0.4737 -0.6010  0.3187
 9092TIP3    H148691   3.599   5.468  13.452  1.1909  1.4079 -1.5306
 9092TIP3    H248692   3.734   5.529  13.487  0.7330  0.8426  1.5171
 9093TIP3   OH248693   3.647   2.369   3.485  0.5419 -0.8056 -0.2537
 9093TIP3    H148694   3.648   2.398   3.394  0.2503  0.2146  0.0574
 9093TIP3    H248695   3.736   2.387   3.517  0.2470  0.1602  0.0549
 9094TIP3   OH248696   2.246   0.271   2.302  0.0275  0.0096 -0.2140
 9094TIP3    H148697   2.167   0.217   2.299 -1.0379  1.5624 -1.3246
 9094TIP3    H248698   2.267   0.290   2.211  1.7695 -0.4391  0.0510
 9095TIP3   OH248699   6.325   6.535  11.484  0.7658 -0.7225  0.0408
 9095TIP3    H148700   6.339   6.562  11.575 -1.2719 -0.4844  0.3284
 9095TIP3    H248701   6.299   6.443  11.490 -2.0528 -0.0058  0.0166
 9096TIP3   OH248702   3.905   0.767   5.540  0.2610 -0.5290  0.3515
 9096TIP3    H148703   3.904   0.692   5.599 -2.3307  0.2881  1.4887
 9096TIP3    H248704   3.924   0.842   5.595  0.0478 -0.0219 -0.2441
 9097TIP3   OH248705   4.669   2.136  12.131 -0.5498  0.0655  0.1555
 9097TIP3    H148706   4.642   2.058  12.082  0.7357  0.4244 -1.1594
 9097TIP3    H248707   4.587   2.169  12.169 -1.5560 -0.4176 -1.4756
 9098TIP3   OH248708   0.140   5.967   2.728 -0.5728  1.0360  0.9362
 9098TIP3    H148709   0.100   6.043   2.684 -1.7169  0.0869  0.2762
 9098TIP3    H248710   0.190   5.923   2.660  1.3952  2.0145  1.6779
 9099TIP3   OH248711   2.867   6.726   3.108 -0.0816 -0.0772  0.0863
 9099TIP3    H148712   2.795   6.757   3.052  1.2768  0.1441 -1.6251
 9099TIP3    H248713   2.907   6.655   3.058  0.8030 -0.2949  1.0704
 9100TIP3   OH248714   0.928   4.524   0.279  0.1124  0.6512  0.5702
 9100TIP3    H148715   0.934   4.433   0.249 -0.0266  0.6602  0.5160
 9100TIP3    H248716   1.019   4.552   0.288  0.1545  0.7852 -0.2353
 9101TIP3   OH248717   4.156   2.551  14.091  0.1518  0.2434  0.1262
 9101TIP3    H148718   4.222   2.605  14.048  0.3570  0.5601  0.8210
 9101TIP3    H248719   4.186   2.461  14.077 -0.0924  0.3126 -0.8760
 9102TIP3   OH248720   0.646   5.000  10.979 -0.6473 -0.1527  0.8986
 9102TIP3    H148721   0.698   5.076  10.953 -1.4293  0.3222  0.6878
 9102TIP3    H248722   0.638   5.009  11.074 -1.3954  0.4633  0.7834
 9103TIP3   OH248723   1.850   3.723   5.265  0.4488  0.1439 -0.7295
 9103TIP3    H148724   1.920   3.784   5.244  0.0940  0.0994 -2.1629
 9103TIP3    H248725   1.772   3.761   5.225 -0.0350 -0.5880 -0.5116
 9104TIP3   OH248726   2.539   5.572  16.793  0.5692  0.5931 -0.3138
 9104TIP3    H148727   2.603   5.575  16.864 -1.1683  2.1026  1.2868
 9104TIP3    H248728   2.541   5.481  16.763  0.5981 -0.4123  2.4338
 9105TIP3   OH248729   4.089   6.589   3.621  0.0253 -0.4347 -0.5146
 9105TIP3    H148730   4.004   6.582   3.664  0.2682  1.3528  0.3286
 9105TIP3    H248731   4.152   6.559   3.687  0.1710 -0.3664 -0.6215
 9106TIP3   OH248732   0.080   2.510  15.320  0.6832 -0.1398  0.0030
 9106TIP3    H148733   0.138   2.434  15.308  2.7261  1.5836 -1.9754
 9106TIP3    H248734   0.108   2.549  15.403  0.4658 -0.8287  0.4075
 9107TIP3   OH248735   2.681   3.643  11.458  0.2781  0.7317 -0.6330
 9107TIP3    H148736   2.586   3.649  11.459  0.2596  0.4359  0.3312
 9107TIP3    H248737   2.701   3.594  11.378 -0.4475 -0.1502 -0.2864
 9108TIP3   OH248738   6.265   5.878  13.664  0.8697 -0.1778  0.8299
 9108TIP3    H148739   6.332   5.820  13.700  1.4723 -0.0827 -0.1075
 9108TIP3    H248740   6.281   5.878  13.570 -0.0078  0.4064  0.6698
 9109TIP3   OH248741   1.855   5.482  13.429  0.1006  0.8461  0.2077
 9109TIP3    H148742   1.771   5.440  13.447 -0.4933  2.0416  0.3465
 9109TIP3    H248743   1.832   5.564  13.387  1.2828  0.4406 -1.3072
 9110TIP3   OH248744   2.554   2.444  17.062 -0.7601  0.0648 -0.4801
 9110TIP3    H148745   2.599   2.362  17.085 -2.3165 -0.6287  0.2518
 9110TIP3    H248746   2.547   2.441  16.967  0.5699  0.1207 -0.6035
 9111TIP3   OH248747   2.877   6.291  14.497  0.3680  0.2434 -0.5479
 9111TIP3    H148748   2.837   6.318  14.414 -1.1358  0.7163  0.2964
 9111TIP3    H248749   2.968   6.320  14.490 -0.4459  3.0610 -0.8601
 9112TIP3   OH248750   2.735   3.098  15.857  0.5177 -0.4094 -0.0979
 9112TIP3    H148751   2.774   3.118  15.772 -1.6943  2.2631 -0.6324
 9112TIP3    H248752   2.780   3.155  15.918 -0.4712  0.5251 -0.2101
 9113TIP3   OH248753   5.669   5.169  16.895 -0.0678 -0.0014 -0.1285
 9113TIP3    H148754   5.661   5.149  16.988  0.0054 -0.3274 -0.1877
 9113TIP3    H248755   5.580   5.191  16.867 -0.3543 -1.2534 -0.2740
 9114TIP3   OH248756   4.785   4.919   0.614  0.1699  0.6552 -0.3681
 9114TIP3    H148757   4.769   5.007   0.580  0.3914  2.3812  3.4412
 9114TIP3    H248758   4.880   4.914   0.626  0.1837 -0.2128 -0.7495
 9115TIP3   OH248759   5.506   6.121  11.213 -0.1637 -0.2788 -0.2457
 9115TIP3    H148760   5.496   6.157  11.125 -1.4316  2.5591  0.9544
 9115TIP3    H248761   5.600   6.127  11.231 -0.0151 -0.0764 -1.0584
 9116TIP3   OH248762   5.675   6.202   2.329 -0.1751  0.6389 -0.0235
 9116TIP3    H148763   5.642   6.210   2.240  0.4195  0.2355 -0.2804
 9116TIP3    H248764   5.602   6.164   2.378 -0.1693 -0.0591 -0.5474
 9117TIP3   OH248765   5.915   1.219  13.534  0.0965  0.1907  0.0480
 9117TIP3    H148766   5.897   1.142  13.587 -0.0928 -0.2816 -0.6911
 9117TIP3    H248767   5.832   1.268  13.534  0.0223  0.0648 -0.0144
 9118TIP3   OH248768   5.648   1.775   5.423 -0.3853 -0.0692 -0.0607
 9118TIP3    H148769   5.664   1.733   5.338  1.5166  0.6203 -0.0995
 9118TIP3    H248770   5.567   1.736   5.455 -0.2181 -1.6089 -1.4170
 9119TIP3   OH248771   5.925   0.857   1.315  0.2044 -0.0427 -0.3954
 9119TIP3    H148772   6.019   0.861   1.296  0.1019 -2.6706 -1.9845
 9119TIP3    H248773   5.919   0.879   1.408  2.6522 -1.6939  0.2589
 9120TIP3   OH248774   2.858   5.024  12.473  0.6943 -0.0133 -0.5370
 9120TIP3    H148775   2.872   5.119  12.471 -1.6496  0.3921 -1.0234
 9120TIP3    H248776   2.800   5.010  12.547  0.7776 -1.0188 -0.6570
 9121TIP3   OH248777   1.618   6.607  11.585 -0.9573  0.7023  0.1866
 9121TIP3    H148778   1.582   6.541  11.525  0.3123  0.7583 -0.6810
 9121TIP3    H248779   1.616   6.565  11.671 -1.5237  0.0911 -0.1142
 9122TIP3   OH248780   5.025   0.886  10.604  0.2085  0.2549  0.0523
 9122TIP3    H148781   4.986   0.966  10.568  1.6222  1.0267  0.1889
 9122TIP3    H248782   5.096   0.916  10.660 -0.3034 -1.0418  1.4702
 9123TIP3   OH248783   2.204   5.965   6.004  0.0363 -0.4297 -0.5714
 9123TIP3    H148784   2.242   6.002   6.084 -0.5537 -1.2908  0.1291
 9123TIP3    H248785   2.148   5.894   6.035 -0.3347 -0.6710 -1.7482
 9124TIP3   OH248786   6.283   1.595  16.567  0.2293  0.5814  0.6659
 9124TIP3    H148787   6.288   1.670  16.626  0.5527  1.9287 -1.0103
 9124TIP3    H248788   6.359   1.604  16.510  0.5698 -1.3313  0.7512
 9125TIP3   OH248789   3.580   6.056  17.003  0.2384 -0.2425  0.2286
 9125TIP3    H148790   3.585   5.969  17.041  0.9812 -0.6993 -0.8441
 9125TIP3    H248791   3.498   6.056  16.954  0.8553 -0.8205 -0.8410
 9126TIP3   OH248792   4.029   0.821  13.277 -0.8866 -0.1778  0.3544
 9126TIP3    H148793   3.966   0.758  13.243 -1.5223  1.5240 -1.9213
 9126TIP3    H248794   4.103   0.815  13.216 -0.1050 -0.1178  1.2809
 9127TIP3   OH248795   3.150   3.021   4.443  0.5159 -0.4477  0.8757
 9127TIP3    H148796   3.200   2.976   4.511 -1.2328 -1.9187  1.2480
 9127TIP3    H248797   3.139   3.110   4.476  1.1334 -0.6638  1.7099
 9128TIP3   OH248798   5.879   2.221  13.476  0.8128  0.2227  0.0411
 9128TIP3    H148799   5.958   2.178  13.508 -1.4538 -4.2794  0.3554
 9128TIP3    H248800   5.841   2.262  13.554  2.0708  1.2466  0.1500
 9129TIP3   OH248801   1.237   5.265  12.670 -0.3394 -0.0809  0.6676
 9129TIP3    H148802   1.203   5.247  12.583 -0.1214 -0.2174  0.6098
 9129TIP3    H248803   1.237   5.361  12.677 -0.2071 -0.0649  0.4580
 9130TIP3   OH248804   3.862   2.911   0.692  0.2784 -0.1126  0.1851
 9130TIP3    H148805   3.873   3.006   0.689  0.7552 -0.1745 -0.2749
 9130TIP3    H248806   3.912   2.879   0.617  0.0487 -0.7208  0.2849
 9131TIP3   OH248807   5.300   0.262   2.395 -0.4602  0.5138  0.0120
 9131TIP3    H148808   5.214   0.234   2.364 -0.3727  0.3757 -0.1061
 9131TIP3    H248809   5.356   0.185   2.384 -0.5857  0.2493  1.1461
 9132TIP3   OH248810   3.892   1.352   3.865  0.6224  0.0421 -0.2753
 9132TIP3    H148811   3.943   1.348   3.783  0.4168 -2.9167 -0.3752
 9132TIP3    H248812   3.914   1.271   3.910 -0.9168  0.6234  1.6405
 9133TIP3   OH248813   0.962   4.117   4.915  0.1718 -0.2974  0.2366
 9133TIP3    H148814   0.978   4.022   4.915  4.7896  0.1301  3.3918
 9133TIP3    H248815   1.036   4.153   4.866  0.8919  1.7276  2.6073
 9134TIP3   OH248816   4.875   6.429  11.079 -0.2255 -0.6013 -0.2796
 9134TIP3    H148817   4.804   6.368  11.057  1.0081 -1.2181 -3.0458
 9134TIP3    H248818   4.853   6.509  11.031 -1.9133  1.4459  3.4292
 9135TIP3   OH248819   5.870   3.050  17.047  0.5086  0.8104 -0.8977
 9135TIP3    H148820   5.818   2.972  17.063 -0.0285  1.0629 -1.3728
 9135TIP3    H248821   5.882   3.052  16.952  1.0379  0.9762 -0.8319
 9136TIP3   OH248822   1.044   5.056  15.617  0.5378  0.6936  0.1728
 9136TIP3    H148823   0.957   5.089  15.594  0.7042  0.2865 -1.0819
 9136TIP3    H248824   1.104   5.123  15.584  0.7025  1.6305  2.1774
 9137TIP3   OH248825   1.338   5.118   3.358  0.3603  0.0056  0.4866
 9137TIP3    H148826   1.272   5.177   3.322 -0.7146 -1.0514  0.6370
 9137TIP3    H248827   1.378   5.078   3.282  0.1730 -0.0302  0.4054
 9138TIP3   OH248828   6.565   5.527  11.058 -0.7032 -0.0181 -0.2783
 9138TIP3    H148829   6.633   5.588  11.030 -0.3318 -0.4323 -0.2885
 9138TIP3    H248830   6.582   5.447  11.008  1.4474 -1.6526  2.7312
 9139TIP3   OH248831   0.685   5.380   2.784 -0.0734  0.0960  0.0386
 9139TIP3    H148832   0.664   5.401   2.693 -1.3518 -2.6368 -0.4060
 9139TIP3    H248833   0.773   5.344   2.781  0.1333  0.5870  0.0181
 9140TIP3   OH248834   5.116   4.730  15.339 -0.1661  0.6130  0.4988
 9140TIP3    H148835   5.182   4.718  15.407  0.0811 -1.2427  0.0056
 9140TIP3    H248836   5.159   4.703  15.258 -1.7680 -1.7996  0.3299
 9141TIP3   OH248837   1.813   6.505  16.135  0.0771 -0.6762 -0.3655
 9141TIP3    H148838   1.857   6.453  16.068 -0.6201  1.0703 -2.2631
 9141TIP3    H248839   1.874   6.577  16.153  0.3067 -1.1857  0.9997
 9142TIP3   OH248840   4.818   2.038  12.843  0.4722  0.5197  0.1452
 9142TIP3    H148841   4.722   2.036  12.844  0.4431  1.5557  0.4347
 9142TIP3    H248842   4.841   2.080  12.760  0.6439  1.1446  0.5007
 9143TIP3   OH248843   1.453   3.118  16.912 -1.0751 -0.7538  0.1351
 9143TIP3    H148844   1.546   3.094  16.902 -1.0779 -0.4237 -0.7804
 9143TIP3    H248845   1.423   3.134  16.823 -2.1608 -1.3586  0.3767
 9144TIP3   OH248846   3.710   1.771  17.053 -0.8492  0.2383 -0.0234
 9144TIP3    H148847   3.653   1.787  16.978 -0.7559 -0.9480 -0.3590
 9144TIP3    H248848   3.652   1.778  17.129 -1.5901 -1.4021 -0.3795
 9145TIP3   OH248849   3.796   0.084   3.290  0.1465 -0.0647  0.1168
 9145TIP3    H148850   3.865   0.071   3.226 -0.6306  0.6642 -0.9081
 9145TIP3    H248851   3.777  -0.004   3.323  2.0766 -0.1919  1.0344
 9146TIP3   OH248852   3.124   3.937  14.063 -0.7853 -0.0155  0.1534
 9146TIP3    H148853   3.173   4.012  14.096 -2.9899  2.2535 -1.3170
 9146TIP3    H248854   3.048   3.931  14.120  0.1450 -2.2585  1.2470
 9147TIP3   OH248855   4.365   0.947   3.778 -0.4051  0.5371  0.5939
 9147TIP3    H148856   4.389   0.872   3.724 -2.2737  0.0688  0.3440
 9147TIP3    H248857   4.332   0.910   3.859  1.2052  1.2101  1.6137
 9148TIP3   OH248858   4.646   0.949  12.641  0.0845  0.2709  0.5613
 9148TIP3    H148859   4.565   0.998  12.624 -1.6624 -2.5619  0.1738
 9148TIP3    H248860   4.697   0.961  12.561 -0.6851  0.7150  0.1174
 9149TIP3   OH248861   1.538   2.430   6.981  0.1415 -0.4163 -0.0105
 9149TIP3    H148862   1.453   2.389   6.996  0.5307 -1.4829 -0.5767
 9149TIP3    H248863   1.520   2.501   6.918 -0.3961 -0.3320  0.2377
 9150TIP3   OH248864   5.163   2.425   0.887  0.5994 -0.2183 -0.5700
 9150TIP3    H148865   5.128   2.510   0.915  0.4316 -0.4838  0.0377
 9150TIP3    H248866   5.234   2.407   0.949 -0.0694 -1.0245 -0.0202
 9151TIP3   OH248867   5.383   4.725   3.704 -0.0509 -0.3200 -0.9704
 9151TIP3    H148868   5.407   4.811   3.738 -0.1785 -0.0380 -1.5771
 9151TIP3    H248869   5.465   4.676   3.701 -0.2441 -0.8562  1.1018
 9152TIP3   OH248870   0.958   3.877   3.063 -0.0157 -0.2402 -0.3572
 9152TIP3    H148871   0.979   3.957   3.110 -4.6413  1.0771 -0.0362
 9152TIP3    H248872   0.983   3.895   2.972  2.5069 -0.0676  0.2998
 9153TIP3   OH248873   4.357   3.838  13.064 -0.0432 -0.5854  0.3091
 9153TIP3    H148874   4.323   3.788  12.989 -0.7831 -0.2319  0.3919
 9153TIP3    H248875   4.306   3.806  13.138 -0.4976  0.2363  0.3696
 9154TIP3   OH248876   3.571   1.622  12.265  0.5639 -0.5269 -0.1797
 9154TIP3    H148877   3.616   1.682  12.324 -1.2757  0.3367  0.4154
 9154TIP3    H248878   3.496   1.590  12.315 -2.4807  2.0493 -2.6439
 9155TIP3   OH248879   4.606   6.506  17.220 -0.1193 -0.2343  0.7853
 9155TIP3    H148880   4.621   6.461  17.136 -1.8185 -0.8504  0.7585
 9155TIP3    H248881   4.693   6.516  17.258  0.6935 -0.0795 -0.9734
 9156TIP3   OH248882   1.509   3.212   3.624 -0.2933  0.1354  0.3061
 9156TIP3    H148883   1.583   3.235   3.568 -0.3938 -0.4981 -0.0997
 9156TIP3    H248884   1.432   3.223   3.568 -0.5179  0.9100  0.7629
 9157TIP3   OH248885   4.849   4.780  11.126  0.7879  0.4621  0.0801
 9157TIP3    H148886   4.901   4.776  11.046  1.8404 -0.9207  0.7889
 9157TIP3    H248887   4.892   4.849  11.179  0.6710  0.7165 -0.1557
 9158TIP3   OH248888   4.317   4.362   2.302 -0.8361 -0.4112  0.0997
 9158TIP3    H148889   4.233   4.359   2.255 -0.8627  0.1763  0.1041
 9158TIP3    H248890   4.303   4.308   2.380 -1.0032 -0.8460 -0.2272
 9159TIP3   OH248891   5.733   2.821   5.899 -0.0674  0.3865 -0.3766
 9159TIP3    H148892   5.686   2.858   5.824 -0.0532 -1.1051 -1.1719
 9159TIP3    H248893   5.734   2.891   5.964 -0.1948  1.6868 -1.7190
 9160TIP3   OH248894   6.195   3.240   0.310  0.6868 -0.5316  0.3776
 9160TIP3    H148895   6.153   3.221   0.226 -0.7598 -1.0846  1.1844
 9160TIP3    H248896   6.184   3.334   0.321 -0.3392 -0.6540  0.5389
 9161TIP3   OH248897   2.313   5.715  16.902  0.3294  0.2773  0.0080
 9161TIP3    H148898   2.357   5.738  16.984  1.6214 -0.1314 -0.5488
 9161TIP3    H248899   2.380   5.672  16.849 -0.1110  1.6200 -1.7649
 9162TIP3   OH248900   5.576   6.534  12.418 -0.4590  0.1152  0.4357
 9162TIP3    H148901   5.587   6.447  12.455 -0.0481  0.1885  0.4844
 9162TIP3    H248902   5.524   6.581  12.483 -1.5799 -0.3968 -0.0542
 9163TIP3   OH248903   1.892   2.374   4.878  0.2217  0.1558  0.1410
 9163TIP3    H148904   1.885   2.298   4.936 -2.1527  0.4302  0.3016
 9163TIP3    H248905   1.897   2.337   4.790  1.5362 -0.1977  0.3343
 9164TIP3   OH248906   4.236   5.017  12.006  0.1247 -0.2607 -0.0526
 9164TIP3    H148907   4.273   5.104  11.992 -0.6808 -0.3286 -3.5873
 9164TIP3    H248908   4.141   5.032  12.010  0.0498 -0.8666  0.9646
 9165TIP3   OH248909   1.725   0.368  15.120  0.1043 -0.1678  0.1803
 9165TIP3    H148910   1.780   0.341  15.046  0.6727 -1.2728  0.9727
 9165TIP3    H248911   1.781   0.425  15.172 -0.2903  0.5964 -0.2204
 9166TIP3   OH248912   3.109   4.961  10.844  0.6584 -0.3252 -0.7100
 9166TIP3    H148913   3.178   4.932  10.903  0.5655 -0.4650 -0.6678
 9166TIP3    H248914   3.030   4.919  10.879  0.8188 -1.5409 -1.7341
 9167TIP3   OH248915   3.877   5.909  12.926 -1.0670 -0.2479 -0.2121
 9167TIP3    H148916   3.882   5.904  13.021 -0.5661 -0.5186 -0.2480
 9167TIP3    H248917   3.954   5.862  12.895 -0.7431  0.5902 -0.7371
 9168TIP3   OH248918   1.734   6.552   2.232 -0.0658 -0.0844 -0.0772
 9168TIP3    H148919   1.655   6.497   2.235 -0.9502  1.0783 -1.0232
 9168TIP3    H248920   1.705   6.632   2.187  1.5730  0.5102 -0.1128
 9169TIP3   OH248921   0.702   5.410   1.565  0.3142 -0.1355 -0.2851
 9169TIP3    H148922   0.777   5.387   1.511 -1.4260 -0.2847 -2.7862
 9169TIP3    H248923   0.658   5.326   1.581 -2.0177  0.3538 -3.2163
 9170TIP3   OH248924   2.851   0.901   4.802 -0.9248  0.2194 -0.7176
 9170TIP3    H148925   2.802   0.984   4.806  1.0165  1.5444 -2.2974
 9170TIP3    H248926   2.925   0.920   4.743  0.7665 -2.0374  0.5301
 9171TIP3   OH248927   3.408   5.177   5.517 -0.9824  0.3232  0.0116
 9171TIP3    H148928   3.382   5.191   5.426 -0.5640  0.5000 -0.0865
 9171TIP3    H248929   3.503   5.188   5.516 -1.0710  1.2354  0.6332
 9172TIP3   OH248930   1.300   3.550   3.529 -0.0686  0.6752  0.7611
 9172TIP3    H148931   1.372   3.501   3.489 -0.8949  1.1694 -1.4932
 9172TIP3    H248932   1.222   3.501   3.506 -0.6246  1.1878  1.5038
 9173TIP3   OH248933   0.709   6.461  13.639  0.3214  0.3475  0.2760
 9173TIP3    H148934   0.792   6.442  13.597 -0.5172 -0.5829 -1.0382
 9173TIP3    H248935   0.644   6.416  13.585 -0.9626  0.4221  1.6888
 9174TIP3   OH248936   0.065   3.075   2.213 -0.1774  0.3093 -0.1367
 9174TIP3    H148937   0.147   3.040   2.246 -1.3500 -1.9705  0.5885
 9174TIP3    H248938   0.004   3.068   2.287 -1.5085  0.0974 -1.2109
 9175TIP3   OH248939   4.916   0.249   3.137 -0.1171  0.2762 -0.4070
 9175TIP3    H148940   4.941   0.290   3.220  0.2883  1.6268 -1.1561
 9175TIP3    H248941   4.982   0.180   3.124 -0.6191 -0.4391  0.7277
 9176TIP3   OH248942   3.774   5.194   0.347  0.0347  0.3292  0.1360
 9176TIP3    H148943   3.811   5.249   0.278 -1.4244 -0.3632 -1.2454
 9176TIP3    H248944   3.705   5.143   0.304  0.7856 -2.0313  1.5059
 9177TIP3   OH248945   5.016   6.165  15.223 -0.5672 -0.5314 -0.1107
 9177TIP3    H148946   4.941   6.216  15.252  0.1514  0.1452  0.6009
 9177TIP3    H248947   5.088   6.228  15.219 -0.0985 -1.0978 -1.0896
 9178TIP3   OH248948   3.858   4.052   2.335  0.3667  0.0344  0.6744
 9178TIP3    H148949   3.878   4.135   2.291 -0.3346 -1.0128 -1.7713
 9178TIP3    H248950   3.926   3.992   2.305  0.3696 -0.5395  1.7487
 9179TIP3   OH248951   2.366   1.182   3.109  0.6642  0.2019  0.8893
 9179TIP3    H148952   2.333   1.181   3.019  0.0057  0.3517  1.1295
 9179TIP3    H248953   2.460   1.201   3.100  0.8243 -0.8563  0.1648
 9180TIP3   OH248954   5.052   5.655   2.430 -0.5509 -0.3432  0.0384
 9180TIP3    H148955   5.084   5.663   2.519  1.1312 -0.4678 -0.5221
 9180TIP3    H248956   5.023   5.564   2.422 -2.4700  0.1381  0.9714
 9181TIP3   OH248957   3.338   1.342   5.623 -0.3583 -0.1210  0.2091
 9181TIP3    H148958   3.323   1.256   5.664 -0.3102 -0.0983  0.2726
 9181TIP3    H248959   3.413   1.378   5.669  0.2856 -0.4955 -0.5229
 9182TIP3   OH248960   5.351   0.314   5.432 -0.6740 -0.0848 -0.4713
 9182TIP3    H148961   5.270   0.264   5.436 -0.8660  0.1700 -0.9749
 9182TIP3    H248962   5.383   0.315   5.522 -1.8916  0.8955 -0.0176
 9183TIP3   OH248963   1.463   6.285  11.200 -0.1900  0.8653 -0.0078
 9183TIP3    H148964   1.523   6.323  11.136 -0.3664 -2.2895 -2.2924
 9183TIP3    H248965   1.507   6.297  11.284  2.6100  0.6680 -1.3314
 9184TIP3   OH248966   4.825   0.507  16.043  0.6683 -0.1517  0.0539
 9184TIP3    H148967   4.883   0.467  15.979 -0.5945 -0.7362 -0.7641
 9184TIP3    H248968   4.830   0.450  16.120  2.4135  0.7172  0.6331
 9185TIP3   OH248969   5.983   5.101  11.441 -0.2353  0.0279  0.0052
 9185TIP3    H148970   5.953   5.013  11.419  1.4585  0.0204 -2.6383
 9185TIP3    H248971   5.934   5.159  11.383  2.0001  0.3157 -1.7397
 9186TIP3   OH248972   4.570   2.611  16.237 -0.2899 -0.1008  0.3174
 9186TIP3    H148973   4.545   2.658  16.317  0.1039  1.5415 -0.4728
 9186TIP3    H248974   4.488   2.603  16.188 -0.3751 -0.3280  0.4961
 9187TIP3   OH248975   0.717   0.572   2.169  0.5611  0.1595  0.0863
 9187TIP3    H148976   0.805   0.594   2.139  0.1215  0.9417 -0.6563
 9187TIP3    H248977   0.721   0.478   2.188  1.2605 -0.0407 -0.9974
 9188TIP3   OH248978   0.556   5.736   3.335  0.2230  0.2634  0.1116
 9188TIP3    H148979   0.550   5.743   3.239  0.8534 -0.0893  0.0392
 9188TIP3    H248980   0.597   5.651   3.350 -1.9085 -0.7119  0.7827
 9189TIP3   OH248981   6.593   6.080   1.614 -0.5754  0.1574 -0.4817
 9189TIP3    H148982   6.516   6.037   1.578  0.2869 -1.3870 -0.5919
 9189TIP3    H248983   6.661   6.012   1.613  0.6053  1.2755  0.2137
 9190TIP3   OH248984   0.871   2.187   1.642  0.1339 -0.6000  0.3308
 9190TIP3    H148985   0.868   2.101   1.599  0.0152 -0.2993 -0.2824
 9190TIP3    H248986   0.844   2.170   1.732  0.5391 -1.2773  0.3304
 9191TIP3   OH248987   5.556   5.324  16.109 -0.3065  0.1652  0.0218
 9191TIP3    H148988   5.644   5.319  16.145  0.1320 -2.4099 -1.1776
 9191TIP3    H248989   5.503   5.267  16.166 -0.7840  0.2810 -0.2958
 9192TIP3   OH248990   1.086   0.542   5.942 -0.0426 -0.3415 -0.6791
 9192TIP3    H148991   1.099   0.472   5.879 -0.8156  0.8296 -2.2022
 9192TIP3    H248992   1.159   0.533   6.004  0.0081 -2.2941 -0.9838
 9193TIP3   OH248993   2.579   6.571   3.653 -0.1189 -0.2376 -1.2449
 9193TIP3    H148994   2.604   6.480   3.638  0.4077 -0.0106 -1.8111
 9193TIP3    H248995   2.662   6.619   3.649 -0.2866  0.1689 -0.1161
 9194TIP3   OH248996   4.224   1.227   1.429  0.3032  0.2865 -0.6289
 9194TIP3    H148997   4.295   1.280   1.391  1.6904 -0.5730  0.6480
 9194TIP3    H248998   4.254   1.206   1.517 -1.6312 -0.0127  0.0008
 9195TIP3   OH248999   3.150   3.403   5.469  0.1193 -0.3201 -0.1791
 9195TIP3    H149000   3.228   3.454   5.448  0.4585 -0.3743  0.9018
 9195TIP3    H249001   3.081   3.440   5.413  0.9149 -0.2987 -1.1711
 9196TIP3   OH249002   3.557   0.716  10.898 -0.1285  0.4983  0.0610
 9196TIP3    H149003   3.487   0.689  10.838  0.1543 -0.5024  0.1590
 9196TIP3    H249004   3.542   0.809  10.913  0.0285  0.8861 -1.9088
 9197TIP3   OH249005   6.589   0.566  17.176 -0.3143 -0.2481  1.0054
 9197TIP3    H149006   6.495   0.580  17.177 -0.1546  0.9402  0.9193
 9197TIP3    H249007   6.613   0.558  17.268 -0.8820 -3.7171  0.9803
 9198TIP3   OH249008   2.610   2.888  11.360 -0.6538 -0.7879  0.1727
 9198TIP3    H149009   2.620   2.926  11.273 -0.5917  1.1229  0.9665
 9198TIP3    H249010   2.582   2.961  11.415  0.2788 -1.7149  1.9666
 9199TIP3   OH249011   5.924   5.635  12.431  0.1880 -0.3346  0.0134
 9199TIP3    H149012   5.998   5.649  12.371  1.0272 -1.2875  0.7960
 9199TIP3    H249013   5.857   5.593  12.377 -0.2145  1.4291 -0.9541
 9200TIP3   OH249014   2.181   4.851  13.136  0.0119  0.5390 -0.3090
 9200TIP3    H149015   2.125   4.864  13.060 -0.4832  1.7539  0.2331
 9200TIP3    H249016   2.220   4.937  13.153 -0.6720  0.5690  1.3893
 9201TIP3   OH249017   2.150   0.950   4.205  0.5676 -0.1461 -0.3916
 9201TIP3    H149018   2.134   0.878   4.145 -1.2188 -0.2665  0.1668
 9201TIP3    H249019   2.137   1.029   4.151 -0.3723 -0.2552 -0.3451
 9202TIP3   OH249020   1.827   2.136  15.038  0.1141  0.3539  0.1144
 9202TIP3    H149021   1.741   2.127  14.996  0.1699  1.1524 -0.1896
 9202TIP3    H249022   1.868   2.209  14.992  1.2874 -0.5455 -0.2861
 9203TIP3   OH249023   5.578   1.339   0.978 -0.8181 -0.0130 -0.4735
 9203TIP3    H149024   5.663   1.354   1.019 -2.2341  0.9401  2.4610
 9203TIP3    H249025   5.593   1.350   0.884  2.5349 -1.3989 -0.2139
 9204TIP3   OH249026   5.356   0.212   1.068  0.4078  0.0859 -0.7413
 9204TIP3    H149027   5.319   0.130   1.102 -1.2113  0.9174 -0.3736
 9204TIP3    H249028   5.443   0.218   1.108  0.4599 -1.3400 -0.6094
 9205TIP3   OH249029   0.955   3.738   6.353 -0.0751 -0.4720 -0.2358
 9205TIP3    H149030   0.929   3.830   6.351  1.3248 -0.0685 -1.7383
 9205TIP3    H249031   1.037   3.737   6.402  0.3326 -0.7850 -0.9100
 9206TIP3   OH249032   2.717   3.587  17.132  0.1373 -0.0700  0.1227
 9206TIP3    H149033   2.635   3.536  17.135  0.2910 -0.4542 -1.2559
 9206TIP3    H249034   2.693   3.672  17.167 -0.4127 -0.7298  1.4167
 9207TIP3   OH249035   6.050   6.417  12.678  0.1194  0.4555 -0.5930
 9207TIP3    H149036   5.955   6.419  12.672  0.1573  2.4219 -1.2299
 9207TIP3    H249037   6.068   6.446  12.768  0.1382 -1.0427 -0.0770
 9208TIP3   OH249038   4.933   2.215  16.936 -0.3420  0.3067  0.2679
 9208TIP3    H149039   4.900   2.194  16.849  1.8486 -1.3640 -0.2530
 9208TIP3    H249040   4.992   2.289  16.922  0.3008 -0.2019  0.2397
 9209TIP3   OH249041   2.650   0.038  15.368 -0.6405  0.3934 -0.1814
 9209TIP3    H149042   2.627   0.110  15.309  2.1277  0.3073 -1.5241
 9209TIP3    H249043   2.641  -0.041  15.314  1.3287  0.2664 -0.4185
 9210TIP3   OH249044   1.210   4.285   1.684 -0.6481 -0.3029 -0.6633
 9210TIP3    H149045   1.144   4.341   1.643 -0.5826  0.6377  0.4832
 9210TIP3    H249046   1.281   4.280   1.619 -0.4815  1.2832 -0.6420
 9211TIP3   OH249047   6.475   6.612   3.681 -0.2220  0.8196 -0.1371
 9211TIP3    H149048   6.528   6.642   3.607 -0.1130  0.6280 -0.1371
 9211TIP3    H249049   6.468   6.688   3.738  0.5141  0.6948  0.1318
 9212TIP3   OH249050   5.327   2.243  15.919 -0.0644  0.0518 -0.1849
 9212TIP3    H149051   5.298   2.310  15.981  2.8597  1.7468 -0.4330
 9212TIP3    H249052   5.383   2.290  15.857 -0.8527 -2.0367 -2.6651
 9213TIP3   OH249053   5.328   3.482   4.188  0.2062 -0.1262  0.1128
 9213TIP3    H149054   5.266   3.496   4.259  1.8786 -0.7701  1.7919
 9213TIP3    H249055   5.412   3.513   4.223  1.5978 -2.8803 -0.5059
 9214TIP3   OH249056   1.207   2.616   3.603 -0.1960  0.1092 -0.5651
 9214TIP3    H149057   1.199   2.711   3.595 -0.1948  0.0552 -1.3624
 9214TIP3    H249058   1.215   2.599   3.697  1.2026  1.0103 -0.5021
 9215TIP3   OH249059   5.580   5.833  11.820  0.4173  0.5013  0.1255
 9215TIP3    H149060   5.655   5.774  11.823  0.2306  0.0485 -2.1384
 9215TIP3    H249061   5.528   5.801  11.746 -1.1250  1.8399  0.5849
 9216TIP3   OH249062   0.962   5.210  17.154 -0.4034  0.3520  0.0710
 9216TIP3    H149063   0.988   5.183  17.066  0.0481 -0.2479  0.3811
 9216TIP3    H249064   0.885   5.156  17.174 -0.5617  0.5533  0.0142
 9217TIP3   OH249065   0.240   5.600   2.788  0.1339  0.3919 -0.2124
 9217TIP3    H149066   0.283   5.685   2.786 -0.8498  0.9188  0.3941
 9217TIP3    H249067   0.152   5.616   2.754 -0.4837 -0.1009  1.0713
 9218TIP3   OH249068   2.868   5.393   0.869 -0.0842 -0.0070 -0.0172
 9218TIP3    H149069   2.829   5.306   0.872 -0.7824  0.3144  0.6758
 9218TIP3    H249070   2.813   5.446   0.927 -0.7568  1.3308 -1.7966
 9219TIP3   OH249071   0.677   5.566  16.867  0.3384  0.3549  0.0284
 9219TIP3    H149072   0.759   5.580  16.915  0.0637 -1.2801  1.0555
 9219TIP3    H249073   0.705   5.524  16.786  0.8077  3.1461 -1.3591
 9220TIP3   OH249074   2.481   5.268   1.430  0.4900 -0.2596 -0.0972
 9220TIP3    H149075   2.522   5.188   1.399 -0.0363 -1.7050  2.6002
 9220TIP3    H249076   2.437   5.243   1.512  0.0820  2.7176  0.7381
 9221TIP3   OH249077   4.965   4.391   0.137  0.2234  0.1378  0.1838
 9221TIP3    H149078   4.877   4.356   0.125  1.0874 -1.7009 -1.3730
 9221TIP3    H249079   5.019   4.342   0.075  2.6871 -0.0965  2.3253
 9222TIP3   OH249080   3.830   5.628  13.358  0.8574  0.2286  0.2836
 9222TIP3    H149081   3.893   5.665  13.420  1.0622  2.2629 -1.0675
 9222TIP3    H249082   3.762   5.694  13.350  0.1742 -0.5547 -0.7121
 9223TIP3   OH249083   4.535   1.590  15.845  0.2653  0.6395  0.1726
 9223TIP3    H149084   4.531   1.543  15.762  1.7358 -1.5926  1.2697
 9223TIP3    H249085   4.474   1.663  15.835  2.0471  1.8373 -3.7061
 9224TIP3   OH249086   0.711   3.323  17.075  0.6066 -0.5354 -0.6284
 9224TIP3    H149087   0.797   3.281  17.075  1.2684  0.7373  0.7611
 9224TIP3    H249088   0.725   3.407  17.033 -0.0196 -0.4153 -0.6116
 9225TIP3   OH249089   3.801   2.015   2.791  0.3984 -0.4482  0.0002
 9225TIP3    H149090   3.857   2.093   2.797 -0.2267  0.1386 -1.4503
 9225TIP3    H249091   3.798   1.995   2.698  0.4079 -2.1329  0.3292
 9226TIP3   OH249092   3.823   2.283  11.486  0.2826  0.0583  0.9018
 9226TIP3    H149093   3.778   2.230  11.552 -1.1347 -1.0426 -0.8707
 9226TIP3    H249094   3.768   2.277  11.408  1.3976  2.1275 -0.1162
 9227TIP3   OH249095   6.735   3.172  14.928 -0.3612 -0.4884 -0.0040
 9227TIP3    H149096   6.798   3.238  14.956 -1.8566  0.2324  1.8983
 9227TIP3    H249097   6.784   3.090  14.928  0.5911  0.0425  1.4187
 9228TIP3   OH249098   5.295   0.393  13.591 -0.0663  0.2209 -0.3924
 9228TIP3    H149099   5.243   0.434  13.523  1.0590  0.2383 -1.2799
 9228TIP3    H249100   5.380   0.376  13.549  0.5850  0.0550  0.9485
 9229TIP3   OH249101   5.671   0.280   6.174  0.2265 -0.3218 -0.0748
 9229TIP3    H149102   5.650   0.336   6.248 -3.5584 -1.2344 -0.2155
 9229TIP3    H249103   5.709   0.201   6.213  0.0507 -0.0296  0.7014
 9230TIP3   OH249104   2.587   5.750  17.030 -1.0839 -0.1293  0.6385
 9230TIP3    H149105   2.665   5.804  17.024 -0.8383 -0.6649 -1.7922
 9230TIP3    H249106   2.609   5.683  17.096 -0.0769  0.5854  1.0537
 9231TIP3   OH249107   4.016   2.314  14.975 -0.8030  0.0126  0.5138
 9231TIP3    H149108   4.056   2.338  15.059 -0.1694 -0.9531  0.5078
 9231TIP3    H249109   4.040   2.385  14.916  1.1753 -0.6333  0.4552
 9232TIP3   OH249110   1.312   0.756   2.455  0.8399  0.7234 -0.0019
 9232TIP3    H149111   1.231   0.705   2.460  1.3667 -0.3683 -1.7552
 9232TIP3    H249112   1.373   0.700   2.408  1.2935  3.1058 -2.5542
 9233TIP3   OH249113   2.673   4.994   3.768  0.1426  0.4869  0.0634
 9233TIP3    H149114   2.667   5.089   3.762 -0.1734  0.3593 -2.5353
 9233TIP3    H249115   2.767   4.977   3.781  0.3650  1.1220 -0.6619
 9234TIP3   OH249116   3.727   4.079   5.396  0.3946 -0.0926 -0.2911
 9234TIP3    H149117   3.818   4.070   5.367  0.0774 -1.4581 -0.9511
 9234TIP3    H249118   3.728   4.051   5.488  0.9807  1.9299  0.3652
 9235TIP3   OH249119   1.636   6.711   3.284  0.2763 -0.3299 -0.7365
 9235TIP3    H149120   1.546   6.737   3.265 -0.0370 -1.1701 -0.4528
 9235TIP3    H249121   1.636   6.687   3.376  0.6965 -0.6962 -0.8231
 9236TIP3   OH249122   0.966   4.371   5.807  0.4140  0.4143 -0.2689
 9236TIP3    H149123   0.931   4.389   5.894  2.0211 -0.7444  0.6660
 9236TIP3    H249124   1.018   4.291   5.817  2.0758  1.1942 -1.8798
 9237TIP3   OH249125   3.144   3.371  12.147  0.4586  0.1486 -0.1948
 9237TIP3    H149126   3.079   3.302  12.137 -0.6396  1.2554 -0.8966
 9237TIP3    H249127   3.109   3.427  12.216  2.0581 -0.7509  1.4266
 9238TIP3   OH249128   3.658   3.679   0.522 -0.5023 -0.4924 -0.2233
 9238TIP3    H149129   3.718   3.735   0.473 -1.2852 -0.5602 -1.2959
 9238TIP3    H249130   3.612   3.738   0.582  0.6388 -0.4481  0.6419
 9239TIP3   OH249131   1.481   0.063  13.350  0.9240  0.1047 -0.0963
 9239TIP3    H149132   1.533   0.047  13.271  0.5553  0.4884 -0.4134
 9239TIP3    H249133   1.524   0.138  13.392 -0.4407  1.6248 -1.3100
 9240TIP3   OH249134   5.992   1.813   5.463 -0.0339  0.1998  0.2532
 9240TIP3    H149135   6.027   1.755   5.395 -1.8801 -1.0797  0.3163
 9240TIP3    H249136   6.069   1.854   5.502  1.5340 -3.3386  1.2219
 9241TIP3   OH249137   6.503   3.942   3.751  0.4346 -0.1964 -0.3952
 9241TIP3    H149138   6.464   3.855   3.746 -0.6984  0.3381 -1.7004
 9241TIP3    H249139   6.546   3.953   3.666 -0.1474  0.8118 -0.5800
 9242TIP3   OH249140   1.234   6.388   2.378 -0.3034 -0.5503  0.0353
 9242TIP3    H149141   1.204   6.373   2.468  2.4613 -0.7639  1.0031
 9242TIP3    H249142   1.218   6.305   2.333 -0.7279 -0.7932  0.6273
 9243TIP3   OH249143   0.033   4.718   5.382 -0.1539 -0.6551 -0.1224
 9243TIP3    H149144   0.090   4.679   5.447  1.0961 -1.0961 -1.4189
 9243TIP3    H249145  -0.054   4.687   5.404  0.0649  0.0637  1.9358
 9244TIP3   OH249146   0.570   2.477  16.533 -0.4082 -0.0658  0.2083
 9244TIP3    H149147   0.498   2.525  16.491  0.3035  1.1319  0.3333
 9244TIP3    H249148   0.526   2.415  16.591 -1.3521  0.2717 -0.1239
 9245TIP3   OH249149   4.058   4.313  16.099 -0.0279 -0.1886 -0.5265
 9245TIP3    H149150   4.035   4.319  16.007  2.4742  1.4043 -1.1338
 9245TIP3    H249151   3.973   4.315  16.145 -1.2734  0.7857 -2.7062
 9246TIP3   OH249152   1.163   1.174  14.148 -0.2222  0.3032  0.4587
 9246TIP3    H149153   1.233   1.228  14.184 -0.2333  1.0249 -0.5433
 9246TIP3    H249154   1.125   1.130  14.224  0.7520  0.5650  1.1196
 9247TIP3   OH249155   6.479   2.049  14.673 -0.3950 -0.0326 -0.3844
 9247TIP3    H149156   6.529   1.984  14.624 -0.2222  0.7704 -1.2935
 9247TIP3    H249157   6.501   2.133  14.633 -1.1265  0.5292  0.3363
 9248TIP3   OH249158   0.147   2.871  13.330  0.2263 -0.2623 -0.0519
 9248TIP3    H149159   0.227   2.831  13.295  0.4734 -0.3534  0.6002
 9248TIP3    H249160   0.080   2.804  13.318  1.1612 -2.1471  3.5424
 9249TIP3   OH249161   6.421   5.200   3.996 -0.3838 -0.8424 -0.3577
 9249TIP3    H149162   6.405   5.233   4.085 -0.7849  0.1545 -0.7962
 9249TIP3    H249163   6.347   5.231   3.945  1.2342  1.0414 -1.6895
 9250TIP3   OH249164   0.280   3.929   1.070 -0.0315 -0.2132  0.0540
 9250TIP3    H149165   0.193   3.900   1.045  0.2659 -0.8011 -0.3146
 9250TIP3    H249166   0.328   3.937   0.988  0.1711  0.4266  0.2260
 9251TIP3   OH249167   1.664   6.487   0.821 -0.1298 -0.4955 -0.1793
 9251TIP3    H149168   1.591   6.547   0.806  1.4675  1.2693 -1.2622
 9251TIP3    H249169   1.717   6.493   0.741  2.0035 -0.5189  1.1607
 9252TIP3   OH249170   5.936   2.056   5.668  0.7231  0.0206 -0.2176
 9252TIP3    H149171   6.027   2.044   5.694  0.2618 -0.5688  1.2520
 9252TIP3    H249172   5.907   2.131   5.719  0.4985  0.4854 -1.0166
 9253TIP3   OH249173   2.731   6.096  16.740  0.0648 -0.2047 -0.0349
 9253TIP3    H149174   2.650   6.094  16.790  0.9464 -1.8777  1.4109
 9253TIP3    H249175   2.716   6.038  16.666  0.3701 -1.6119  0.9802
 9254TIP3   OH249176   1.997   3.149   1.610  0.2694  0.7524  0.1465
 9254TIP3    H149177   2.091   3.142   1.594  0.2707  1.2661 -0.1082
 9254TIP3    H249178   1.989   3.159   1.705  0.4129 -0.1168  0.2547
 9255TIP3   OH249179   3.869   4.572  16.814 -0.2709  0.1576  0.4109
 9255TIP3    H149180   3.905   4.646  16.766  0.0941  1.3357  2.3762
 9255TIP3    H249181   3.897   4.495  16.765 -0.9557  1.2839 -1.8999
 9256TIP3   OH249182   2.331   5.049  13.671  0.2699 -0.4525  0.5423
 9256TIP3    H149183   2.311   5.063  13.579 -1.4439 -0.5798  0.8702
 9256TIP3    H249184   2.407   4.991  13.670  0.0305 -0.7800 -0.7909
 9257TIP3   OH249185   0.689   4.313   4.652 -0.4617  0.2224  0.0324
 9257TIP3    H149186   0.745   4.334   4.726  0.2215  0.4148 -0.5274
 9257TIP3    H249187   0.691   4.391   4.597 -0.3171 -0.2003 -0.5769
 9258TIP3   OH249188   0.074   5.280  11.788  0.2076  0.3432 -0.3692
 9258TIP3    H149189   0.068   5.314  11.699  1.3201  1.1528 -0.1578
 9258TIP3    H249190   0.143   5.213  11.783  0.9818  1.0881  0.0671
 9259TIP3   OH249191   6.421   2.706   6.287  0.1435  0.5287 -0.7022
 9259TIP3    H149192   6.501   2.721   6.336  1.7330 -1.4483 -2.5211
 9259TIP3    H249193   6.425   2.614   6.261 -1.1809  1.1453 -3.4504
 9260TIP3   OH249194   2.640   3.284   2.892 -0.2208  0.4915 -0.1914
 9260TIP3    H149195   2.549   3.271   2.920  0.4550 -1.8738  1.0877
 9260TIP3    H249196   2.632   3.312   2.800 -2.2452  1.4644  0.2111
 9261TIP3   OH249197   6.541   3.321   5.822  0.0206  0.0967  0.0036
 9261TIP3    H149198   6.544   3.389   5.754  1.3060  1.9223  1.7714
 9261TIP3    H249199   6.615   3.341   5.879  0.1252 -2.5418  0.9070
 9262TIP3   OH249200   4.418   4.077   3.878  0.2300  0.2361 -0.2401
 9262TIP3    H149201   4.347   4.070   3.813 -0.1512 -0.7379  0.2601
 9262TIP3    H249202   4.405   4.002   3.935  1.7259 -0.0005 -0.1736
 9263TIP3   OH249203   4.015   5.256   1.549  0.0142  0.1198  0.5797
 9263TIP3    H149204   3.964   5.176   1.535  0.3410  0.0936 -0.6402
 9263TIP3    H249205   4.052   5.275   1.462  2.1120  0.0930  1.4094
 9264TIP3   OH249206   5.868   0.280  16.221  0.1809 -0.1968 -0.5767
 9264TIP3    H149207   5.945   0.228  16.197  0.3974  0.5488 -1.6082
 9264TIP3    H249208   5.867   0.351  16.157  0.2060  1.3871  1.1091
 9265TIP3   OH249209   4.789   3.218  11.308 -0.2063  0.0962  1.0090
 9265TIP3    H149210   4.725   3.289  11.297 -0.2365  0.0668  0.9965
 9265TIP3    H249211   4.789   3.173  11.224 -0.1070  0.1479  0.9818
 9266TIP3   OH249212   0.168   6.296   4.142 -0.3472  0.0617  0.3207
 9266TIP3    H149213   0.082   6.317   4.178 -0.4737  0.6329 -0.3042
 9266TIP3    H249214   0.200   6.378   4.105 -0.3483 -0.5634 -1.1204
 9267TIP3   OH249215   5.571   4.867  11.950  0.3153 -0.1537  0.2631
 9267TIP3    H149216   5.601   4.957  11.962 -0.5205 -0.1268  3.0182
 9267TIP3    H249217   5.479   4.876  11.925  0.0312 -0.2020  1.2431
 9268TIP3   OH249218   2.995   3.246   1.347 -0.0168 -0.5901  0.6142
 9268TIP3    H149219   3.057   3.303   1.392  0.1878 -0.9895  0.8430
 9268TIP3    H249220   2.919   3.242   1.404 -0.7203  0.7910 -0.1795
 9269TIP3   OH249221   0.297   3.124   5.779  0.3238  0.0381  0.4325
 9269TIP3    H149222   0.352   3.102   5.854  0.9748  1.3734  0.3815
 9269TIP3    H249223   0.219   3.069   5.789  0.2323  0.4274  2.2810
 9270TIP3   OH249224   2.779   0.703  17.077 -0.4907  0.3015 -0.9093
 9270TIP3    H149225   2.774   0.625  17.021 -2.2861 -1.0797  0.9722
 9270TIP3    H249226   2.754   0.670  17.164  1.0876  2.5426  0.4749
 9271TIP3   OH249227   3.576   4.633   5.770  0.0157 -0.1215 -0.2517
 9271TIP3    H149228   3.480   4.626   5.761 -0.1998 -0.3330  1.7264
 9271TIP3    H249229   3.593   4.604   5.859  2.5193 -5.4160 -2.0287
 9272TIP3   OH249230   5.598   5.786  13.560  0.4484 -0.1181 -0.3390
 9272TIP3    H149231   5.541   5.753  13.629 -1.1228  2.7963 -0.0702
 9272TIP3    H249232   5.615   5.710  13.505 -2.2485 -1.5487  0.6045
 9273TIP3   OH249233   3.208   1.603   3.407 -0.5516  0.3055  0.0670
 9273TIP3    H149234   3.114   1.621   3.396 -0.5389 -0.2516 -1.2007
 9273TIP3    H249235   3.221   1.600   3.501 -1.4566  2.1728  0.3096
 9274TIP3   OH249236   5.549   4.251   5.551  0.5961  0.1532 -0.1460
 9274TIP3    H149237   5.543   4.167   5.596  0.2883  0.0766 -0.3238
 9274TIP3    H249238   5.550   4.229   5.458 -4.9837  0.4021 -0.6356
 9275TIP3   OH249239   0.221   2.449   2.473  0.0494  0.0264  0.2811
 9275TIP3    H149240   0.186   2.505   2.542  0.5128  3.2183 -1.8488
 9275TIP3    H249241   0.238   2.509   2.400  0.5629 -2.9549 -2.2633
 9276TIP3   OH249242   0.979   4.878   5.528  0.2144 -1.0156  0.5001
 9276TIP3    H149243   1.008   4.827   5.604  2.7100  2.0089  1.8619
 9276TIP3    H249244   1.048   4.866   5.463 -0.7567 -1.7817 -0.4083
 9277TIP3   OH249245   3.788   0.688  15.695 -0.7545  0.0853 -0.0726
 9277TIP3    H149246   3.699   0.722  15.682 -0.1263  1.5138 -0.7942
 9277TIP3    H249247   3.803   0.633  15.618 -1.2486 -0.7243  0.3925
 9278TIP3   OH249248   0.914   5.105   1.201 -0.0881 -0.2203 -0.5802
 9278TIP3    H149249   0.979   5.074   1.138  0.9384  2.0177 -0.6919
 9278TIP3    H249250   0.965   5.129   1.278 -0.6846  2.0526 -0.8419
 9279TIP3   OH249251   1.721   3.024  15.682 -0.1831  0.2275 -0.0440
 9279TIP3    H149252   1.668   3.050  15.757  0.0084 -0.3810  0.3135
 9279TIP3    H249253   1.763   2.943  15.711 -0.6533 -0.3922 -1.0671
 9280TIP3   OH249254   6.567   5.592   4.665  0.2453 -0.1296 -0.1110
 9280TIP3    H149255   6.474   5.607   4.644 -0.2447 -1.4202  1.0025
 9280TIP3    H249256   6.581   5.643   4.745  0.3268 -0.4288  0.0657
 9281TIP3   OH249257   3.820   1.303  13.457 -0.2647  0.3960 -0.1293
 9281TIP3    H149258   3.832   1.210  13.434 -1.2414  0.2692 -0.1642
 9281TIP3    H249259   3.725   1.314  13.464 -0.2600  1.7506 -1.6038
 9282TIP3   OH249260   5.026   3.930   5.806 -0.4584 -0.0896 -0.1018
 9282TIP3    H149261   5.076   3.940   5.725  0.1816 -0.3268  0.2493
 9282TIP3    H249262   4.967   4.005   5.808 -0.4072 -0.0240 -0.7301
 9283TIP3   OH249263   6.614   2.269   1.720  0.0028  0.0690 -0.5571
 9283TIP3    H149264   6.642   2.347   1.768 -2.0691  0.5424 -0.0130
 9283TIP3    H249265   6.555   2.303   1.652 -0.8312 -1.0064 -0.3954
 9284TIP3   OH249266   0.361   5.980  11.565 -0.1977  0.2484 -0.3530
 9284TIP3    H149267   0.417   5.959  11.640  0.2376 -2.6048 -1.3298
 9284TIP3    H249268   0.422   6.001  11.494 -0.3029 -1.7855 -1.1196
 9285TIP3   OH249269   4.348   3.248  13.027 -0.3680 -0.1491 -0.2049
 9285TIP3    H149270   4.441   3.248  13.004 -0.6407  0.4307 -1.4026
 9285TIP3    H249271   4.326   3.155  13.040 -0.8024 -1.0927 -5.3580
 9286TIP3   OH249272   5.366   0.202  11.075  0.2104  0.2998  0.4712
 9286TIP3    H149273   5.318   0.185  11.157 -0.7904 -2.8790 -0.6145
 9286TIP3    H249274   5.333   0.286  11.044 -2.3465 -0.2800  1.3972
 9287TIP3   OH249275   1.351   4.999   1.726 -0.4360  0.1122  0.1112
 9287TIP3    H149276   1.389   4.916   1.755  1.6169  1.1444  0.5318
 9287TIP3    H249277   1.383   5.063   1.790 -0.9266  1.4316 -0.9334
 9288TIP3   OH249278   3.857   0.301   3.416 -0.2023 -0.2065 -0.2172
 9288TIP3    H149279   3.841   0.215   3.377  1.9715 -0.3021 -1.0501
 9288TIP3    H249280   3.801   0.361   3.367 -1.4331 -1.0636  0.0981
 9289TIP3   OH249281   2.806   3.880   1.966 -0.0765 -0.1179 -0.2120
 9289TIP3    H149282   2.876   3.824   1.933 -0.6828 -1.2891  0.4222
 9289TIP3    H249283   2.802   3.861   2.060 -1.8471 -0.7822 -0.3936
 9290TIP3   OH249284   4.108   2.974   6.234  0.0799  0.5562 -0.0218
 9290TIP3    H149285   4.077   2.969   6.325  2.9550  0.8114  1.0888
 9290TIP3    H249286   4.068   2.899   6.190  0.5951 -1.0809  2.1405
 9291TIP3   OH249287   1.190   1.017   5.284 -0.2048  0.6795 -0.8001
 9291TIP3    H149288   1.126   1.044   5.218  0.1503  1.6563 -0.7656
 9291TIP3    H249289   1.263   0.982   5.234 -0.6160 -0.1255 -0.8517
 9292TIP3   OH249290   5.102   2.465   3.021  0.7122  0.0106 -0.0066
 9292TIP3    H149291   5.081   2.556   3.044  1.9269  0.3174 -0.0297
 9292TIP3    H249292   5.149   2.431   3.097  2.8416  0.3507 -1.0935
 9293TIP3   OH249293   6.324   3.465  16.990  1.2518 -0.1619 -0.0861
 9293TIP3    H149294   6.418   3.450  17.005  1.1915 -1.4142 -0.8322
 9293TIP3    H249295   6.308   3.428  16.903  0.0760  0.1132  0.0026
 9294TIP3   OH249296   0.374   6.619  16.153  0.3215 -0.2945 -0.1147
 9294TIP3    H149297   0.347   6.657  16.236  2.0461  2.3179 -0.6076
 9294TIP3    H249298   0.465   6.591  16.167  0.8268  0.6852 -1.2002
 9295TIP3   OH249299   2.759   5.077  14.121  0.1840  0.0868 -0.0075
 9295TIP3    H149300   2.690   5.133  14.156  0.1641  0.3200 -0.4141
 9295TIP3    H249301   2.807   5.133  14.061  0.8759 -0.0051  0.4517
 9296TIP3   OH249302   5.603   1.416   3.470  0.3652  0.1146 -0.2114
 9296TIP3    H149303   5.665   1.417   3.543 -0.2614  0.3514  0.3264
 9296TIP3    H249304   5.523   1.378   3.506  0.2493 -0.3533 -0.9477
 9297TIP3   OH249305   6.732   1.014   0.643  0.4781 -0.0268  0.1171
 9297TIP3    H149306   6.697   0.957   0.574  0.9993  0.0609 -0.2244
 9297TIP3    H249307   6.817   0.975   0.665  2.2388  2.1601 -2.1393
 9298TIP3   OH249308   2.206   2.395   3.125  0.4263 -0.5458 -0.3355
 9298TIP3    H149309   2.212   2.349   3.041  0.6046 -0.1627 -0.5312
 9298TIP3    H249310   2.121   2.438   3.123  0.5559 -0.2973 -0.4385
 9299TIP3   OH249311   5.393   5.793  16.379  0.3832  0.0128  0.4202
 9299TIP3    H149312   5.349   5.878  16.388  1.4562  0.7078 -0.6093
 9299TIP3    H249313   5.336   5.743  16.320  0.5995  0.6518 -0.3525
 9300TIP3   OH249314   6.688   0.091   0.290  0.7097  0.5444 -0.2296
 9300TIP3    H149315   6.624   0.048   0.346  0.0936 -1.1152 -2.0827
 9300TIP3    H249316   6.767   0.099   0.344 -0.0518 -0.3516  1.0590
 9301TIP3   OH249317   0.567   4.363   0.082 -0.5923  0.5088 -0.1531
 9301TIP3    H149318   0.558   4.290   0.020 -1.9508  0.6177 -0.1245
 9301TIP3    H249319   0.594   4.321   0.164  0.0361  0.2204 -0.5013
 9302TIP3   OH249320   4.653   6.142  13.744 -0.2359 -0.6037  0.0998
 9302TIP3    H149321   4.741   6.180  13.744 -1.0227  1.4123 -1.1010
 9302TIP3    H249322   4.628   6.140  13.836  0.3380  0.7153  0.3178
 9303TIP3   OH249323   2.041   3.805  12.996  0.6066 -0.6619 -0.2351
 9303TIP3    H149324   2.006   3.741  13.058 -1.1829 -0.4167 -0.9571
 9303TIP3    H249325   2.074   3.876  13.052  0.3444 -1.0881  0.4798
 9304TIP3   OH249326   3.474   5.267  14.095 -0.5265 -0.0461 -0.0114
 9304TIP3    H149327   3.390   5.313  14.096 -1.1374 -0.9898  3.0453
 9304TIP3    H249328   3.481   5.228  14.182  1.7857 -2.4013 -1.1148
 9305TIP3   OH249329   4.229   0.668  15.845 -0.2673 -0.1345 -0.5121
 9305TIP3    H149330   4.141   0.665  15.884 -0.5653  0.5536 -1.1160
 9305TIP3    H249331   4.215   0.691  15.754  0.5252 -0.3967 -0.7134
 9306TIP3   OH249332   3.556   4.981   1.823  0.4512  0.6163 -0.4303
 9306TIP3    H149333   3.647   5.009   1.828  1.0337 -1.1371 -0.8045
 9306TIP3    H249334   3.555   4.913   1.756 -1.4107  1.5942 -1.4987
 9307TIP3   OH249335   0.602   5.169   1.631 -0.1834  0.6276  0.4723
 9307TIP3    H149336   0.557   5.085   1.616 -0.1319  0.6512  0.1776
 9307TIP3    H249337   0.545   5.215   1.692 -0.4705  0.5808  0.2428
 9308TIP3   OH249338   5.240   3.610   1.778 -0.3148  0.4082  0.5232
 9308TIP3    H149339   5.172   3.614   1.711 -1.6718 -0.9261  1.7379
 9308TIP3    H249340   5.296   3.686   1.760 -0.1554 -0.3166 -2.5324
 9309TIP3   OH249341   4.603   4.685  15.986 -0.2529 -0.5139 -0.0327
 9309TIP3    H149342   4.618   4.592  16.002  0.8486 -0.3178  0.1879
 9309TIP3    H249343   4.516   4.702  16.022  0.5771 -0.9142  2.3159
 9310TIP3   OH249344   2.714   4.783  12.380  0.1475  0.2142 -0.4619
 9310TIP3    H149345   2.696   4.802  12.288  0.0720  1.7451 -0.1555
 9310TIP3    H249346   2.810   4.776  12.385  0.1039 -0.7227 -0.7966
 9311TIP3   OH249347   0.662   1.532  12.407  0.5975  0.0960  0.4571
 9311TIP3    H149348   0.705   1.537  12.493 -0.8188 -0.0692  1.1995
 9311TIP3    H249349   0.618   1.447  12.407 -1.4073  1.0799  0.5700
 9312TIP3   OH249350   5.348   1.759  14.702 -0.2164 -0.1775  0.1883
 9312TIP3    H149351   5.437   1.755  14.736  0.8709  0.9289 -2.3107
 9312TIP3    H249352   5.335   1.851  14.679 -1.1900 -0.6867 -1.4751
 9313TIP3   OH249353   0.483   5.923  13.133  0.0183  0.2040  0.1717
 9313TIP3    H149354   0.455   5.852  13.076  2.2609 -0.5159 -0.1206
 9313TIP3    H249355   0.460   5.894  13.221  1.3559 -1.1539  0.1069
 9314TIP3   OH249356   3.936   1.413  14.114  0.0401 -0.0400  0.4399
 9314TIP3    H149357   3.922   1.345  14.179 -1.7195 -0.1957 -0.0663
 9314TIP3    H249358   3.929   1.495  14.163 -0.7475 -0.1712  0.5638
 9315TIP3   OH249359   2.724   1.692   0.344 -0.1924  0.3026 -0.2096
 9315TIP3    H149360   2.761   1.630   0.282 -1.0697  0.1526 -0.6043
 9315TIP3    H249361   2.630   1.675   0.341 -0.2526  0.3298  1.1218
 9316TIP3   OH249362   1.871   0.091   4.388 -0.0014  0.3470  0.1805
 9316TIP3    H149363   1.914   0.105   4.473 -1.0342 -0.9919  0.9761
 9316TIP3    H249364   1.904   0.005   4.360 -2.2052 -0.8165  0.9118
 9317TIP3   OH249365   6.199   6.224  16.086 -0.5544 -0.1581 -0.0344
 9317TIP3    H149366   6.253   6.302  16.094 -1.2184  0.3330 -0.3295
 9317TIP3    H249367   6.110   6.256  16.076 -0.7795 -0.9362 -0.6791
 9318TIP3   OH249368   3.294   6.645   1.246  0.2020  0.1296  0.7271
 9318TIP3    H149369   3.346   6.679   1.319 -1.1250  3.4137  0.3402
 9318TIP3    H249370   3.211   6.619   1.286  0.0287  0.4939  0.6121
 9319TIP3   OH249371   3.236   1.780  15.486  0.0160 -0.3208 -0.0153
 9319TIP3    H149372   3.285   1.720  15.430 -0.2623 -0.7811  0.2220
 9319TIP3    H249373   3.180   1.723  15.539 -0.7290  0.1936 -0.2377
 9320TIP3   OH249374   2.992   5.853  12.042 -0.1010 -0.1080 -0.0067
 9320TIP3    H149375   2.979   5.894  11.956  2.5224 -1.9678 -1.4534
 9320TIP3    H249376   2.948   5.769  12.035  3.1644 -1.8937 -1.0766
 9321TIP3   OH249377   3.031   4.050  17.284  0.0783  0.3923  0.3446
 9321TIP3    H149378   2.981   4.090  17.214  3.0106  1.8470 -1.1014
 9321TIP3    H249379   3.018   3.956  17.272  1.8234  0.4584 -3.3989
 9322TIP3   OH249380   4.080   2.971  10.850 -0.4473 -0.4468  0.5451
 9322TIP3    H149381   4.132   3.051  10.856 -1.9830  0.5428  1.1292
 9322TIP3    H249382   4.145   2.901  10.847  0.9395  0.6961  1.9382
 9323TIP3   OH249383   5.820   4.584   0.511 -0.4911 -0.1121 -0.6089
 9323TIP3    H149384   5.865   4.502   0.530 -0.7659  0.0563  0.8773
 9323TIP3    H249385   5.831   4.596   0.417  0.1955 -1.4652 -0.7227
 9324TIP3   OH249386   5.589   3.549   4.197  0.0519  0.4911 -0.0225
 9324TIP3    H149387   5.610   3.624   4.141  0.9705  0.8742  0.8061
 9324TIP3    H249388   5.645   3.478   4.166 -0.6097  0.2199 -0.6207
 9325TIP3   OH249389   3.129   2.373   5.781  0.1118 -0.1220  0.4924
 9325TIP3    H149390   3.125   2.287   5.824 -2.2896 -0.5526 -0.4358
 9325TIP3    H249391   3.117   2.436   5.852 -0.6383 -0.6823  0.8719
 9326TIP3   OH249392   5.713   4.239  15.287 -0.3417 -0.1222 -0.1987
 9326TIP3    H149393   5.650   4.173  15.314 -0.3648 -1.2587 -2.7597
 9326TIP3    H249394   5.790   4.189  15.261 -0.5736  0.7492 -2.7835
 9327TIP3   OH249395   4.875   4.270  12.206 -0.2791  0.1698  0.2079
 9327TIP3    H149396   4.884   4.356  12.165  0.5504 -0.0179 -0.0203
 9327TIP3    H249397   4.890   4.287  12.299  0.2451  0.2196  0.1178
 9328TIP3   OH249398   3.821   1.945   3.539 -0.1505 -0.6308 -0.1164
 9328TIP3    H149399   3.853   1.855   3.548 -1.7626 -1.1366  0.8211
 9328TIP3    H249400   3.865   1.994   3.609 -0.8651 -1.1659  0.7202
 9329TIP3   OH249401   4.666   5.130  15.899  0.2132  0.4210  0.2923
 9329TIP3    H149402   4.623   5.206  15.939  0.3148 -0.0112  1.2688
 9329TIP3    H249403   4.637   5.130  15.809 -2.7250 -0.4494  1.1442
 9330TIP3   OH249404   5.190   5.527  17.136 -0.0180 -0.8811 -1.2741
 9330TIP3    H149405   5.117   5.467  17.155 -0.1887 -0.6416 -1.1706
 9330TIP3    H249406   5.253   5.473  17.089 -0.5672 -0.9218 -1.9880
 9331TIP3   OH249407   1.804   3.316  13.365  0.4310 -0.0538  0.0584
 9331TIP3    H149408   1.789   3.227  13.397 -0.9362 -0.3992 -1.4339
 9331TIP3    H249409   1.899   3.324  13.360  0.7308 -0.2390  3.2951
 9332TIP3   OH249410   2.855   2.997   4.538 -0.0323  0.5254 -0.2044
 9332TIP3    H149411   2.774   2.947   4.532 -1.0220  1.9745  0.7071
 9332TIP3    H249412   2.920   2.942   4.493 -1.0607 -1.5549  0.7138
 9333TIP3   OH249413   1.157   3.466  12.964 -0.1262  0.5216 -0.6253
 9333TIP3    H149414   1.195   3.516  12.891  0.5229  0.5756 -0.2578
 9333TIP3    H249415   1.232   3.442  13.018 -0.5444  0.0123 -0.2605
 9334TIP3   OH249416   1.629   6.274   1.399 -0.2228  0.2868  0.3658
 9334TIP3    H149417   1.576   6.354   1.406 -0.3105  0.1056  2.5146
 9334TIP3    H249418   1.565   6.203   1.395 -0.1458  0.1823  0.9829
 9335TIP3   OH249419   6.410   3.972  14.703  0.2209  0.1010  0.1989
 9335TIP3    H149420   6.368   3.889  14.684  1.3034 -0.4437  0.0848
 9335TIP3    H249421   6.461   3.955  14.783 -0.5715  1.0268  0.9272
 9336TIP3   OH249422   3.449   1.989   5.742  0.3453 -0.0030 -0.0959
 9336TIP3    H149423   3.401   1.911   5.769  0.0845  0.8469  2.1111
 9336TIP3    H249424   3.391   2.032   5.679  0.1388 -1.1613 -0.7100
 9337TIP3   OH249425   2.347   5.091   3.584 -0.1023 -0.3853  0.3879
 9337TIP3    H149426   2.419   5.105   3.523 -0.7847  1.3046 -0.0666
 9337TIP3    H249427   2.269   5.122   3.538 -0.5869  1.2721  2.1826
 9338TIP3   OH249428   5.061   5.151  14.830 -0.2526 -0.1110  0.3561
 9338TIP3    H149429   5.116   5.133  14.753  0.7362  0.8795  0.8167
 9338TIP3    H249430   5.059   5.067  14.877 -1.0739 -0.8023 -0.8533
 9339TIP3   OH249431   5.070   1.283   6.327 -0.2797  0.0461  0.2279
 9339TIP3    H149432   5.117   1.355   6.368  0.3519  0.2090 -0.7338
 9339TIP3    H249433   5.053   1.222   6.398  1.3441  0.0084  0.6244
 9340TIP3   OH249434   3.663   0.139  12.807 -0.5621  0.6833 -0.2631
 9340TIP3    H149435   3.718   0.063  12.828 -1.0771  0.8663  2.0057
 9340TIP3    H249436   3.672   0.149  12.712 -0.9456 -2.5502 -0.7672
 9341TIP3   OH249437   1.439   6.702  16.320 -0.4996 -0.3070  0.4603
 9341TIP3    H149438   1.483   6.683  16.402  0.6662  0.7856  0.1184
 9341TIP3    H249439   1.420   6.795  16.323  1.2905  0.2005 -1.2481
 9342TIP3   OH249440   6.674   3.031   4.998  0.3163  0.6100  0.5165
 9342TIP3    H149441   6.766   3.011   5.016 -0.1407 -1.2357  0.9480
 9342TIP3    H249442   6.628   3.007   5.078 -0.8706 -1.1477 -0.6195
 9343TIP3   OH249443   0.596   1.373   1.220 -0.2687 -0.0624 -0.2022
 9343TIP3    H149444   0.629   1.338   1.303 -0.9629  1.6121  0.8291
 9343TIP3    H249445   0.617   1.467   1.224 -2.8950  0.6107 -0.5803
 9344TIP3   OH249446   2.456   6.468  17.004 -0.0362 -0.2462 -0.5122
 9344TIP3    H149447   2.443   6.547  17.057 -1.0898  0.8089 -2.2404
 9344TIP3    H249448   2.392   6.406  17.038 -0.8352  0.4832 -0.6240
 9345TIP3   OH249449   4.321   3.371   2.823 -0.7313  0.8092  0.1539
 9345TIP3    H149450   4.271   3.417   2.891 -1.4117  1.0013 -0.4644
 9345TIP3    H249451   4.256   3.317   2.778 -0.0035 -0.5291  0.6559
 9346TIP3   OH249452   4.907   5.520   3.127 -0.4729  0.5071  0.3948
 9346TIP3    H149453   4.851   5.442   3.125  0.2238  0.0034  0.2317
 9346TIP3    H249454   4.913   5.547   3.036 -1.2592  1.1673  0.5188
 9347TIP3   OH249455   4.773   4.389  12.709 -1.0842  0.2223  0.3118
 9347TIP3    H149456   4.738   4.301  12.695 -1.0033  0.1832  0.3569
 9347TIP3    H249457   4.696   4.446  12.707 -0.8950  0.5991 -3.1346
 9348TIP3   OH249458   5.807   2.771  16.561 -0.1518  0.8754 -0.7128
 9348TIP3    H149459   5.886   2.805  16.517 -0.4576  0.7872 -1.3399
 9348TIP3    H249460   5.758   2.850  16.586  0.0092  0.9246 -0.5431
 9349TIP3   OH249461   1.152   3.848   1.165  0.8666  0.6371  0.1390
 9349TIP3    H149462   1.187   3.779   1.109  1.1251 -1.1492  2.3278
 9349TIP3    H249463   1.115   3.801   1.240 -4.1568  2.5244 -0.8009
 9350TIP3   OH249464   2.259   5.347   2.079 -0.2227  0.0573 -0.3176
 9350TIP3    H149465   2.286   5.316   1.993 -1.6605 -0.4865 -0.5984
 9350TIP3    H249466   2.289   5.438   2.083 -0.8888  0.3601 -1.7375
 9351TIP3   OH249467   0.949   1.352   0.281  0.0496 -0.6458 -0.8566
 9351TIP3    H149468   0.962   1.412   0.355  1.0498 -0.6203 -1.0399
 9351TIP3    H249469   0.874   1.299   0.307  0.1053 -0.3369 -0.0210
 9352TIP3   OH249470   4.091   4.092   6.907 -0.0021  0.7895  0.4741
 9352TIP3    H149471   4.088   4.179   6.947  0.6920  0.6388  0.8598
 9352TIP3    H249472   4.010   4.050   6.935 -0.0484  1.0908  0.8029
 9353TIP3   OH249473   3.335   2.950   6.140  0.6838  0.2872  0.3005
 9353TIP3    H149474   3.311   2.919   6.227 -0.0448 -0.3930 -0.1313
 9353TIP3    H249475   3.288   3.034   6.132  0.4181  0.1509  0.4024
 9354TIP3   OH249476   3.636   6.469   0.880  0.3750 -0.6841 -0.0039
 9354TIP3    H149477   3.607   6.378   0.893  0.7945 -0.6958  0.9021
 9354TIP3    H249478   3.586   6.519   0.944  1.3894 -0.5261  0.6871
 9355TIP3   OH249479   3.144   2.665  16.294 -0.0345 -0.0256 -0.0358
 9355TIP3    H149480   3.070   2.722  16.310  0.0701 -0.0077  0.4089
 9355TIP3    H249481   3.214   2.700  16.349 -0.8297 -2.3337  2.7335
 9356TIP3   OH249482   3.786   5.698   0.833 -0.0416  0.2358 -0.2206
 9356TIP3    H149483   3.713   5.752   0.801  0.8543  1.1187 -0.8269
 9356TIP3    H249484   3.853   5.705   0.765  0.2115 -1.4554 -0.1875
 9357TIP3   OH249485   0.271   3.670  16.117  0.4742 -0.4077  0.2842
 9357TIP3    H149486   0.313   3.633  16.039  0.2416 -0.2898  0.1012
 9357TIP3    H249487   0.317   3.753  16.132 -0.9053  0.6467 -1.0193
 9358TIP3   OH249488   5.301   1.695   1.628  0.0685  0.0086 -0.1290
 9358TIP3    H149489   5.228   1.729   1.680  0.4658  1.8962 -0.7140
 9358TIP3    H249490   5.259   1.658   1.550 -0.2884  2.3447 -1.1435
 9359TIP3   OH249491   2.907   3.003  14.550  0.2671  0.3482 -0.1317
 9359TIP3    H149492   2.972   2.933  14.556  0.6163  0.6695 -0.1218
 9359TIP3    H249493   2.837   2.975  14.608  0.8675  0.4946  0.6892
 9360TIP3   OH249494   1.936   4.792   0.887  0.0490 -0.4374 -0.4087
 9360TIP3    H149495   1.957   4.713   0.937 -0.0005  0.0858  0.4533
 9360TIP3    H249496   1.852   4.822   0.922  0.8187  0.8769  0.3840
 9361TIP3   OH249497   2.439   5.497  10.948  0.3917 -0.0564  0.0002
 9361TIP3    H149498   2.440   5.419  10.892  2.6423 -0.6873  0.8005
 9361TIP3    H249499   2.445   5.571  10.887  0.2660 -0.6131 -0.6927
 9362TIP3   OH249500   5.892   6.578   4.012  0.3027 -0.5834 -0.0429
 9362TIP3    H149501   5.868   6.589   4.104 -0.0183 -1.5955  0.0056
 9362TIP3    H249502   5.817   6.611   3.963 -0.3270 -1.7493  0.0907
 9363TIP3   OH249503   3.746   4.923  12.361 -0.6223 -0.2711  0.2498
 9363TIP3    H149504   3.829   4.968  12.345  0.5013 -1.3739  2.5986
 9363TIP3    H249505   3.742   4.856  12.292  1.3530 -1.3660  1.1243
 9364TIP3   OH249506   4.154   1.411   0.439 -0.2612 -0.4243 -0.1484
 9364TIP3    H149507   4.109   1.469   0.501 -0.7828 -0.0662 -0.8472
 9364TIP3    H249508   4.243   1.405   0.473  0.0520  1.4599 -0.4807
 9365TIP3   OH249509   6.141   1.124  14.781 -0.5135 -0.5744 -0.3245
 9365TIP3    H149510   6.050   1.153  14.771  0.5293  2.9673 -0.9182
 9365TIP3    H249511   6.170   1.165  14.862  0.3729 -2.4099  0.3443
 9366TIP3   OH249512   4.404   4.045   5.772  0.4969  0.3903 -0.6047
 9366TIP3    H149513   4.417   4.095   5.852 -0.6159  1.6318 -1.1661
 9366TIP3    H249514   4.478   4.070   5.716  0.1005  1.2066 -0.7750
 9367TIP3   OH249515   2.875   3.671  11.964  0.2274  0.2523 -0.4818
 9367TIP3    H149516   2.952   3.710  11.923 -0.4960  0.5553 -1.6103
 9367TIP3    H249517   2.828   3.631  11.891 -1.3983  1.2709 -0.0385
 9368TIP3   OH249518   5.907   0.896  16.522  0.2047  0.5015  0.4008
 9368TIP3    H149519   5.957   0.912  16.602  0.6190 -1.5312  0.5996
 9368TIP3    H249520   5.934   0.809  16.494 -0.3209  0.9631 -1.6951
 9369TIP3   OH249521   0.385   2.795   4.945  0.1469  0.1295  0.1345
 9369TIP3    H149522   0.458   2.839   4.902 -1.5875  0.7637 -2.3574
 9369TIP3    H249523   0.397   2.702   4.927  0.0844  0.2837 -0.7157
 9370TIP3   OH249524   1.732   1.528  16.582  0.0171 -0.1431 -0.2465
 9370TIP3    H149525   1.758   1.440  16.608 -1.1461 -1.2582 -2.5928
 9370TIP3    H249526   1.805   1.559  16.528  0.0387 -0.0058 -0.1384
 9371TIP3   OH249527   2.444   1.914  12.588 -0.3385  0.2374 -0.2822
 9371TIP3    H149528   2.401   1.967  12.520  0.6898  1.7610  0.2143
 9371TIP3    H249529   2.371   1.868  12.631 -1.1022  0.0149 -1.7374
 9372TIP3   OH249530   0.061   4.511   4.651 -0.1862 -0.1538 -0.1921
 9372TIP3    H149531   0.060   4.453   4.575 -0.2090 -1.4290  0.7570
 9372TIP3    H249532   0.153   4.513   4.678 -0.3058 -0.3379  0.2260
 9373TIP3   OH249533   2.998   2.043   0.393 -0.5199  0.1924  0.3832
 9373TIP3    H149534   2.910   2.010   0.375  0.4118 -1.4333 -1.5961
 9373TIP3    H249535   2.983   2.127   0.436 -3.0270 -0.0894  0.2533
 9374TIP3   OH249536   4.682   1.137  11.089  0.1575 -0.3910 -0.1471
 9374TIP3    H149537   4.767   1.131  11.131  0.5704  0.0969 -0.8820
 9374TIP3    H249538   4.671   1.054  11.042 -0.3401 -0.9692  0.9484
 9375TIP3   OH249539   5.440   3.868   6.197 -0.0567 -0.0003 -0.6999
 9375TIP3    H149540   5.390   3.924   6.256 -0.4205 -1.5651  0.5480
 9375TIP3    H249541   5.393   3.875   6.113  0.2520  1.9533 -0.7599
 9376TIP3   OH249542   3.676   3.888  12.893  0.0409  0.1227  0.1825
 9376TIP3    H149543   3.709   3.907  12.805  0.3783 -1.8653 -0.1518
 9376TIP3    H249544   3.751   3.903  12.950 -0.6788  3.4050  0.4914
 9377TIP3   OH249545   2.273   2.113  15.950  0.3120  0.5045  0.0605
 9377TIP3    H149546   2.248   2.152  16.034  0.3805 -1.1618  0.9161
 9377TIP3    H249547   2.285   2.187  15.891  0.2116  1.7289  1.5097
 9378TIP3   OH249548   0.950   5.395  15.346  0.2239  0.3802  0.2865
 9378TIP3    H149549   0.875   5.372  15.402 -1.0435 -0.5676 -1.6672
 9378TIP3    H249550   1.020   5.338  15.376 -0.7400 -0.8696  0.2699
 9379TIP3   OH249551   5.683   2.571   0.163 -0.2469 -0.1334  0.1676
 9379TIP3    H149552   5.622   2.528   0.223 -2.1242 -0.3854 -1.7902
 9379TIP3    H249553   5.676   2.520   0.082 -1.7876  3.1274 -1.9413
 9380TIP3   OH249554   1.978   1.549  14.192 -0.6437 -0.2282 -0.3126
 9380TIP3    H149555   1.999   1.559  14.285  0.6659  0.7701 -0.6810
 9380TIP3    H249556   1.896   1.596  14.181  0.2952  1.5675 -0.0426
 9381TIP3   OH249557   0.276   1.264  14.995 -0.1093  0.7811 -0.1442
 9381TIP3    H149558   0.261   1.215  15.075 -0.2460 -0.3573 -0.8372
 9381TIP3    H249559   0.234   1.211  14.927  1.6864  0.6704 -1.2531
 9382TIP3   OH249560   3.157   6.736  10.817  0.1341  0.4028  0.7569
 9382TIP3    H149561   3.113   6.693  10.890 -1.5486  1.7944  0.6129
 9382TIP3    H249562   3.211   6.804  10.858 -0.6655  1.0613  0.7274
 9383TIP3   OH249563   4.131   6.471   3.384  0.3612  0.5508  0.1189
 9383TIP3    H149564   4.149   6.515   3.467  1.5284  0.3146 -0.0025
 9383TIP3    H249565   4.175   6.386   3.392  1.1631  0.8383 -1.0451
 9384TIP3   OH249566   1.652   4.482  12.031  0.0287  0.2610  0.7246
 9384TIP3    H149567   1.668   4.573  12.006  2.7234 -0.0552  0.9235
 9384TIP3    H249568   1.711   4.468  12.106  0.3881 -1.8874  0.1017
 9385TIP3   OH249569   2.533   3.070   4.776  0.2060  0.1741  0.0143
 9385TIP3    H149570   2.439   3.073   4.797  0.4457  0.4048  1.0941
 9385TIP3    H249571   2.569   3.004   4.836  0.9536  1.0218  0.5213
 9386TIP3   OH249572   6.403   0.397  16.737  0.2290 -0.0416  0.2506
 9386TIP3    H149573   6.471   0.449  16.695  1.3048 -0.9979  0.7572
 9386TIP3    H249574   6.387   0.440  16.821  1.6870 -0.9305  1.0177
 9387TIP3   OH249575   5.796   5.512   3.861  0.2683  0.0629 -0.3663
 9387TIP3    H149576   5.803   5.560   3.778  0.6829  0.6522  0.0043
 9387TIP3    H249577   5.802   5.579   3.929  1.7182 -0.5809  0.1818
 9388TIP3   OH249578   6.753   5.892  13.459 -0.2100  0.0869 -0.0559
 9388TIP3    H149579   6.786   5.981  13.464 -0.4955  0.2551 -1.0020
 9388TIP3    H249580   6.753   5.871  13.366 -3.9851  0.5636 -0.3119
 9389TIP3   OH249581   6.037   2.855   6.074 -0.6418 -0.0031  0.3524
 9389TIP3    H149582   5.970   2.811   6.022 -0.2659 -0.0697 -0.0823
 9389TIP3    H249583   6.001   2.943   6.089 -0.5082  0.2079 -0.5099
 9390TIP3   OH249584   4.872   1.706   4.303  0.3004 -0.1512 -0.2086
 9390TIP3    H149585   4.957   1.667   4.325  1.4081  1.7181 -0.9244
 9390TIP3    H249586   4.844   1.750   4.383 -0.6392 -1.7644  0.4014
 9391TIP3   OH249587   3.771   4.281   0.320  0.1736  0.1105 -0.1161
 9391TIP3    H149588   3.690   4.273   0.370  0.1260 -2.9488 -0.4632
 9391TIP3    H249589   3.823   4.346   0.367 -1.9118  1.1171  0.9041
 9392TIP3   OH249590   5.914   3.836  16.940 -0.1566 -0.5441 -0.3237
 9392TIP3    H149591   5.990   3.811  16.992 -0.1138  2.5931  1.4315
 9392TIP3    H249592   5.950   3.870  16.859  0.1762 -0.8688 -0.3117
 9393TIP3   OH249593   6.598   5.043  13.805 -0.4066 -0.2940 -0.1227
 9393TIP3    H149594   6.574   4.951  13.793  0.0679 -0.2817 -1.3372
 9393TIP3    H249595   6.688   5.048  13.773 -1.1306  0.9986 -2.0862
 9394TIP3   OH249596   5.549   5.512  16.724 -0.0042  0.0366 -0.1761
 9394TIP3    H149597   5.546   5.562  16.642  0.9709  0.5664  0.0866
 9394TIP3    H249598   5.608   5.439  16.705  0.6649  0.4693  0.2060
 9395TIP3   OH249599   2.246   6.692  13.407 -0.2530 -0.5252  0.3873
 9395TIP3    H149600   2.317   6.723  13.350  0.2748 -1.0703  0.7267
 9395TIP3    H249601   2.220   6.770  13.456 -0.0348 -0.2705  0.1063
 9396TIP3   OH249602   5.305   1.259  11.890  0.3869  0.1325 -0.3411
 9396TIP3    H149603   5.275   1.310  11.965  0.1835 -0.6848  0.1476
 9396TIP3    H249604   5.249   1.181  11.891 -0.6709  0.8104 -2.2610
 9397TIP3   OH249605   5.597   4.886   0.479 -0.0331  0.1666 -0.4296
 9397TIP3    H149606   5.639   4.842   0.553  2.1612  2.3193 -0.2711
 9397TIP3    H249607   5.504   4.887   0.503  0.6968  1.9340  3.0358
 9398TIP3   OH249608   0.384   6.264   1.245  0.1577  0.4952 -0.4798
 9398TIP3    H149609   0.392   6.271   1.150 -0.1026  1.5800 -0.4368
 9398TIP3    H249610   0.452   6.322   1.279 -1.1419  1.7918 -0.0336
 9399TIP3   OH249611   4.245   0.878   2.758  0.2340  0.1210  0.6276
 9399TIP3    H149612   4.300   0.918   2.691  0.0971  1.3515  1.2138
 9399TIP3    H249613   4.187   0.819   2.710 -0.7592  1.9402 -0.5452
 9400TIP3   OH249614   5.950   0.031  11.602  0.2549  0.0929  0.5392
 9400TIP3    H149615   5.857   0.009  11.603  0.2992 -0.1005  0.6673
 9400TIP3    H249616   5.973   0.037  11.509 -0.0872  1.0409  0.5102
 9401TIP3   OH249617   0.564   4.585   4.907 -0.0693  0.0114  0.2666
 9401TIP3    H149618   0.568   4.657   4.970 -1.0451  0.3094 -0.0008
 9401TIP3    H249619   0.496   4.527   4.942  1.3752 -1.3010  1.0033
 9402TIP3   OH249620   3.899   1.430  11.142 -0.7285 -0.5767 -0.1048
 9402TIP3    H149621   3.874   1.513  11.183  2.1523 -0.5472  1.9628
 9402TIP3    H249622   3.893   1.365  11.213  0.4830 -1.3719 -0.6824
 9403TIP3   OH249623   4.796   4.831  16.486  0.2611  0.1656  0.4175
 9403TIP3    H149624   4.880   4.852  16.445 -0.6843  1.6378 -0.8573
 9403TIP3    H249625   4.739   4.805  16.414 -0.6818  0.1780  1.1323
 9404TIP3   OH249626   5.866   0.925  13.617  0.0140  0.3444 -0.6798
 9404TIP3    H149627   5.867   0.906  13.711 -0.0765 -1.0373 -0.9483
 9404TIP3    H249628   5.954   0.902  13.587  0.7261  2.6671 -0.6165
 9405TIP3   OH249629   0.038   4.638  10.345 -0.0023  0.2476 -0.6225
 9405TIP3    H149630  -0.038   4.696  10.341  0.9210  1.4409 -2.1686
 9405TIP3    H249631   0.029   4.580  10.270  0.6048  0.3946 -0.8185
 9406TIP3   OH249632   0.805   2.198   1.985  0.0752 -0.6594 -0.3153
 9406TIP3    H149633   0.770   2.160   2.065  0.5529  1.6615  1.1013
 9406TIP3    H249634   0.891   2.157   1.974  1.3153  0.9892  2.1023
 9407TIP3   OH249635   3.292   6.363   1.183  0.0108 -0.3946 -0.5355
 9407TIP3    H149636   3.210   6.362   1.134 -0.1492 -0.3400 -0.2686
 9407TIP3    H249637   3.304   6.455   1.209  0.6858 -0.2031 -1.4568
 9408TIP3   OH249638   3.050   2.639   3.390 -0.1083 -0.0429 -0.2106
 9408TIP3    H149639   3.051   2.674   3.301 -2.0695  0.8288  0.0558
 9408TIP3    H249640   3.138   2.602   3.402  0.0021 -0.7549 -2.7023
 9409TIP3   OH249641   3.129   2.706  16.700  0.3090 -0.1344  0.0493
 9409TIP3    H149642   3.162   2.644  16.635  1.3583  2.3356 -1.9336
 9409TIP3    H249643   3.038   2.679  16.716  0.8065 -2.2859 -0.5108
 9410TIP3   OH249644   2.621   0.657  11.524 -0.3942 -0.1064  0.1887
 9410TIP3    H149645   2.572   0.583  11.558 -1.6853  0.5109 -0.2433
 9410TIP3    H249646   2.699   0.619  11.485 -1.1715 -1.2748 -0.2741
 9411TIP3   OH249647   3.435   3.427   5.784  0.4776  0.4055 -0.3759
 9411TIP3    H149648   3.520   3.389   5.809  1.6010  0.8661 -3.1962
 9411TIP3    H249649   3.448   3.522   5.794 -0.0664  0.4251  0.1702
 9412TIP3   OH249650   2.963   0.938   6.010  0.0180 -0.0820 -0.3716
 9412TIP3    H149651   3.020   0.932   6.087 -0.5429  0.2560  0.0744
 9412TIP3    H249652   3.021   0.919   5.936  1.1800  2.1862 -0.1179
 9413TIP3   OH249653   2.282   1.248   2.429  0.3968 -0.0828 -0.4311
 9413TIP3    H149654   2.254   1.256   2.520  1.3219 -0.6060 -0.0875
 9413TIP3    H249655   2.335   1.326   2.414 -0.7650  0.6359 -0.9173
 9414TIP3   OH249656   1.449   2.095   1.574  0.1071  0.1647  0.0017
 9414TIP3    H149657   1.525   2.088   1.632  0.8665  1.2751 -0.8136
 9414TIP3    H249658   1.486   2.120   1.489 -0.9316 -1.7599 -1.0989
 9415TIP3   OH249659   4.070   2.028   1.682 -0.2195  0.3676 -0.7432
 9415TIP3    H149660   4.049   1.935   1.673 -1.1238  0.5291 -0.4580
 9415TIP3    H249661   4.017   2.071   1.614 -1.7524  0.8965  0.7121
 9416TIP3   OH249662   6.066   1.429   1.932  0.6968 -0.3163  0.3462
 9416TIP3    H149663   6.143   1.461   1.978  1.2360  1.0153 -1.3438
 9416TIP3    H249664   6.093   1.425   1.840 -0.9693 -0.7489 -0.1681
 9417TIP3   OH249665   5.499   3.660   2.554 -0.2193 -0.4904  0.5251
 9417TIP3    H149666   5.436   3.631   2.619 -1.0099 -0.0575 -0.0291
 9417TIP3    H249667   5.584   3.654   2.598 -0.9353  2.6936  2.7182
 9418TIP3   OH249668   3.600   1.032   5.137  0.2654 -0.0570  0.1515
 9418TIP3    H149669   3.581   1.123   5.157 -2.4849 -0.4570 -0.1522
 9418TIP3    H249670   3.662   1.004   5.204 -0.0432  1.6215  1.1804
 9419TIP3   OH249671   5.188   6.229   2.557 -0.6583 -0.5517  0.0997
 9419TIP3    H149672   5.184   6.146   2.604  0.2456 -0.0639  1.0845
 9419TIP3    H249673   5.275   6.230   2.518  1.0516  1.6310  3.4891
 9420TIP3   OH249674   5.560   2.224   0.361 -0.1702 -0.1968 -0.0511
 9420TIP3    H149675   5.554   2.309   0.404  1.2462 -0.6491  1.1432
 9420TIP3    H249676   5.506   2.232   0.283 -0.9555  1.4281  0.6218
 9421TIP3   OH249677   2.796   1.804  14.092  0.7157 -0.0777 -0.3291
 9421TIP3    H149678   2.864   1.840  14.149 -0.1724  1.0947  0.0361
 9421TIP3    H249679   2.761   1.880  14.046 -1.4891 -0.3577  0.7528
 9422TIP3   OH249680   3.244   2.531  11.672 -0.2057  0.7589 -0.1677
 9422TIP3    H149681   3.201   2.516  11.756 -0.8330  1.9389 -0.2559
 9422TIP3    H249682   3.324   2.579  11.694  0.5047 -0.3982 -0.1154
 9423TIP3   OH249683   4.047   5.114   1.833 -0.2462 -0.1415 -0.3512
 9423TIP3    H149684   4.010   5.163   1.906 -0.7237 -0.8042 -0.1386
 9423TIP3    H249685   4.098   5.179   1.784  0.7235  0.1495  0.9883
 9424TIP3   OH249686   4.935   6.309  13.084 -0.9650 -0.3046  0.2922
 9424TIP3    H149687   4.968   6.224  13.111 -0.8628 -0.5449 -0.5478
 9424TIP3    H249688   5.012   6.355  13.050 -1.4674 -0.9496 -1.8831
 9425TIP3   OH249689   6.296   4.353  15.820 -0.2563 -0.4481  0.2864
 9425TIP3    H149690   6.370   4.348  15.881 -1.2865  0.0436  1.6176
 9425TIP3    H249691   6.337   4.361  15.734  1.3107  2.0416  1.1471
 9426TIP3   OH249692   3.763   0.666  16.114 -0.1893  0.1945  0.7537
 9426TIP3    H149693   3.678   0.632  16.144  0.4847 -0.3805  2.0983
 9426TIP3    H249694   3.822   0.652  16.188  1.0475  0.7634 -0.0884
 9427TIP3   OH249695   4.707   0.627   4.859  0.3818 -0.1507 -0.8109
 9427TIP3    H149696   4.630   0.669   4.896 -0.2679  0.2877 -2.5433
 9427TIP3    H249697   4.673   0.548   4.816  1.5010 -2.2291  1.8656
 9428TIP3   OH249698   3.947   0.156  14.551  0.4494 -0.2601  0.2085
 9428TIP3    H149699   3.997   0.203  14.485  2.1598  0.0912  1.6887
 9428TIP3    H249700   3.944   0.066  14.519 -0.7616  0.3087 -1.4457
 9429TIP3   OH249701   0.860   4.523  13.390  0.3716  0.3014 -0.5203
 9429TIP3    H149702   0.771   4.487  13.393 -0.0065  1.2337  1.4678
 9429TIP3    H249703   0.856   4.593  13.326  0.1846 -0.8258 -1.7871
 9430TIP3   OH249704   2.078   2.985   3.982  0.2418 -0.6418  0.2801
 9430TIP3    H149705   2.072   2.890   3.988 -0.8347 -0.6395 -0.3462
 9430TIP3    H249706   2.092   3.002   3.889  1.1042 -0.2004  0.4809
 9431TIP3   OH249707   3.135   0.486  15.993 -0.5272 -0.1733 -0.1682
 9431TIP3    H149708   3.129   0.495  16.088 -0.3713 -1.2008 -0.0413
 9431TIP3    H249709   3.067   0.422  15.971  1.0505 -1.8465 -0.4042
 9432TIP3   OH249710   2.859   4.366   3.173  0.5249 -0.4436  0.3495
 9432TIP3    H149711   2.816   4.451   3.171 -1.1705 -1.2704  0.1200
 9432TIP3    H249712   2.921   4.367   3.100 -0.6444  0.0100 -0.6468
 9433TIP3   OH249713   0.963   1.990   6.290  0.2931  0.1961 -0.1790
 9433TIP3    H149714   0.949   2.057   6.223  0.3107 -0.3174 -0.6949
 9433TIP3    H249715   0.915   1.914   6.259 -2.2013  0.8158  1.7963
 9434TIP3   OH249716   1.240   3.448  11.543 -0.0852 -1.0291  0.2839
 9434TIP3    H149717   1.289   3.434  11.624  0.1917 -0.1809  0.2806
 9434TIP3    H249718   1.260   3.372  11.489  1.5191 -0.5617  0.1582
 9435TIP3   OH249719   4.513   4.441   0.122 -0.5402  0.1213  0.3753
 9435TIP3    H149720   4.588   4.384   0.105  1.0311  1.8695  1.2539
 9435TIP3    H249721   4.478   4.461   0.035  0.2796 -0.3127 -0.0645
 9436TIP3   OH249722   6.668   2.902  11.972 -0.2377 -0.0599 -0.4946
 9436TIP3    H149723   6.663   2.920  11.878 -1.6427 -0.6339 -0.5471
 9436TIP3    H249724   6.727   2.970  12.006  0.7797 -0.2192 -1.8676
 9437TIP3   OH249725   5.181   0.171   0.259  0.1825  0.4488 -0.3539
 9437TIP3    H149726   5.186   0.247   0.317  3.2286  0.5003 -0.5304
 9437TIP3    H249727   5.221   0.200   0.178  0.5816 -1.0960 -0.7336
 9438TIP3   OH249728   4.840   5.659   1.949  0.1912 -0.0762 -0.6129
 9438TIP3    H149729   4.910   5.641   2.012  0.1823 -0.0846 -0.6054
 9438TIP3    H249730   4.879   5.643   1.863  0.4169  0.6388 -0.6508
 9439TIP3   OH249731   6.447   5.905   0.487 -0.2506 -0.0814  0.1571
 9439TIP3    H149732   6.518   5.944   0.538 -0.2338 -0.8212  0.7082
 9439TIP3    H249733   6.367   5.934   0.531 -0.3697  1.4910 -0.9760
 9440TIP3   OH249734   6.731   6.670   4.188  0.0290  0.0512  0.4831
 9440TIP3    H149735   6.813   6.644   4.230  0.3872  0.2908 -0.0479
 9440TIP3    H249736   6.734   6.766   4.189  1.2014  0.1473 -2.1811
 9441TIP3   OH249737   0.139   6.164  15.345 -0.3695  0.4021 -0.4219
 9441TIP3    H149738   0.198   6.156  15.270  1.4883  1.3056  0.8689
 9441TIP3    H249739   0.178   6.232  15.400 -1.6658 -0.2196  1.3919
 9442TIP3   OH249740   5.420   3.292   4.995 -0.0473 -0.2053 -0.3721
 9442TIP3    H149741   5.390   3.233   4.925 -0.1899  0.0904 -0.5623
 9442TIP3    H249742   5.468   3.360   4.949 -0.7065  0.3537 -0.2513
 9443TIP3   OH249743   4.234   4.484  10.853  0.3878 -0.4559 -0.0392
 9443TIP3    H149744   4.284   4.404  10.836  0.2123 -0.9210  1.4652
 9443TIP3    H249745   4.263   4.512  10.940 -1.0194 -0.0184  0.3144
 9444TIP3   OH249746   2.886   4.518   1.863 -0.4892  0.2325 -0.2427
 9444TIP3    H149747   2.867   4.540   1.771 -1.0070  3.2533  0.4765
 9444TIP3    H249748   2.802   4.527   1.907 -0.6445 -2.9663  0.3567
 9445TIP3   OH249749   0.173   2.520   5.364 -0.4418  0.4159 -0.0962
 9445TIP3    H149750   0.194   2.440   5.316 -0.6170 -0.5789  1.4205
 9445TIP3    H249751   0.220   2.510   5.447 -0.8680  1.6712  0.3046
 9446TIP3   OH249752   0.428   6.199  12.419  0.0299  0.1322  0.2108
 9446TIP3    H149753   0.482   6.127  12.451 -2.0190 -1.5705  0.0117
 9446TIP3    H249754   0.382   6.232  12.496 -2.1129 -1.5422 -0.2606
 9447TIP3   OH249755   1.949   2.258  13.630  0.4954  0.3050  0.1628
 9447TIP3    H149756   2.017   2.191  13.629  0.7821  0.5680  0.9505
 9447TIP3    H249757   1.979   2.325  13.569  0.2025 -0.2769 -0.6337
 9448TIP3   OH249758   6.513   0.650   2.163  0.0995 -0.0580  0.0710
 9448TIP3    H149759   6.504   0.596   2.084 -0.3780 -2.1256  1.4525
 9448TIP3    H249760   6.586   0.610   2.211 -0.8024 -0.0048  1.5362
 9449TIP3   OH249761   5.037   1.971   1.609  0.8590 -0.2495  0.1697
 9449TIP3    H149762   5.053   1.888   1.655  0.7434 -0.8003 -0.7590
 9449TIP3    H249763   5.018   2.034   1.678  0.9537 -1.0014  0.8896
 9450TIP3   OH249764   4.762   2.879   5.441 -0.6634  0.3303 -0.8782
 9450TIP3    H149765   4.718   2.944   5.386 -0.1921  1.0905 -0.3727
 9450TIP3    H249766   4.695   2.813   5.460 -0.7683 -0.0995 -2.5795
 9451TIP3   OH249767   3.667   4.961  13.682 -0.3634  0.4172 -0.3287
 9451TIP3    H149768   3.629   5.003  13.605  1.3346  0.4521 -1.1917
 9451TIP3    H249769   3.618   4.879  13.691 -0.9011  0.6316 -1.1597
 9452TIP3   OH249770   5.466   5.976   1.200  0.2054 -0.0348  0.0821
 9452TIP3    H149771   5.441   5.890   1.167 -1.0936 -0.0333  0.9787
 9452TIP3    H249772   5.560   5.983   1.182 -0.3471  0.0380 -3.7437
 9453TIP3   OH249773   1.837   5.918  12.847  0.5937 -0.4065  0.1301
 9453TIP3    H149774   1.864   5.959  12.765  1.3725 -2.0461 -0.4736
 9453TIP3    H249775   1.870   5.829  12.841 -0.1907 -0.8451  1.8200
 9454TIP3   OH249776   2.762   0.335  16.482  0.2774 -0.2885  0.3571
 9454TIP3    H149777   2.728   0.339  16.393  1.9273 -1.5644 -0.3780
 9454TIP3    H249778   2.705   0.272  16.527  0.6672 -1.1874 -0.3928
 9455TIP3   OH249779   5.552   4.846   2.177 -0.2745 -0.0634 -0.3247
 9455TIP3    H149780   5.636   4.820   2.215  0.4883  1.3223 -0.9779
 9455TIP3    H249781   5.575   4.905   2.105 -1.7752 -0.5089 -1.2285
 9456TIP3   OH249782   0.345   0.656  11.316 -0.4124  0.0356 -0.5474
 9456TIP3    H149783   0.344   0.657  11.220 -1.4723 -0.3191 -0.5551
 9456TIP3    H249784   0.394   0.735  11.340 -1.5152  1.0108 -1.3810
 9457TIP3   OH249785   3.067   1.404  16.824  0.0652  0.5692 -0.0177
 9457TIP3    H149786   3.050   1.392  16.730  2.1651  3.7781 -0.9766
 9457TIP3    H249787   3.107   1.322  16.852  3.4279  0.8952 -3.0982
 9458TIP3   OH249788   1.009   3.461   0.940 -0.3516  1.0613  0.3712
 9458TIP3    H149789   0.915   3.459   0.920 -0.4131  1.3747  0.6264
 9458TIP3    H249790   1.047   3.396   0.881 -0.7965  0.5760  0.6159
 9459TIP3   OH249791   4.047   2.316   0.188  0.1743 -0.2272 -0.0022
 9459TIP3    H149792   4.092   2.234   0.166 -2.8326 -1.6463 -1.6021
 9459TIP3    H249793   3.980   2.325   0.120  0.1860  3.4666  0.3085
 9460TIP3   OH249794   0.005   1.448  15.052 -0.2566  0.4924  0.3501
 9460TIP3    H149795   0.078   1.463  14.992 -2.9424 -0.5517 -3.5889
 9460TIP3    H249796  -0.063   1.509  15.022 -2.1549 -0.9193  1.5521
 9461TIP3   OH249797   3.015   0.978   1.388  0.1262 -0.3477  0.1475
 9461TIP3    H149798   2.998   1.065   1.351  1.6413 -0.0376  0.1326
 9461TIP3    H249799   3.091   0.945   1.340 -0.9730 -2.0978 -0.4922
 9462TIP3   OH249800   3.985   6.233  16.407  0.2730 -0.2714 -0.4217
 9462TIP3    H149801   3.982   6.179  16.328 -0.5199 -0.2326 -0.4285
 9462TIP3    H249802   3.901   6.216  16.450  0.2274  0.5772 -0.1730
 9463TIP3   OH249803   2.782   3.016   3.166  0.6692 -0.2000 -0.2055
 9463TIP3    H149804   2.790   2.922   3.177 -2.0665 -0.4476  0.3259
 9463TIP3    H249805   2.727   3.045   3.239  1.0963  1.7424 -0.5879
 9464TIP3   OH249806   5.574   2.111   1.045 -0.0142 -0.4357 -0.0560
 9464TIP3    H149807   5.478   2.107   1.038 -0.2092 -0.8948  2.2847
 9464TIP3    H249808   5.598   2.031   1.091  1.5225 -0.2999 -0.5876
 9465TIP3   OH249809   5.471   5.901   5.188  0.0438  0.4190  0.1346
 9465TIP3    H149810   5.511   5.937   5.108  1.2329 -1.2180 -0.0549
 9465TIP3    H249811   5.538   5.912   5.256  0.8670 -2.1215 -0.1326
 9466TIP3   OH249812   4.123   6.178  16.919 -0.2536 -0.4206  0.0460
 9466TIP3    H149813   4.135   6.222  16.834 -1.0643 -0.6444 -0.1887
 9466TIP3    H249814   4.062   6.234  16.966 -0.4312 -0.7172  0.1700
 9467TIP3   OH249815   1.265   1.507  12.548  0.0799  0.4740 -0.2768
 9467TIP3    H149816   1.262   1.503  12.452  0.5310  0.7005 -0.3017
 9467TIP3    H249817   1.179   1.474  12.576  0.4450 -0.8987 -0.7172
 9468TIP3   OH249818   3.543   0.291  16.435 -0.3307  0.1812 -0.3586
 9468TIP3    H149819   3.472   0.308  16.497 -1.4290  0.7281 -1.7233
 9468TIP3    H249820   3.621   0.328  16.477 -0.4232 -2.0033  1.9900
 9469TIP3   OH249821   5.265   5.928   5.352  0.1236  0.9032  0.1715
 9469TIP3    H149822   5.319   5.958   5.425  0.6568  2.0560 -0.6561
 9469TIP3    H249823   5.328   5.894   5.288 -0.3750 -0.6259  0.4521
 9470TIP3   OH249824   4.334   6.564   2.951  0.5144 -0.5639 -0.0234
 9470TIP3    H149825   4.357   6.483   2.905  1.1103 -1.0485  1.0809
 9470TIP3    H249826   4.360   6.548   3.042  1.4893  1.2003  0.0485
 9471TIP3   OH249827   2.291   3.953   3.713 -0.5996  0.3082  0.1459
 9471TIP3    H149828   2.238   4.008   3.771  1.8697  2.7525  0.3074
 9471TIP3    H249829   2.371   3.936   3.763 -0.5046 -1.9473 -0.6550
 9472TIP3   OH249830   1.150   4.095  16.710 -0.1553 -0.1953  0.1826
 9472TIP3    H149831   1.167   4.183  16.743 -2.4630  0.0558  0.9127
 9472TIP3    H249832   1.140   4.107  16.616  0.3786  0.1729  0.1664
 9473TIP3   OH249833   6.171   4.426  10.607 -0.0890 -0.0098  0.1674
 9473TIP3    H149834   6.203   4.481  10.536 -0.4387  0.2182  0.1842
 9473TIP3    H249835   6.216   4.342  10.594 -0.1480  0.0301 -0.3200
 9474TIP3   OH249836   2.601   1.111   3.908 -0.2770 -0.1882  0.1988
 9474TIP3    H149837   2.666   1.041   3.902 -1.0009 -0.9706  1.2132
 9474TIP3    H249838   2.653   1.191   3.910  0.5202 -0.4875 -2.9652
 9475TIP3   OH249839   5.339   5.048   6.262 -0.3085  0.0257 -0.2042
 9475TIP3    H149840   5.251   5.025   6.234 -0.5207  1.1338 -0.4925
 9475TIP3    H249841   5.397   5.010   6.196 -0.6767  0.7079 -0.9381
 9476TIP3   OH249842   2.082   2.389  15.465  0.1216  0.3125  0.2202
 9476TIP3    H149843   2.170   2.411  15.434  0.3688 -1.6236 -0.5750
 9476TIP3    H249844   2.030   2.382  15.385 -0.1891 -0.7888  0.4959
 9477TIP3   OH249845   1.831   6.718   2.023  0.1013  0.7211  0.2087
 9477TIP3    H149846   1.796   6.631   2.002  0.6411  0.5432  0.0085
 9477TIP3    H249847   1.924   6.713   1.997 -0.0929  1.6888 -0.7870
 9478TIP3   OH249848   4.612   0.722  15.720  0.1174  0.0297 -0.2681
 9478TIP3    H149849   4.658   0.664  15.660  0.0165 -0.6347  0.2814
 9478TIP3    H249850   4.681   0.756  15.777  0.1817  0.4865 -0.6128
 9479TIP3   OH249851   3.204   6.473  13.054  0.7291  0.2643 -0.0874
 9479TIP3    H149852   3.222   6.409  12.985  0.4431 -0.3513  0.3986
 9479TIP3    H249853   3.141   6.533  13.014 -1.3741 -1.4993  0.3836
 9480TIP3   OH249854   5.571   3.973   2.139  0.3930 -0.1952  0.2889
 9480TIP3    H149855   5.612   3.900   2.091  1.5318  1.3300 -1.1966
 9480TIP3    H249856   5.532   4.027   2.070  0.6342  1.2363  1.2425
 9481TIP3   OH249857   5.660   2.120  16.774  0.1794 -0.1485 -0.6930
 9481TIP3    H149858   5.699   2.043  16.814 -0.5054  0.0016  0.2966
 9481TIP3    H249859   5.588   2.086  16.721 -0.1537 -0.1909 -0.2183
 9482TIP3   OH249860   1.323   3.931   5.017  0.2265  0.2288 -0.1219
 9482TIP3    H149861   1.229   3.938   5.031  0.6013  2.0878  2.0093
 9482TIP3    H249862   1.349   4.018   4.985  1.1419 -0.4566 -1.3042
 9483TIP3   OH249863   0.271   3.045   6.623 -0.6911  0.1451  0.3867
 9483TIP3    H149864   0.180   3.068   6.605 -0.5541 -0.2415 -0.9116
 9483TIP3    H249865   0.314   3.049   6.537 -0.0635 -2.2047  0.5164
 9484TIP3   OH249866   3.669   6.161   1.105  0.5073 -0.2668  0.1367
 9484TIP3    H149867   3.593   6.194   1.057  2.0860  2.2994 -0.8806
 9484TIP3    H249868   3.718   6.110   1.041  0.1350 -1.1096  0.5132
 9485TIP3   OH249869   5.106   3.490   4.339 -0.2804  0.0591  0.2442
 9485TIP3    H149870   5.036   3.448   4.289  0.0790  0.0458 -0.2440
 9485TIP3    H249871   5.103   3.448   4.425  1.2457 -2.2529 -0.7616
 9486TIP3   OH249872   0.101   5.394  13.399  0.1711  0.5956 -0.1476
 9486TIP3    H149873   0.027   5.412  13.457  1.2432 -0.1756  1.5307
 9486TIP3    H249874   0.161   5.467  13.412  1.3626 -0.5860  1.3796
 9487TIP3   OH249875   0.725   1.208   0.103 -0.4727  0.8777 -0.5599
 9487TIP3    H149876   0.664   1.200   0.030 -2.5305  1.2741  1.0390
 9487TIP3    H249877   0.731   1.120   0.140  0.2424  0.7670 -0.9056
 9488TIP3   OH249878   3.182   2.247   2.551 -0.1072  0.0946  0.1665
 9488TIP3    H149879   3.194   2.177   2.615  0.0717 -1.3378 -1.3707
 9488TIP3    H249880   3.173   2.202   2.467  2.2778  1.9312 -1.2341
 9489TIP3   OH249881   3.857   0.506  15.498 -0.0534  0.0720 -0.0434
 9489TIP3    H149882   3.805   0.442  15.450  1.8951 -2.0655  0.5170
 9489TIP3    H249883   3.907   0.551  15.430 -1.4116  1.0506 -0.4393
 9490TIP3   OH249884   5.301   4.594   3.142  0.1470  0.1957  0.6947
 9490TIP3    H149885   5.291   4.507   3.181 -0.4206  0.0137  0.1603
 9490TIP3    H249886   5.384   4.588   3.094 -0.1118 -0.1963  0.2900
 9491TIP3   OH249887   3.087   5.592   1.880  0.5851  0.1331  0.2021
 9491TIP3    H149888   3.044   5.624   1.801 -0.4104  0.9081  1.0214
 9491TIP3    H249889   3.172   5.561   1.851  0.2556  0.4589 -1.1589
 9492TIP3   OH249890   1.923   2.331  16.971 -0.4754  0.3599  0.0295
 9492TIP3    H149891   1.845   2.377  17.002 -1.2386  0.4124 -1.8381
 9492TIP3    H249892   1.992   2.397  16.972 -1.1654  1.1276 -1.0517
 9493TIP3   OH249893   5.364   5.987   2.346 -0.2236  0.2516 -0.1562
 9493TIP3    H149894   5.408   5.916   2.300 -2.0860 -1.7954  1.0056
 9493TIP3    H249895   5.294   6.014   2.287 -0.2101  0.3195 -0.1402
 9494TIP3   OH249896   0.546   2.968  13.419 -0.3722  0.6222  0.4441
 9494TIP3    H149897   0.533   3.042  13.479 -0.9052 -1.0510  2.4925
 9494TIP3    H249898   0.631   2.931  13.444 -0.7709 -0.3203  0.4330
 9495TIP3   OH249899   6.059   5.210  14.939  0.7174 -0.7014  0.0812
 9495TIP3    H149900   6.016   5.142  14.888 -0.6286 -1.4026  2.0003
 9495TIP3    H249901   5.990   5.275  14.957  1.1916 -0.3661  0.7669
 9496TIP3   OH249902   3.142   2.075   1.491 -0.5658  0.5206 -0.1916
 9496TIP3    H149903   3.100   2.084   1.577  0.1108  0.0836  0.1933
 9496TIP3    H249904   3.122   2.157   1.447 -1.2745  0.5887  0.2206
 9497TIP3   OH249905   3.775   0.245   4.247 -0.9879 -0.2696 -0.3170
 9497TIP3    H149906   3.803   0.200   4.327 -0.4792 -1.3742 -1.0904
 9497TIP3    H249907   3.760   0.335   4.274 -0.5506 -0.5637  0.9684
 9498TIP3   OH249908   4.689   2.394   0.247  0.5367 -0.2055 -0.4550
 9498TIP3    H149909   4.695   2.302   0.271  2.1157 -0.1695 -0.6042
 9498TIP3    H249910   4.771   2.432   0.279  0.0850  1.0617 -0.7644
 9499TIP3   OH249911   4.881   0.016   3.749 -0.3063 -0.4453 -0.1347
 9499TIP3    H149912   4.789   0.042   3.745  0.7747  4.1620 -1.7491
 9499TIP3    H249913   4.914   0.031   3.660  2.5634  1.1649  1.0492
 9500TIP3   OH249914   5.220   5.527  11.986 -0.5876 -0.0045 -0.1892
 9500TIP3    H149915   5.257   5.455  12.038  0.6285  0.2728 -0.6311
 9500TIP3    H249916   5.216   5.493  11.897 -0.1514  0.4183 -0.3723
 9501TIP3   OH249917   2.120   2.356   3.687  0.0766  0.1824 -0.0096
 9501TIP3    H149918   2.075   2.431   3.648 -0.0574 -0.2759 -0.7449
 9501TIP3    H249919   2.205   2.352   3.644  0.5614  0.6186  0.8778
 9502TIP3   OH249920   3.335   1.712  14.518  0.2450 -0.4740 -0.0123
 9502TIP3    H149921   3.293   1.653  14.455 -0.3097 -0.6871  0.5510
 9502TIP3    H249922   3.398   1.657  14.564 -0.3436 -0.6574  0.5822
 9503TIP3   OH249923   6.438   6.206  14.197  0.5432  0.1832  0.0023
 9503TIP3    H149924   6.344   6.203  14.179  0.3240 -0.8006  1.1614
 9503TIP3    H249925   6.467   6.115  14.187  1.3731  0.4820 -0.3561
 9504TIP3   OH249926   0.424   3.020   2.869  0.0365 -0.5117 -0.0078
 9504TIP3    H149927   0.395   2.946   2.922 -0.4685 -1.2314 -1.2511
 9504TIP3    H249928   0.352   3.034   2.807 -0.6522  2.1022  1.2404
 9505TIP3   OH249929   3.629   6.295  11.650  0.7977 -0.3668 -0.1594
 9505TIP3    H149930   3.706   6.249  11.684  1.6729  1.1044 -0.0787
 9505TIP3    H249931   3.659   6.385  11.636 -0.8573  0.1896 -0.3147
 9506TIP3   OH249932   1.366   3.576  16.340 -0.4692  0.1024 -0.2430
 9506TIP3    H149933   1.312   3.509  16.383  0.2575 -0.8913 -0.8372
 9506TIP3    H249934   1.324   3.589  16.255  0.3737 -0.9197 -0.8450
 9507TIP3   OH249935   0.556   1.508   1.835 -0.4543  0.3849 -0.6994
 9507TIP3    H149936   0.640   1.552   1.817  0.1463  0.0112  1.0462
 9507TIP3    H249937   0.499   1.577   1.866  0.3184  0.1084  1.4981
 9508TIP3   OH249938   3.493   2.344  11.696  0.1053  0.4557 -0.9648
 9508TIP3    H149939   3.499   2.393  11.614  1.1761  0.1139 -1.1012
 9508TIP3    H249940   3.510   2.410  11.764 -0.8501  0.7522 -0.9976
 9509TIP3   OH249941   6.650   2.493   2.330  0.3727  0.1343  0.4644
 9509TIP3    H149942   6.555   2.504   2.320 -0.0655 -2.2644  1.5118
 9509TIP3    H249943   6.665   2.499   2.424  1.6067  2.3539  0.2074
 9510TIP3   OH249944   6.278   6.197   5.774 -0.3798  0.0590 -0.8384
 9510TIP3    H149945   6.369   6.185   5.745 -0.2130  0.1452 -0.3652
 9510TIP3    H249946   6.238   6.111   5.760 -0.1484 -0.0587 -0.7947
 9511TIP3   OH249947   3.795   3.990   4.461 -0.3079  0.5813  0.2805
 9511TIP3    H149948   3.836   4.004   4.547 -1.2394 -0.1116  0.8594
 9511TIP3    H249949   3.752   3.904   4.469 -0.0848  0.3351 -1.0124
 9512TIP3   OH249950   3.539   4.368   3.593 -0.3369  0.1084 -0.3981
 9512TIP3    H149951   3.583   4.394   3.512 -0.5371  1.4655 -0.1076
 9512TIP3    H249952   3.460   4.322   3.564 -0.8568  1.3312 -1.0283
 9513TIP3   OH249953   3.483   4.433  10.859 -0.5349  0.0660  0.0557
 9513TIP3    H149954   3.390   4.418  10.873 -0.6379  0.7057  0.0901
 9513TIP3    H249955   3.526   4.354  10.892 -1.2558 -1.8533 -3.1828
 9514TIP3   OH249956   0.747   5.994  13.244  0.0021  0.4774  0.1748
 9514TIP3    H149957   0.778   6.038  13.165 -0.3911  0.3470 -0.0567
 9514TIP3    H249958   0.652   6.006  13.242 -0.0346  0.2550  0.4940
 9515TIP3   OH249959   4.414   2.189   4.619 -0.4661 -0.3244  0.0233
 9515TIP3    H149960   4.495   2.156   4.579 -0.1178  0.9289 -0.3731
 9515TIP3    H249961   4.383   2.117   4.673  0.9589 -0.8138  0.2420
 9516TIP3   OH249962   4.379   0.521   3.044  0.4773  0.1031  0.2740
 9516TIP3    H149963   4.401   0.527   3.137 -0.7270 -0.2700  0.6082
 9516TIP3    H249964   4.411   0.602   3.005  1.2291  0.1411  0.9575
 9517TIP3   OH249965   4.331   1.529  10.668  0.5965  0.5835 -0.3471
 9517TIP3    H149966   4.242   1.556  10.647  0.2721 -1.7188 -2.4418
 9517TIP3    H249967   4.338   1.541  10.763 -2.7301 -1.0916  0.2867
 9518TIP3   OH249968   0.265   0.642  12.482  0.2928  0.0092 -0.4675
 9518TIP3    H149969   0.351   0.675  12.455 -0.0619  2.1073  0.8060
 9518TIP3    H249970   0.264   0.651  12.577 -1.7039  1.0451 -0.5259
 9519TIP3   OH249971   4.538   6.202   1.129 -0.0612  0.2959 -0.1823
 9519TIP3    H149972   4.488   6.178   1.051  0.2428  1.5128 -0.7856
 9519TIP3    H249973   4.490   6.162   1.202 -1.9052  1.3586 -0.7325
 9520TIP3   OH249974   3.524   6.081   4.534  0.4905  0.0924 -0.5550
 9520TIP3    H149975   3.583   6.043   4.469  0.5479 -1.7780  0.5305
 9520TIP3    H249976   3.576   6.148   4.578  1.7307 -1.3255  0.1857
 9521TIP3   OH249977   4.011   2.902   1.332  0.0110 -0.4140 -0.2046
 9521TIP3    H149978   4.074   2.865   1.394 -0.2555 -0.8494 -0.1851
 9521TIP3    H249979   4.034   2.994   1.326  0.5544 -0.5380 -0.0804
 9522TIP3   OH249980   3.637   1.213  12.745  0.2438  0.3363 -0.0259
 9522TIP3    H149981   3.599   1.159  12.815 -1.2470  1.3970  0.0179
 9522TIP3    H249982   3.666   1.150  12.680 -0.6906 -0.5730  0.3995
 9523TIP3   OH249983   6.182   2.804   1.232 -0.6117  0.2091 -0.1023
 9523TIP3    H149984   6.199   2.895   1.206 -1.8180  0.3604 -0.4171
 9523TIP3    H249985   6.093   2.787   1.202 -0.3684 -1.1133 -0.1273
 9524TIP3   OH249986   2.611   4.372   0.263  0.1684 -0.3961  0.4822
 9524TIP3    H149987   2.559   4.312   0.316 -1.6352  0.9560  0.3674
 9524TIP3    H249988   2.547   4.412   0.203  0.6750  3.3689  2.1362
 9525TIP3   OH249989   2.657   0.775   4.152  0.1048 -0.2215 -0.4841
 9525TIP3    H149990   2.727   0.834   4.126  0.4165  0.0608  0.8935
 9525TIP3    H249991   2.628   0.808   4.237 -1.0777 -0.8779 -0.6060
 9526TIP3   OH249992   4.635   3.560   0.385  0.6042 -0.2958  0.1780
 9526TIP3    H149993   4.632   3.563   0.289  1.4491 -0.3633  0.1455
 9526TIP3    H249994   4.713   3.610   0.408  0.6499 -0.6547  0.8102
 9527TIP3   OH249995   5.341   2.328   0.206 -0.1992  0.2633  1.0249
 9527TIP3    H149996   5.296   2.280   0.136 -0.0738  2.6071 -0.7845
 9527TIP3    H249997   5.271   2.365   0.259 -0.3583  0.8734  0.3959
 9528TIP3   OH249998   6.667   1.234  16.590  0.3969 -0.0232 -0.3164
 9528TIP3    H149999   6.754   1.242  16.551  0.9605  0.7792  0.9909
 9528TIP3    H250000   6.646   1.323  16.619 -0.8930 -0.1981 -0.6612
 9529TIP3   OH250001   5.542   1.040   4.431 -0.2811 -0.0688 -0.1429
 9529TIP3    H150002   5.559   1.130   4.404 -0.9108  0.0851 -0.0389
 9529TIP3    H250003   5.536   0.991   4.348  2.2578 -0.4577 -0.1788
 9530TIP3   OH250004   3.746   6.156  14.285 -0.9194 -0.2390  0.0040
 9530TIP3    H150005   3.762   6.079  14.230 -0.4298 -0.8912  1.0223
 9530TIP3    H250006   3.698   6.122  14.360 -0.1173  0.3153  0.7862
 9531TIP3   OH250007   4.133   6.163  15.871  0.1361 -0.2150 -0.6438
 9531TIP3    H150008   4.177   6.242  15.901  1.6060 -0.8304 -1.1048
 9531TIP3    H250009   4.174   6.092  15.920  1.0849 -1.0077 -2.4857
 9532TIP3   OH250010   5.868   2.572   4.341 -0.2514 -0.3048  0.8971
 9532TIP3    H150011   5.960   2.552   4.325  0.4241  1.9828  1.5407
 9532TIP3    H250012   5.835   2.601   4.256  0.8524  2.9377  1.4195
 9533TIP3   OH250013   5.723   6.472   3.583 -0.4414  0.1362  0.5036
 9533TIP3    H150014   5.732   6.531   3.508  1.8406 -0.0870  0.5221
 9533TIP3    H250015   5.706   6.530   3.658  1.0205  0.7392  0.3975
 9534TIP3   OH250016   3.177   1.509  14.409  0.2361  0.0693  0.3740
 9534TIP3    H150017   3.125   1.444  14.457  0.3552  0.4932  1.0851
 9534TIP3    H250018   3.226   1.457  14.345 -0.2320 -0.4589  0.4323
 9535TIP3   OH250019   4.217   6.421  13.091 -0.3128  0.2845 -0.2368
 9535TIP3    H150020   4.264   6.383  13.017  0.8348  0.8920  0.1666
 9535TIP3    H250021   4.283   6.470  13.140 -1.0105 -0.2333  1.2852
 9536TIP3   OH250022   3.362   5.826   5.077  0.1829 -0.0476  0.1265
 9536TIP3    H150023   3.315   5.746   5.101  1.1512 -0.6028  0.2595
 9536TIP3    H250024   3.381   5.816   4.984  2.0890 -0.9758  0.5589
 9537TIP3   OH250025   4.400   6.299   5.634  0.5664 -0.1373  0.2953
 9537TIP3    H150026   4.457   6.226   5.654  0.8947  0.0774  0.1458
 9537TIP3    H250027   4.387   6.343   5.719 -0.7999 -1.1943  0.6567
 9538TIP3   OH250028   1.908   2.765  17.174 -0.2608 -0.3037 -0.2209
 9538TIP3    H150029   1.926   2.678  17.137 -1.8332 -1.4235  1.4482
 9538TIP3    H250030   1.815   2.779  17.159 -0.6124 -0.1244  1.7777
 9539TIP3   OH250031   2.702   2.873  14.385  0.2787 -0.0434  0.3348
 9539TIP3    H150032   2.619   2.867  14.432  0.9232  0.1443  1.5193
 9539TIP3    H250033   2.749   2.945  14.427  0.3090  1.1179 -1.5358
 9540TIP3   OH250034   2.393   6.397   3.927 -0.5017 -0.2356  0.4496
 9540TIP3    H150035   2.327   6.459   3.958  0.0502  0.2005  0.7634
 9540TIP3    H250036   2.464   6.403   3.991  0.3999  0.2455 -0.5627
 9541TIP3   OH250037   1.298   4.662   2.876  0.2187  0.4643  0.1214
 9541TIP3    H150038   1.384   4.675   2.837  1.4406 -0.6986  2.2288
 9541TIP3    H250039   1.307   4.582   2.928 -2.5580 -0.4743 -0.6508
 9542TIP3   OH250040   3.212   1.316  12.400 -0.3646 -0.2859 -0.0726
 9542TIP3    H150041   3.305   1.292  12.405 -0.3792 -0.4225 -0.4485
 9542TIP3    H250042   3.193   1.318  12.307 -0.9010 -0.8850  0.0196
 9543TIP3   OH250043   3.510   4.136  13.922  0.2781  0.7112 -0.3655
 9543TIP3    H150044   3.531   4.201  13.856  0.4806 -0.8443 -1.9205
 9543TIP3    H250045   3.448   4.179  13.981  0.8931  2.4688 -0.9540
 9544TIP3   OH250046   2.665   2.040   0.112  0.1094  0.2736  0.4696
 9544TIP3    H150047   2.684   1.996   0.029  0.3695  2.3558 -0.6403
 9544TIP3    H250048   2.584   2.089   0.096 -0.8172 -0.6591  2.0284
 9545TIP3   OH250049   1.943   6.091   6.758 -0.1316 -0.3997 -0.1196
 9545TIP3    H150050   1.985   6.017   6.804 -0.4564 -1.1956 -1.0747
 9545TIP3    H250051   1.989   6.096   6.675 -0.7436 -0.1261 -0.4442
 9546TIP3   OH250052   0.823   3.953   3.384  0.4298  0.1897 -0.0258
 9546TIP3    H150053   0.899   3.953   3.441  0.7270 -0.4558 -0.4006
 9546TIP3    H250054   0.749   3.931   3.441  0.6382  0.0964  0.2071
 9547TIP3   OH250055   3.079   6.049   0.980 -0.3437  0.5102 -0.7175
 9547TIP3    H150056   3.088   6.038   0.886 -0.3565 -2.4308 -0.4717
 9547TIP3    H250057   3.155   6.004   1.017 -1.5103 -0.3899  0.6884
 9548TIP3   OH250058   5.608   5.133  11.982 -0.2612  0.0440  0.4152
 9548TIP3    H150059   5.662   5.168  11.911  0.8322  0.5022  1.4358
 9548TIP3    H250060   5.541   5.199  11.996 -0.7867 -0.2808 -0.5137
 9549TIP3   OH250061   1.342   4.987  17.306  0.6991 -0.0607  0.1646
 9549TIP3    H150062   1.304   5.074  17.311  1.4946  0.2766  0.5993
 9549TIP3    H250063   1.276   4.929  17.344 -0.1237  0.2447 -0.7690
 9550TIP3   OH250064   1.777   4.118   3.608 -0.5024 -0.0861 -0.3926
 9550TIP3    H150065   1.795   4.170   3.687 -1.2494 -1.3818  0.6772
 9550TIP3    H250066   1.864   4.095   3.575 -0.1306 -0.9881  1.0955
 9551TIP3   OH250067   1.455   4.776   0.489 -0.0416 -0.1342  0.3505
 9551TIP3    H150068   1.404   4.712   0.439 -0.1223 -0.6938  1.1327
 9551TIP3    H250069   1.517   4.811   0.426 -0.0218 -0.9592 -0.1046
 9552TIP3   OH250070   1.226   2.867  11.330  0.6331 -0.6635  0.5940
 9552TIP3    H150071   1.285   2.848  11.403  1.1617 -0.7025  0.1629
 9552TIP3    H250072   1.249   2.956  11.303  0.6169 -0.7414  0.3171
 9553TIP3   OH250073   3.902   5.327   3.913 -0.2703 -0.3261 -0.1893
 9553TIP3    H150074   3.959   5.252   3.927  1.0806  0.8641  1.0677
 9553TIP3    H250075   3.828   5.311   3.971  0.5418 -0.1895  0.9189
 9554TIP3   OH250076   6.465   5.489  11.314 -0.1361  0.4467  0.0853
 9554TIP3    H150077   6.418   5.571  11.324 -0.6009  0.2207 -0.2038
 9554TIP3    H250078   6.488   5.486  11.221 -0.6084 -0.0037 -0.0227
 9555TIP3   OH250079   3.896   5.321  11.944  0.4522 -0.0953  0.3441
 9555TIP3    H150080   3.968   5.352  11.889 -0.7618 -0.3619 -1.4592
 9555TIP3    H250081   3.879   5.393  12.004  1.0971  0.6535 -0.3447
 9556TIP3   OH250082   1.920   0.418   0.899 -0.2863  0.3419  0.2385
 9556TIP3    H150083   1.866   0.473   0.843 -1.1256 -1.4700 -0.8395
 9556TIP3    H250084   2.009   0.453   0.889 -0.6833  1.0684 -0.9369
 9557TIP3   OH250085   5.666   3.194  15.797  0.0720  0.1481 -0.4206
 9557TIP3    H150086   5.725   3.263  15.826 -1.4903  0.3006  2.8544
 9557TIP3    H250087   5.706   3.113  15.829  0.1448 -0.1082 -1.1450
 9558TIP3   OH250088   6.348   2.245  16.255  0.3350  0.4437 -0.3208
 9558TIP3    H150089   6.337   2.170  16.196  2.2225  0.2697 -0.5315
 9558TIP3    H250090   6.306   2.218  16.337  0.7955 -0.7749 -0.4706
 9559TIP3   OH250091   5.569   5.047  15.237 -0.4599 -0.2188 -0.6727
 9559TIP3    H150092   5.527   5.007  15.313  1.6754 -2.5089 -0.5733
 9559TIP3    H250093   5.547   5.140  15.244 -2.3498 -0.7292  1.3439
 9560TIP3   OH250094   0.031   6.448   4.673  0.4526 -0.6531 -0.2427
 9560TIP3    H150095   0.062   6.408   4.592  0.9618  1.0315 -0.9220
 9560TIP3    H250096  -0.044   6.502   4.647  0.4604 -0.3034  0.4313
 9561TIP3   OH250097   3.081   4.906   5.392 -0.0812 -0.3478 -0.1081
 9561TIP3    H150098   3.105   4.830   5.340  1.3699  0.1689 -0.2270
 9561TIP3    H250099   3.141   4.904   5.467  0.9397  1.4006 -0.8093
 9562TIP3   OH250100   1.255   4.537   3.683 -0.0190 -0.3400  0.0625
 9562TIP3    H150101   1.219   4.592   3.614  1.7341 -1.5299 -1.9380
 9562TIP3    H250102   1.180   4.489   3.717 -1.1117  1.1368 -0.1531
 9563TIP3   OH250103   2.422   6.183  13.934  0.2630 -0.4716  0.3548
 9563TIP3    H150104   2.329   6.207  13.942  0.6120  1.7916 -1.3404
 9563TIP3    H250105   2.437   6.178  13.840  1.9153 -0.5966  0.6006
 9564TIP3   OH250106   6.724   1.224   2.640 -0.4087 -0.6918 -0.0021
 9564TIP3    H150107   6.760   1.287   2.578  1.0170 -1.5316 -0.0845
 9564TIP3    H250108   6.638   1.202   2.605 -0.0620 -0.3476 -1.1175
 9565TIP3   OH250109   6.663   2.778  10.929  0.0109  0.4597  0.4955
 9565TIP3    H150110   6.757   2.769  10.945 -0.2301 -2.2026  0.8601
 9565TIP3    H250111   6.657   2.812  10.840  1.3473 -0.1451  0.1444
 9566TIP3   OH250112   4.953   3.704   3.296  0.5736 -0.1745 -0.6318
 9566TIP3    H150113   4.910   3.683   3.379 -1.5227  3.9408 -0.3996
 9566TIP3    H250114   5.020   3.768   3.319  0.8909  0.0082 -1.9673
 9567TIP3   OH250115   4.049   0.652  13.579 -0.1618  0.3469 -0.3513
 9567TIP3    H150116   4.142   0.631  13.581 -0.5385 -1.3859 -0.0622
 9567TIP3    H250117   4.038   0.714  13.652  0.5990 -0.1859  0.2400
 9568TIP3   OH250118   3.321   5.792   4.819  0.6804 -0.3788  0.1900
 9568TIP3    H150119   3.382   5.721   4.798  1.2139  0.6252 -1.9948
 9568TIP3    H250120   3.320   5.846   4.740 -0.3231  1.6073  1.4894
 9569TIP3   OH250121   1.705   4.075  13.048  0.3559  0.2679  0.1229
 9569TIP3    H150122   1.614   4.059  13.073  0.5651  0.9980  1.4757
 9569TIP3    H250123   1.715   4.032  12.963 -0.7195 -1.4242  0.8175
 9570TIP3   OH250124   1.475   6.053   1.426  0.7175 -0.1782 -0.5500
 9570TIP3    H150125   1.465   5.981   1.363  1.7631  0.3764 -1.3711
 9570TIP3    H250126   1.516   6.013   1.502 -2.0798 -1.2307  0.5340
 9571TIP3   OH250127   5.538   2.511  14.415  0.3020 -0.2354  0.4234
 9571TIP3    H150128   5.628   2.482  14.431  0.6020 -0.0057 -0.7542
 9571TIP3    H250129   5.528   2.506  14.320 -0.4452  1.1447  0.4083
 9572TIP3   OH250130   4.561   0.249   5.000 -0.2718  1.0154  0.2716
 9572TIP3    H150131   4.473   0.246   4.964 -1.0869 -0.2105  2.2263
 9572TIP3    H250132   4.568   0.337   5.038 -0.5207  1.2264 -0.1627
 9573TIP3   OH250133   4.730   5.994  12.647 -0.2967  0.3927 -0.3777
 9573TIP3    H150134   4.712   5.934  12.719  0.0831 -0.5903 -1.0791
 9573TIP3    H250135   4.732   5.939  12.569 -0.0650  1.3354 -1.0640
 9574TIP3   OH250136   0.575   2.814   4.538  0.4138  0.0426 -0.2281
 9574TIP3    H150137   0.504   2.867   4.573 -0.2853 -0.9554 -0.1000
 9574TIP3    H250138   0.630   2.876   4.491 -0.5267  0.8413 -0.3039
 9575TIP3   OH250139   5.650   6.712  14.417 -0.0016 -0.2548  0.1832
 9575TIP3    H150140   5.621   6.713  14.508 -0.4559 -0.5136  0.0449
 9575TIP3    H250141   5.716   6.643  14.413 -2.0443 -2.2775 -0.2884
 9576TIP3   OH250142   3.175   2.303   1.296  0.0865  0.0948 -0.1054
 9576TIP3    H150143   3.235   2.340   1.361 -2.0340  1.1240  1.4108
 9576TIP3    H250144   3.166   2.371   1.230 -0.7550  0.7122  0.6173
 9577TIP3   OH250145   6.083   3.642  11.758 -0.5787 -0.4025 -0.0068
 9577TIP3    H150146   6.133   3.635  11.839 -1.1505 -1.3734  0.2706
 9577TIP3    H250147   6.026   3.565  11.757 -1.6298  0.3489 -0.6161
 9578TIP3   OH250148   6.136   5.301  13.220 -0.2021  0.1295  0.0592
 9578TIP3    H150149   6.180   5.256  13.292  0.7136 -0.0214 -0.5604
 9578TIP3    H250150   6.196   5.289  13.146  0.0737  2.3168 -0.1431
 9579TIP3   OH250151   4.521   5.224   3.713 -0.0830 -0.0733  0.3609
 9579TIP3    H150152   4.549   5.315   3.707 -0.2521 -0.0715 -0.6397
 9579TIP3    H250153   4.592   5.174   3.672 -0.4069 -0.3034  0.0769
 9580TIP3   OH250154   4.592   2.979   2.656  1.4167 -0.5575  0.1649
 9580TIP3    H150155   4.687   2.972   2.670  1.5460 -1.7862 -1.1606
 9580TIP3    H250156   4.575   2.927   2.578 -0.2550  0.3060 -0.0918
 9581TIP3   OH250157   0.889   2.901   6.621  0.3508  0.3526  0.3939
 9581TIP3    H150158   0.849   2.966   6.563  0.1666  2.5300  2.7484
 9581TIP3    H250159   0.981   2.898   6.594  0.2076  1.0811 -0.2157
 9582TIP3   OH250160   1.595   2.463  14.964  0.5687 -0.1679  0.7602
 9582TIP3    H150161   1.536   2.415  15.021 -0.7297  0.6108  0.1047
 9582TIP3    H250162   1.622   2.538  15.016  0.2881 -0.0586  0.7484
 9583TIP3   OH250163   1.788   0.514   2.931 -0.0623  0.4649 -0.0240
 9583TIP3    H150164   1.749   0.594   2.969 -0.3332 -0.2998  1.3659
 9583TIP3    H250165   1.881   0.522   2.950 -0.2133  0.0247  0.9582
 9584TIP3   OH250166   4.238   0.953   5.538 -0.3836 -0.0822 -0.1046
 9584TIP3    H150167   4.188   1.024   5.498  1.4245  0.2937 -1.8729
 9584TIP3    H250168   4.177   0.880   5.541 -0.9723  0.1657 -2.7656
 9585TIP3   OH250169   0.096   0.907   0.305  0.0038 -0.0394 -0.5515
 9585TIP3    H150170   0.073   0.867   0.222  0.3566 -1.1998 -0.1063
 9585TIP3    H250171   0.052   0.993   0.304 -0.2457 -0.1739 -1.7806
 9586TIP3   OH250172   2.356   0.549   2.197 -0.4032 -0.2691 -0.2572
 9586TIP3    H150173   2.368   0.643   2.209  1.2212 -0.7161  2.2269
 9586TIP3    H250174   2.296   0.523   2.266  1.4645 -1.4374  1.0354
 9587TIP3   OH250175   1.114   0.634  16.065 -0.2161 -0.3942  0.3537
 9587TIP3    H150176   1.079   0.717  16.032 -0.3532 -0.9033 -0.8309
 9587TIP3    H250177   1.160   0.658  16.146 -0.9773  0.6991  0.4857
 9588TIP3   OH250178   0.132   1.406   3.639  0.2796 -0.0237  0.2947
 9588TIP3    H150179   0.081   1.335   3.601  1.4317 -1.0357  0.5755
 9588TIP3    H250180   0.219   1.397   3.600  0.4695  1.2159  0.3718
 9589TIP3   OH250181   1.035   0.123  12.894 -0.1904 -0.1697  0.4275
 9589TIP3    H150182   1.039   0.171  12.976 -2.1421  0.0565  0.4379
 9589TIP3    H250183   0.942   0.113  12.876  0.1567 -2.3172 -0.5515
 9590TIP3   OH250184   0.930   4.114   0.486  0.1208 -0.3665 -0.0866
 9590TIP3    H150185   0.846   4.139   0.448 -0.3173  0.8958  1.6168
 9590TIP3    H250186   0.930   4.152   0.574  1.6057 -2.0920  0.7495
 9591TIP3   OH250187   6.641   5.121   1.746  0.4669  0.1908 -0.2375
 9591TIP3    H150188   6.698   5.083   1.813  0.4311  2.2345  1.0375
 9591TIP3    H250189   6.630   5.212   1.772 -1.6371  0.4269 -1.6538
 9592TIP3   OH250190   3.300   5.387   3.780  0.0077 -0.3678 -0.2669
 9592TIP3    H150191   3.270   5.367   3.691 -0.8274  1.0097 -0.3399
 9592TIP3    H250192   3.290   5.305   3.828 -0.1213 -0.9716 -1.2987
 9593TIP3   OH250193   4.575   6.056  12.333 -0.4111  0.8495 -0.1943
 9593TIP3    H150194   4.484   6.055  12.362 -0.7835  0.5820 -1.3573
 9593TIP3    H250195   4.601   6.148  12.342  0.3132  0.4504  3.3853
 9594TIP3   OH250196   5.710   4.291   4.198 -0.1134  0.3912  0.5784
 9594TIP3    H150197   5.632   4.317   4.150 -0.1781  0.1733  0.5680
 9594TIP3    H250198   5.779   4.350   4.166  0.0406 -0.3044 -0.3889
 9595TIP3   OH250199   6.253   3.751   5.738 -0.3488  0.4826  0.3751
 9595TIP3    H150200   6.184   3.685   5.727 -0.5382  0.6060  0.8413
 9595TIP3    H250201   6.219   3.811   5.803 -1.3049  2.5376 -1.8592
 9596TIP3   OH250202   5.878   3.107  13.377 -0.5252 -0.1083 -0.1356
 9596TIP3    H150203   5.786   3.090  13.356 -0.5692  0.4051 -0.3746
 9596TIP3    H250204   5.911   3.023  13.409 -0.8043 -0.5728 -1.0193
 9597TIP3   OH250205   5.049   5.260   6.635 -0.1194 -0.3800 -0.1691
 9597TIP3    H150206   5.077   5.328   6.697  0.3482 -1.8148  1.2447
 9597TIP3    H250207   5.012   5.309   6.562 -2.3858  1.3865  1.9720
 9598TIP3   OH250208   4.544   1.787  16.240  0.5732 -0.2918 -0.3339
 9598TIP3    H150209   4.499   1.704  16.257 -0.3072  0.6014  2.0720
 9598TIP3    H250210   4.623   1.783  16.294  1.3306 -0.1464 -1.3908
 9599TIP3   OH250211   5.028   5.109   2.004  0.3009  0.1870 -0.0254
 9599TIP3    H150212   5.105   5.078   2.052  0.5061 -0.5851 -0.8375
 9599TIP3    H250213   4.973   5.032   1.994  0.5232  0.1923 -1.5187
 9600TIP3   OH250214   6.354   6.142   2.809 -0.7333  0.1781  0.3741
 9600TIP3    H150215   6.320   6.215   2.758  0.9057 -0.6670 -2.0825
 9600TIP3    H250216   6.362   6.177   2.898 -1.8211  2.3424 -0.3101
 9601TIP3   OH250217   2.029   3.996  17.326  0.0611  0.1082 -0.8877
 9601TIP3    H150218   1.938   4.009  17.298 -0.4616 -2.0573 -0.4140
 9601TIP3    H250219   2.043   3.902  17.318  1.9585  0.2688  0.0070
 9602TIP3   OH250220   2.236   1.983  13.311  0.2759  0.0544  0.0418
 9602TIP3    H150221   2.330   1.968  13.298  0.0980  1.2102 -4.6552
 9602TIP3    H250222   2.196   1.898  13.294  0.4236  0.1446 -0.8444
 9603TIP3   OH250223   0.997   2.743   2.173  0.0203 -0.9503  0.1149
 9603TIP3    H150224   0.963   2.806   2.237  3.2722  2.3996 -1.0670
 9603TIP3    H250225   1.015   2.664   2.225  1.3319  1.1674  3.2215
 9604TIP3   OH250226   5.779   5.037   1.763  0.1331  0.3136 -0.5894
 9604TIP3    H150227   5.712   4.975   1.733  0.5004 -0.4053  0.0402
 9604TIP3    H250228   5.810   5.000   1.845 -1.0685  2.3716  0.8783
 9605TIP3   OH250229   2.472   6.096  11.128 -0.4891  0.1112  0.5454
 9605TIP3    H150230   2.480   6.175  11.076  0.7880 -0.6016 -0.4067
 9605TIP3    H250231   2.499   6.025  11.069  2.5376 -0.5876  2.5569
 9606TIP3   OH250232   6.646   6.547  13.279  0.2877 -0.1034  0.0927
 9606TIP3    H150233   6.730   6.592  13.288 -0.4913  1.2959  0.6736
 9606TIP3    H250234   6.585   6.599  13.331 -0.8492 -1.3689  0.0757
 9607TIP3   OH250235   3.338   4.028   6.469  0.4275  0.0155 -0.4192
 9607TIP3    H150236   3.433   4.017   6.464  0.5882  1.3384 -0.7238
 9607TIP3    H250237   3.303   3.939   6.463  1.6725 -0.6010  0.8096
 9608TIP3   OH250238   5.209   3.123   0.466  0.1192 -0.0094 -0.0533
 9608TIP3    H150239   5.127   3.161   0.436 -0.7056 -1.8719 -0.2957
 9608TIP3    H250240   5.250   3.089   0.387  1.1599  0.9141  0.0614
 9609TIP3   OH250241   1.620   4.477   5.397 -0.5076 -0.2374  0.3247
 9609TIP3    H150242   1.546   4.465   5.337 -0.6685 -1.6119  0.7396
 9609TIP3    H250243   1.635   4.571   5.400 -0.4339 -0.1386 -1.9284
 9610TIP3   OH250244   3.978   4.315   6.121 -0.5324 -0.4499  0.2057
 9610TIP3    H150245   3.996   4.222   6.111 -1.6565 -0.8203  1.3982
 9610TIP3    H250246   4.062   4.357   6.105 -0.3132 -1.5348 -1.8190
 9611TIP3   OH250247   1.930   0.967  13.082  0.1042 -0.1906  0.0547
 9611TIP3    H150248   1.962   0.882  13.111  0.3557  0.0742  0.5774
 9611TIP3    H250249   1.945   1.025  13.157 -1.5675 -0.0545  0.3233
 9612TIP3   OH250250   5.212   0.809   2.606 -0.3053  0.3734 -0.3038
 9612TIP3    H150251   5.273   0.794   2.678  0.1630  2.0389 -0.3098
 9612TIP3    H250252   5.194   0.722   2.571  0.8188 -0.2967  0.7224
 9613TIP3   OH250253   4.902   4.943  12.814  0.0263  0.2413 -0.3241
 9613TIP3    H150254   4.949   4.938  12.731 -0.0278  0.6189 -0.3805
 9613TIP3    H250255   4.909   4.855  12.851  0.8896  0.3223 -0.2664
 9614TIP3   OH250256   3.997   6.221   4.720 -0.1185  0.5708 -0.0969
 9614TIP3    H150257   3.966   6.303   4.760 -0.0149  0.1828  0.7940
 9614TIP3    H250258   4.090   6.237   4.704  0.3818 -0.0461  1.9112
 9615TIP3   OH250259   1.236   2.568   2.566  0.4649 -0.3039 -0.0640
 9615TIP3    H150260   1.244   2.583   2.660  0.8064  0.3151 -0.1869
 9615TIP3    H250261   1.198   2.480   2.559  1.0489 -0.6253  0.6406
 9616TIP3   OH250262   4.073   4.350   1.124 -0.7989  0.0324  0.6950
 9616TIP3    H150263   4.117   4.304   1.195  0.0052  0.0712  0.2389
 9616TIP3    H250264   4.043   4.432   1.163 -1.6404 -0.5624  1.3393
 9617TIP3   OH250265   2.218   5.321  14.524 -0.0705  0.0409  0.1228
 9617TIP3    H150266   2.172   5.384  14.579 -3.0428 -2.3640  0.6462
 9617TIP3    H250267   2.263   5.375  14.459 -0.2453  2.7677  2.0690
 9618TIP3   OH250268   1.324   4.729  12.180 -0.3565 -0.1318 -0.0538
 9618TIP3    H150269   1.418   4.719  12.189 -0.3440 -1.0730 -0.9704
 9618TIP3    H250270   1.290   4.720  12.269  0.3308 -0.9908  0.1416
 9619TIP3   OH250271   3.947   2.009  13.432  0.3685 -0.0498 -0.1709
 9619TIP3    H150272   4.024   2.047  13.474 -0.1822  0.9427 -0.0245
 9619TIP3    H250273   3.873   2.044  13.482 -0.1637 -2.0300  0.5394
 9620TIP3   OH250274   5.636   6.748  10.647  0.4257  0.5902 -0.3972
 9620TIP3    H150275   5.553   6.766  10.604 -0.9843  1.1743  2.3101
 9620TIP3    H250276   5.696   6.722  10.577 -1.8972  0.6157 -2.4883
 9621TIP3   OH250277   5.907   3.023   5.798  0.4880  0.2507 -0.2787
 9621TIP3    H150278   5.987   3.023   5.851  0.0058 -0.1310  0.4683
 9621TIP3    H250279   5.874   3.112   5.806  1.4257  0.7542 -1.5415
 9622TIP3   OH250280   3.179   5.912   2.968  0.1543 -0.0365  0.1564
 9622TIP3    H150281   3.193   5.818   2.963  1.1181  0.1418 -0.8411
 9622TIP3    H250282   3.199   5.944   2.880  0.3345  1.1683  0.6122
 9623TIP3   OH250283   4.149   1.006   3.145  0.9370 -0.2938  0.3141
 9623TIP3    H150284   4.125   0.914   3.132  2.3984 -0.8034  1.0186
 9623TIP3    H250285   4.169   1.038   3.057  0.9090 -0.7947  0.1201
 9624TIP3   OH250286   2.167   1.019  12.448 -0.2695 -0.3001  0.1586
 9624TIP3    H150287   2.123   1.077  12.386  0.4625  0.4853  0.3610
 9624TIP3    H250288   2.123   0.934  12.436  0.6269 -0.5007 -2.2908
 9625TIP3   OH250289   5.664   0.797   0.113 -0.8692  0.0540 -0.5080
 9625TIP3    H150290   5.733   0.733   0.099 -1.1181 -0.2598 -0.2943
 9625TIP3    H250291   5.661   0.846   0.031 -0.7622 -0.2873 -0.7186
 9626TIP3   OH250292   2.951   3.941   0.653  0.4825  0.3855 -0.2956
 9626TIP3    H150293   2.988   3.942   0.741  0.5305 -1.7581 -0.2414
 9626TIP3    H250294   2.884   4.009   0.654  0.7136  0.6265  1.2893
 9627TIP3   OH250295   2.998   3.717   1.862  0.1351  0.0667 -0.6208
 9627TIP3    H150296   3.062   3.726   1.792 -0.1040  3.4071 -0.5971
 9627TIP3    H250297   3.051   3.708   1.942  0.6132  1.7767 -0.7099
 9628TIP3   OH250298   4.825   2.592   2.389 -0.0942 -0.7603  0.1442
 9628TIP3    H150299   4.852   2.641   2.466 -1.0814 -0.1228  0.1022
 9628TIP3    H250300   4.841   2.651   2.316 -1.4326 -0.4010  0.1107
 9629TIP3   OH250301   0.451   3.582  12.880  0.0607 -0.1835 -0.2371
 9629TIP3    H150302   0.424   3.490  12.889  0.9606 -0.2926  1.7519
 9629TIP3    H250303   0.535   3.577  12.834 -1.4251 -0.0708 -3.1834
 9630TIP3   OH250304   5.478   3.251  17.183 -0.5172  0.4489 -0.1570
 9630TIP3    H150305   5.458   3.183  17.247 -0.5751  0.4250 -0.2009
 9630TIP3    H250306   5.574   3.251  17.176 -0.5755 -0.5529 -1.1653
 9631TIP3   OH250307   0.246   5.885  12.103  0.2181 -0.2875 -0.0589
 9631TIP3    H150308   0.289   5.967  12.130  0.0633 -0.7906  1.8284
 9631TIP3    H250309   0.318   5.831  12.070  0.1444  1.0643 -2.7121
 9632TIP3   OH250310   2.494   0.253  10.776  0.3514 -0.2969  0.4594
 9632TIP3    H150311   2.522   0.341  10.751  1.6603 -0.4911  1.1340
 9632TIP3    H250312   2.398   0.258  10.778  0.4037  1.1645  0.6863
 9633TIP3   OH250313   0.305   0.469   0.519  0.3077  0.2840 -0.1508
 9633TIP3    H150314   0.216   0.437   0.512  0.5397 -0.0642 -1.9960
 9633TIP3    H250315   0.298   0.564   0.510  0.1070  0.2759 -0.0718
 9634TIP3   OH250316   1.796   5.689   1.689  0.0912  0.0228 -0.0484
 9634TIP3    H150317   1.885   5.718   1.673 -0.1472  0.7670 -0.0725
 9634TIP3    H250318   1.805   5.599   1.722  0.7503 -0.6326 -1.8647
 9635TIP3   OH250319   4.451   1.335  14.727  0.2691 -0.3459  0.1576
 9635TIP3    H150320   4.484   1.363  14.812  0.4955  0.6111 -0.2349
 9635TIP3    H250321   4.360   1.363  14.725  0.0337 -1.0616  0.3810
 9636TIP3   OH250322   5.257   1.992  13.372 -0.0135  0.6368 -0.2410
 9636TIP3    H150323   5.328   1.991  13.308  2.2321  3.3641  1.9718
 9636TIP3    H250324   5.195   2.057  13.338  1.0230  1.8588  0.1413
 9637TIP3   OH250325   2.459   4.315   5.362 -0.3239  0.3535  0.6197
 9637TIP3    H150326   2.501   4.337   5.279  1.8939 -0.8652  1.3285
 9637TIP3    H250327   2.370   4.290   5.338 -0.2845  1.7113 -1.1430
 9638TIP3   OH250328   6.454   3.182  16.428 -0.2664  0.2298 -0.5667
 9638TIP3    H150329   6.454   3.257  16.368  0.1334  0.7922  0.1215
 9638TIP3    H250330   6.545   3.154  16.430 -0.6015 -1.0473 -1.7386
 9639TIP3   OH250331   3.753   2.966   3.397 -0.0234  0.6480 -0.0396
 9639TIP3    H150332   3.700   3.042   3.423 -0.5071 -0.4555  2.4458
 9639TIP3    H250333   3.697   2.918   3.335 -0.6292  1.1550  0.1011
 9640TIP3   OH250334   6.172   1.128  12.652  0.4385  0.1951  0.0025
 9640TIP3    H150335   6.192   1.212  12.610  1.2922 -0.2522 -0.5273
 9640TIP3    H250336   6.157   1.068  12.579  1.5344 -0.5017  0.3237
 9641TIP3   OH250337   0.667   0.160  13.064 -0.7473 -0.0525 -0.2174
 9641TIP3    H150338   0.708   0.163  12.978 -0.1511  2.6736  0.0728
 9641TIP3    H250339   0.702   0.081  13.105 -0.3952 -0.9403 -2.1374
 9642TIP3   OH250340   2.978   6.051  12.708 -0.1123  0.1066 -0.3602
 9642TIP3    H150341   2.962   6.119  12.642  1.1926  1.4289  0.6373
 9642TIP3    H250342   2.972   6.096  12.792  0.3449 -1.1056  0.3588
 9643TIP3   OH250343   2.191   0.468  14.274 -0.5692 -0.0052 -0.3535
 9643TIP3    H150344   2.192   0.486  14.368 -2.5142  0.6115 -0.4110
 9643TIP3    H250345   2.243   0.388  14.265 -0.1134  0.0819  1.2076
 9644TIP3   OH250346   3.632   1.874  15.734 -0.1182  0.8838  0.2235
 9644TIP3    H150347   3.685   1.834  15.665  0.4937 -0.3273  1.3582
 9644TIP3    H250348   3.671   1.843  15.816  0.8250  4.2991  1.2623
 9645TIP3   OH250349   1.679   2.064  12.785  0.3732 -0.1922  0.9531
 9645TIP3    H150350   1.654   2.144  12.740 -0.7479 -0.9291  0.2149
 9645TIP3    H250351   1.597   2.015  12.796  1.2034 -1.8792  0.1127
 9646TIP3   OH250352   5.111   4.422  11.637  0.1953 -0.0276 -0.0227
 9646TIP3    H150353   5.063   4.377  11.706  3.6873 -1.5403  1.6778
 9646TIP3    H250354   5.108   4.362  11.563  0.4273 -0.6710  0.4743
 9647TIP3   OH250355   6.705   2.455  12.865 -0.2583 -0.4532  0.3906
 9647TIP3    H150356   6.637   2.451  12.798  0.7631 -2.3754 -0.6060
 9647TIP3    H250357   6.774   2.509  12.826 -0.6860  0.5140  0.9331
 9648TIP3   OH250358   5.918   5.684  14.758  0.0282 -1.0211  0.4737
 9648TIP3    H150359   5.946   5.753  14.818  0.3729 -0.3707 -0.4316
 9648TIP3    H250360   5.963   5.605  14.790  1.4023 -0.3779  0.1859
 9649TIP3   OH250361   1.340   4.063   2.911 -0.3571 -0.1688 -0.4023
 9649TIP3    H150362   1.305   3.985   2.867  0.1623 -0.2952 -0.5967
 9649TIP3    H250363   1.371   4.119   2.841  0.2151 -0.2469 -0.2200
 9650TIP3   OH250364   6.587   1.176  12.611  0.0159  0.8910  0.8617
 9650TIP3    H150365   6.670   1.224  12.604 -0.2088  1.2173  0.3041
 9650TIP3    H250366   6.564   1.156  12.520  0.3100 -0.6503  1.1151
 9651TIP3   OH250367   6.485   6.277   2.324 -0.5795 -0.4629 -0.0058
 9651TIP3    H150368   6.442   6.318   2.249 -1.6886 -0.6549  0.5163
 9651TIP3    H250369   6.416   6.264   2.388 -0.1092 -2.4258  0.1778
 9652TIP3   OH250370   5.540   6.243   1.369 -0.1905  0.1931 -0.0368
 9652TIP3    H150371   5.521   6.301   1.296 -0.0580  0.2846  0.0021
 9652TIP3    H250372   5.513   6.156   1.339 -0.4499  0.2833 -0.0707
 9653TIP3   OH250373   1.290   1.016   2.450 -0.4335  0.3750  0.7014
 9653TIP3    H150374   1.377   1.056   2.457 -0.3173  0.2481  0.1066
 9653TIP3    H250375   1.308   0.922   2.444 -0.6895  0.2465  1.8365
 9654TIP3   OH250376   5.894   5.795   1.756 -0.7013 -0.2280  0.7220
 9654TIP3    H150377   5.833   5.740   1.805  1.2557 -2.7826  0.5112
 9654TIP3    H250378   5.838   5.851   1.703 -3.0498 -3.9595 -1.2167
 9655TIP3   OH250379   6.627   5.889   5.580 -0.4550  0.1721 -0.2218
 9655TIP3    H150380   6.560   5.939   5.627  1.0080  2.1005 -0.0520
 9655TIP3    H250381   6.653   5.820   5.641 -0.7978  0.7120  0.5411
 9656TIP3   OH250382   1.016   5.727  14.808 -0.4610 -0.4836  0.0437
 9656TIP3    H150383   1.038   5.724  14.901 -1.0567 -0.8032  0.1816
 9656TIP3    H250384   0.979   5.641  14.789  0.7547 -0.8569 -0.7834
 9657TIP3   OH250385   6.133   2.491   3.721 -0.2351  0.4684  0.7272
 9657TIP3    H150386   6.205   2.501   3.783  1.1323  0.4749 -0.7734
 9657TIP3    H250387   6.141   2.567   3.663 -0.5858 -0.2225 -0.2629
 9658TIP3   OH250388   5.227   0.423  11.761 -0.0010  0.2948 -0.6222
 9658TIP3    H150389   5.168   0.479  11.711  0.0976  0.3609 -0.6639
 9658TIP3    H250390   5.308   0.474  11.769 -0.1080  0.3992 -0.1627
 9659TIP3   OH250391   4.095   6.214   1.266 -0.2160  0.0973 -0.3759
 9659TIP3    H150392   4.043   6.136   1.286 -1.0043  0.6345 -0.3165
 9659TIP3    H250393   4.031   6.281   1.242  0.4007  0.9410  0.2622
 9660TIP3   OH250394   5.865   1.023  15.049  0.3890  0.3943 -0.2987
 9660TIP3    H150395   5.938   0.983  15.095  0.8001  1.0301 -0.3991
 9660TIP3    H250396   5.820   1.076  15.115 -1.9588 -2.4825  0.6667
 9661TIP3   OH250397   1.485   5.202   3.734  0.2330 -0.4500  0.2957
 9661TIP3    H150398   1.433   5.221   3.813  0.1912  0.6502  0.0194
 9661TIP3    H250399   1.550   5.272   3.731 -0.6004  0.2883 -1.3553
 9662TIP3   OH250400   2.069   6.169  15.239  0.2334  0.0206 -0.0298
 9662TIP3    H150401   2.043   6.114  15.165 -1.0311 -0.0398  0.4330
 9662TIP3    H250402   2.093   6.107  15.308  0.6120  0.0722 -0.1122
 9663TIP3   OH250403   3.747   6.646   2.158 -0.1940 -0.1341 -0.0048
 9663TIP3    H150404   3.725   6.706   2.087  0.0100  0.5393  0.4838
 9663TIP3    H250405   3.668   6.644   2.213 -0.4978 -0.9696 -0.4553
 9664TIP3   OH250406   4.311   1.014  16.214  0.2378  0.4657  0.0806
 9664TIP3    H150407   4.403   1.013  16.188  0.2482 -0.3172  0.1075
 9664TIP3    H250408   4.271   1.081  16.159  1.3672  2.9382  2.0768
 9665TIP3   OH250409   2.602   1.125  14.910 -0.5143 -0.0038 -0.3784
 9665TIP3    H150410   2.565   1.175  14.837 -1.2702  1.6037  1.0384
 9665TIP3    H250411   2.538   1.056  14.926 -1.4097  0.9073  0.0782
 9666TIP3   OH250412   1.666   2.130   5.406  0.0927 -0.0516  0.5158
 9666TIP3    H150413   1.660   2.035   5.398 -0.8797 -0.1062  1.7572
 9666TIP3    H250414   1.603   2.154   5.473  0.4079  1.4729  0.3233
 9667TIP3   OH250415   5.706   3.854   0.964  0.4623  0.1534 -0.2847
 9667TIP3    H150416   5.773   3.787   0.980 -1.6962 -2.3435 -1.0459
 9667TIP3    H250417   5.669   3.832   0.879 -1.6477  1.0808  0.3116
 9668TIP3   OH250418   3.689   1.719   0.862  0.3381  0.5492  0.4949
 9668TIP3    H150419   3.777   1.689   0.843 -0.3667  0.6039 -4.0689
 9668TIP3    H250420   3.639   1.640   0.880  0.8315  0.2572  0.5708
 9669TIP3   OH250421   6.586   5.969  14.737  0.5777 -0.0888 -0.1290
 9669TIP3    H150422   6.626   6.038  14.789  0.9534  0.1814 -0.7734
 9669TIP3    H250423   6.563   5.901  14.801  1.4169  0.0567  0.3327
 9670TIP3   OH250424   6.539   3.692   6.574  0.4232 -0.0108  0.1455
 9670TIP3    H150425   6.457   3.727   6.609  0.2301 -0.4952  0.1787
 9670TIP3    H250426   6.577   3.643   6.646 -0.6818 -2.2339 -0.7004
 9671TIP3   OH250427   0.722   0.759  17.389 -0.0009 -0.0591  0.2075
 9671TIP3    H150428   0.778   0.806  17.451 -0.1851 -0.1874  0.4741
 9671TIP3    H250429   0.732   0.667  17.412  0.0110 -0.1162 -0.0227
 9672TIP3   OH250430   5.791   4.998   1.159  0.2725 -0.0154  0.2486
 9672TIP3    H150431   5.795   5.091   1.183  1.5811 -0.1459  0.5773
 9672TIP3    H250432   5.701   4.986   1.127 -0.8898  0.6947  2.9301
 9673TIP3   OH250433   1.503   4.236   5.482  0.6827  0.4297 -0.3038
 9673TIP3    H150434   1.561   4.310   5.464  0.5164  0.1112 -2.3188
 9673TIP3    H250435   1.561   4.166   5.511  1.4809 -0.0803 -2.8703
 9674TIP3   OH250436   3.333   2.231  11.973  0.2306  0.0458 -0.1724
 9674TIP3    H150437   3.361   2.239  12.065  0.8796  1.1854 -0.4464
 9674TIP3    H250438   3.353   2.140  11.950  1.9291  0.2761  0.2539
 9675TIP3   OH250439   4.478   6.342   4.880 -0.1205 -0.6863  0.5502
 9675TIP3    H150440   4.432   6.383   4.953 -0.9580  2.2430 -1.4567
 9675TIP3    H250441   4.557   6.395   4.868 -1.1926  0.5248 -2.0876
 9676TIP3   OH250442   5.889   1.738  15.275  0.1899 -0.0923 -0.6011
 9676TIP3    H150443   5.903   1.741  15.369  0.7055 -1.5520 -0.6018
 9676TIP3    H250444   5.970   1.772  15.237 -0.3675  1.3646 -0.5279
 9677TIP3   OH250445   1.086   2.846   5.789  0.4459 -0.0151  0.0594
 9677TIP3    H150446   1.164   2.891   5.822 -0.3078  0.6942  0.9005
 9677TIP3    H250447   1.035   2.914   5.746 -1.3600  0.3074  2.5177
 9678TIP3   OH250448   1.271   2.398   7.054  0.1368  0.0408 -0.2091
 9678TIP3    H150449   1.229   2.324   7.010  1.5749 -0.9909  0.1100
 9678TIP3    H250450   1.206   2.427   7.118 -0.5046 -0.8464 -0.4308
 9679TIP3   OH250451   1.794   3.876  16.432  0.5277  0.9105 -0.0826
 9679TIP3    H150452   1.767   3.893  16.522 -0.0036  0.5023 -0.1587
 9679TIP3    H250453   1.769   3.784  16.416 -0.1141  1.2066 -0.8939
 9680TIP3   OH250454   2.341   1.884  15.101  0.3820 -0.0872  0.4333
 9680TIP3    H150455   2.299   1.930  15.174 -0.6772  3.0754 -1.9234
 9680TIP3    H250456   2.435   1.893  15.118  0.1700  1.2629  1.1044
 9681TIP3   OH250457   3.460   4.074  16.791 -0.0226  0.1275  0.1369
 9681TIP3    H150458   3.528   4.039  16.734  0.0892 -1.0975  0.9842
 9681TIP3    H250459   3.442   4.004  16.853 -0.7862  1.0891  1.0452
 9682TIP3   OH250460   2.294   6.381   6.063  0.1994  0.3017  0.2665
 9682TIP3    H150461   2.343   6.448   6.111  0.2078 -0.3652  1.2090
 9682TIP3    H250462   2.300   6.303   6.118  1.1519 -0.8121 -1.3433
 9683TIP3   OH250463   1.393   1.507   2.454 -0.4621 -0.1269  0.4714
 9683TIP3    H150464   1.368   1.595   2.480 -1.1281 -0.7897  2.2097
 9683TIP3    H250465   1.367   1.500   2.363 -0.1756  1.5388  0.2338
 9684TIP3   OH250466   5.631   6.649   6.122 -0.1739 -0.1368 -0.8150
 9684TIP3    H150467   5.654   6.560   6.096  0.7164 -0.0854 -0.2743
 9684TIP3    H250468   5.538   6.646   6.143 -1.0230 -0.1808 -3.9573
 9685TIP3   OH250469   5.751   5.053  12.981  0.5774  0.2551  0.0041
 9685TIP3    H150470   5.714   4.997  13.048  0.2603 -0.8398 -1.0465
 9685TIP3    H250471   5.817   5.106  13.026  1.1081 -1.1790  0.9757
 9686TIP3   OH250472   2.530   4.760  14.337  0.6370  0.5061 -0.1559
 9686TIP3    H150473   2.595   4.774  14.268  1.2001  0.8828  0.4317
 9686TIP3    H250474   2.572   4.697  14.396 -0.0156 -0.1504 -0.3682
 9687TIP3   OH250475   2.422   0.071   2.343 -0.4892  0.6300  0.0531
 9687TIP3    H150476   2.391   0.162   2.342 -2.0051  0.1430 -0.9908
 9687TIP3    H250477   2.407   0.039   2.254 -1.3470 -1.0522  0.7558
 9688TIP3   OH250478   5.681   2.185  15.605 -0.4326  0.2069  0.2417
 9688TIP3    H150479   5.612   2.159  15.665 -1.2856 -0.2696 -0.9026
 9688TIP3    H250480   5.738   2.108  15.598 -0.5067  0.1543  0.2142
 9689TIP3   OH250481   3.536   3.646   6.123  0.2365 -0.4971  0.4936
 9689TIP3    H150482   3.454   3.660   6.172  1.3937 -0.0900  2.3931
 9689TIP3    H250483   3.547   3.551   6.120  0.7122 -0.5215  2.0723
 9690TIP3   OH250484   6.040   3.151  16.239  0.0457  0.6058 -0.9224
 9690TIP3    H150485   5.973   3.155  16.170  0.3546  1.5393 -1.1798
 9690TIP3    H250486   6.023   3.068  16.283 -0.6978  0.3915 -1.5793
 9691TIP3   OH250487   0.513   4.775  11.585 -0.4562 -0.5108 -0.1190
 9691TIP3    H150488   0.543   4.839  11.649  0.0341 -1.1701  0.3209
 9691TIP3    H250489   0.521   4.820  11.501 -0.3398  0.0837  0.2078
 9692TIP3   OH250490   0.141   0.602   2.522  0.0563 -0.1510 -0.5502
 9692TIP3    H150491   0.117   0.641   2.606 -2.0594 -0.3116 -0.9996
 9692TIP3    H250492   0.056   0.584   2.479  1.0422  0.8475 -3.1373
 9693TIP3   OH250493   4.331   4.586   6.512  0.3979 -0.4958  0.0697
 9693TIP3    H150494   4.360   4.517   6.454 -0.7930 -2.1975  1.3818
 9693TIP3    H250495   4.285   4.540   6.583  1.3997  1.4753  2.1237
 9694TIP3   OH250496   1.094   6.569  14.608 -0.4236 -0.0586  0.7172
 9694TIP3    H150497   1.022   6.610  14.655 -0.3983  0.1488  0.5778
 9694TIP3    H250498   1.080   6.594  14.516 -0.8139 -0.9610  0.5270
 9695TIP3   OH250499   5.765   4.017  13.812  0.2740  0.3813  0.2377
 9695TIP3    H150500   5.679   4.000  13.774  0.8373  1.7210 -1.7854
 9695TIP3    H250501   5.796   4.095  13.767  3.4194 -1.1924 -0.6123
 9696TIP3   OH250502   5.241   3.786  13.101 -0.0394  0.0041  0.2008
 9696TIP3    H150503   5.334   3.767  13.106  0.1649  1.2705  2.0356
 9696TIP3    H250504   5.235   3.881  13.095 -1.2066 -0.0259  0.5291
 9697TIP3   OH250505   6.580   0.430   5.657  0.3926  0.0491 -0.4120
 9697TIP3    H150506   6.524   0.355   5.675  0.1153  0.6014  1.1875
 9697TIP3    H250507   6.571   0.444   5.562  1.6106 -2.7743 -1.0486
 9698TIP3   OH250508   3.539   2.796  13.186 -0.0985 -0.1574 -0.5903
 9698TIP3    H150509   3.458   2.751  13.209 -0.0263 -0.1463 -0.3153
 9698TIP3    H250510   3.517   2.889  13.190  0.1316 -0.1310  0.2568
 9699TIP3   OH250511   3.567   1.176  15.412 -0.3326 -0.1757  0.2913
 9699TIP3    H150512   3.494   1.211  15.463  0.8890  1.3364  1.0780
 9699TIP3    H250513   3.609   1.253  15.375  0.5081 -1.0689 -0.6658
 9700TIP3   OH250514   5.650   2.290  14.728 -0.2648 -0.2538  0.5198
 9700TIP3    H150515   5.570   2.339  14.707 -0.6722 -1.1029  0.0496
 9700TIP3    H250516   5.663   2.305  14.821 -1.0485 -0.2017  0.6304
 9701TIP3   OH250517   6.200   5.056  15.746  0.9135  0.2317 -0.2045
 9701TIP3    H150518   6.106   5.039  15.751  0.3533  1.7470 -3.1480
 9701TIP3    H250519   6.238   4.976  15.707  1.1660 -0.9713  2.3418
 9702TIP3   OH250520   4.459   3.368   5.570 -0.9376  0.8209  0.2601
 9702TIP3    H150521   4.440   3.277   5.550 -1.1114  0.5588  1.5517
 9702TIP3    H250522   4.386   3.396   5.627  0.7035  0.7939  2.5095
 9703TIP3   OH250523   6.585   1.090  11.827  0.4548  0.2748 -0.0975
 9703TIP3    H150524   6.491   1.081  11.815  0.0941  3.2177 -0.2732
 9703TIP3    H250525   6.619   1.104  11.738  1.2512 -1.6280 -0.1507
 9704TIP3   OH250526   0.877   0.367   2.591  0.4220  0.1316  0.0351
 9704TIP3    H150527   0.821   0.388   2.516 -3.0253  1.0288  2.5955
 9704TIP3    H250528   0.831   0.296   2.636  2.7859 -0.9054  0.9861
 9705TIP3   OH250529   4.960   5.373  17.123  0.2805 -0.1939 -0.0561
 9705TIP3    H150530   4.961   5.333  17.210  0.5072 -1.1207 -0.4693
 9705TIP3    H250531   4.907   5.313  17.070  0.2930  0.2660 -0.5964
 9706TIP3   OH250532   3.253   0.057   2.399  0.4264  0.2213  0.4129
 9706TIP3    H150533   3.321   0.091   2.457  0.0614  0.6190  0.6086
 9706TIP3    H250534   3.171   0.089   2.436  0.1024 -0.5211  0.3662
 9707TIP3   OH250535   2.883   2.383   1.386 -0.2198 -0.2643 -0.7899
 9707TIP3    H150536   2.947   2.414   1.322 -0.0461  0.1073 -0.4431
 9707TIP3    H250537   2.889   2.287   1.382  1.0195 -0.2305 -0.1197
 9708TIP3   OH250538   1.138   4.738   6.441 -0.3404  0.1352  0.1570
 9708TIP3    H150539   1.166   4.775   6.525 -1.1915 -1.9641  1.4588
 9708TIP3    H250540   1.043   4.750   6.440 -0.3106  0.3758 -0.6515
 9709TIP3   OH250541   1.481   2.373   3.197  0.0809 -0.4167  0.0003
 9709TIP3    H150542   1.424   2.376   3.120 -2.2116 -0.0423  1.6290
 9709TIP3    H250543   1.524   2.459   3.199 -0.9424  0.1060 -0.0752
 9710TIP3   OH250544   3.276   0.712  13.905  0.0710  0.2550  0.1935
 9710TIP3    H150545   3.355   0.764  13.920  0.5798 -0.7779  1.2826
 9710TIP3    H250546   3.301   0.648  13.839 -0.1715  0.5582 -0.1996
 9711TIP3   OH250547   3.787   1.674  11.231  0.2761 -0.1787 -0.0946
 9711TIP3    H150548   3.809   1.732  11.304  2.2685 -0.9862 -0.0088
 9711TIP3    H250549   3.788   1.732  11.154  1.2044  0.1106  0.1268
 9712TIP3   OH250550   1.453   3.272   5.345  0.4118  0.2613  0.1919
 9712TIP3    H150551   1.527   3.330   5.329  0.3881  0.5078  0.9222
 9712TIP3    H250552   1.412   3.306   5.425  0.1124 -0.4672  0.3638
 9713TIP3   OH250553   2.403   5.490  13.231  0.3432  0.4055  0.1045
 9713TIP3    H150554   2.375   5.567  13.181  0.7938  1.2115  1.0611
 9713TIP3    H250555   2.324   5.463  13.278 -0.2351 -0.7106 -1.4562
 9714TIP3   OH250556   5.605   1.375  15.234  0.0489 -0.2749  0.1830
 9714TIP3    H150557   5.511   1.361  15.244  0.1073  0.3015  1.9548
 9714TIP3    H250558   5.616   1.470  15.238  0.8835 -0.3985  2.4312
 9715TIP3   OH250559   4.598   6.579  10.942  0.8837  0.6792 -0.0974
 9715TIP3    H150560   4.583   6.601  11.034 -0.4992 -0.9016  0.1044
 9715TIP3    H250561   4.571   6.487  10.935  0.1070  1.0254 -2.2780
 9716TIP3   OH250562   3.115   6.492  15.982  0.7714 -0.3955 -0.3631
 9716TIP3    H150563   3.053   6.438  15.935  0.9584  1.2925 -2.7273
 9716TIP3    H250564   3.201   6.455  15.962  0.8779  0.5308 -1.7415
 9717TIP3   OH250565   0.506   4.737   6.109 -0.2222  0.2674  0.5578
 9717TIP3    H150566   0.524   4.830   6.095  2.2326 -0.3818 -1.0513
 9717TIP3    H250567   0.574   4.708   6.170  0.5734 -0.9373 -0.8287
 9718TIP3   OH250568   3.863   5.197  12.868  0.3489 -0.3112  0.2382
 9718TIP3    H150569   3.880   5.253  12.793  0.0402 -1.1335 -0.4604
 9718TIP3    H250570   3.939   5.208  12.924  1.0619 -0.4532 -0.6791
 9719TIP3   OH250571   5.920   3.722  15.086  0.0869  0.0439  0.1421
 9719TIP3    H150572   6.000   3.715  15.138  0.0819 -1.3557 -0.0035
 9719TIP3    H250573   5.851   3.737  15.150  0.5360  2.3284  0.2007
 9720TIP3   OH250574   6.358   1.153  17.200 -0.2745  0.3946 -0.1049
 9720TIP3    H150575   6.354   1.080  17.138  2.5542 -0.3106  0.4008
 9720TIP3    H250576   6.405   1.221  17.154  0.0641  0.6230  0.5613
 9721TIP3   OH250577   4.019   4.728  17.324 -0.4601 -0.5700 -0.0292
 9721TIP3    H150578   3.958   4.780  17.377  1.4030  0.3400  1.3409
 9721TIP3    H250579   4.027   4.646  17.371  2.8348  0.9890  2.5829
 9722TIP3   OH250580   1.933   0.141  15.944  0.4721  0.2376  0.2870
 9722TIP3    H150581   1.910   0.113  16.033  2.5227 -0.9870  0.5072
 9722TIP3    H250582   1.964   0.231  15.955 -1.7970  1.0866  0.3212
 9723TIP3   OH250583   3.525   1.194  17.061 -0.1591  0.6051 -0.8878
 9723TIP3    H150584   3.482   1.280  17.062 -1.2676  0.0957 -2.0948
 9723TIP3    H250585   3.452   1.132  17.060  0.6315 -0.3605 -0.1248
 9724TIP3   OH250586   2.251   1.032  13.097 -0.2417  0.2063  0.3952
 9724TIP3    H150587   2.173   1.067  13.141 -1.5436 -2.8834  0.8462
 9724TIP3    H250588   2.282   0.963  13.156  2.2938  0.6720 -0.2788
 9725TIP3   OH250589   5.595   4.517  13.559  0.6793 -0.5196 -0.6390
 9725TIP3    H150590   5.579   4.426  13.584 -0.6108 -0.1280  0.0672
 9725TIP3    H250591   5.531   4.567  13.609  2.2655  0.9246  0.0341
 9726TIP3   OH250592   5.516   3.550  12.685  0.1926 -0.3964 -0.5857
 9726TIP3    H150593   5.457   3.531  12.612 -0.3134  0.3911 -0.4040
 9726TIP3    H250594   5.578   3.613  12.649 -0.4629  0.5097 -0.1797
 9727TIP3   OH250595   3.424   4.948   0.442 -0.3470  0.6559  0.5404
 9727TIP3    H150596   3.355   5.007   0.476 -0.3017  1.4055 -0.6168
 9727TIP3    H250597   3.405   4.864   0.483 -0.9592  1.2557  1.5458
 9728TIP3   OH250598   1.121   2.121  11.991  0.3782  0.0473 -0.5034
 9728TIP3    H150599   1.120   2.028  11.972  0.3243  0.2791 -1.7226
 9728TIP3    H250600   1.158   2.161  11.912  1.5549  0.9567  0.4615
 9729TIP3   OH250601   2.715   2.145  13.366  0.2492 -0.2860  0.1857
 9729TIP3    H150602   2.809   2.142  13.353  0.3286  0.5499  0.4968
 9729TIP3    H250603   2.691   2.236  13.346 -0.7280 -0.8494 -1.4216
 9730TIP3   OH250604   4.349   4.451   5.154  0.0928 -0.0308 -0.0394
 9730TIP3    H150605   4.317   4.364   5.175  1.1570 -0.5831 -0.5937
 9730TIP3    H250606   4.271   4.505   5.144 -0.6728 -1.3723 -1.6142
 9731TIP3   OH250607   5.796   1.169   5.875  0.0470 -0.2927  0.1973
 9731TIP3    H150608   5.832   1.223   5.804 -0.4828  0.6943  0.6590
 9731TIP3    H250609   5.767   1.232   5.940  0.4256 -1.1888  1.2566
 9732TIP3   OH250610   0.437   0.183   3.124  0.4840 -0.3023  0.1244
 9732TIP3    H150611   0.480   0.133   3.055  0.3882  0.3213 -0.3849
 9732TIP3    H250612   0.396   0.116   3.179  1.0401 -0.8323 -0.0907
 9733TIP3   OH250613   6.601   0.915   1.280 -0.6233  0.1702  0.1023
 9733TIP3    H150614   6.647   0.855   1.222 -0.3390 -0.5064  1.0120
 9733TIP3    H250615   6.526   0.865   1.312 -1.2924  0.8418 -0.3587
 9734TIP3   OH250616   3.634   4.692   4.922 -0.0581 -0.0668  0.0180
 9734TIP3    H150617   3.548   4.676   4.884  0.2188 -0.6778 -0.3799
 9734TIP3    H250618   3.628   4.658   5.011 -0.3962  0.3971  0.1686
 9735TIP3   OH250619   4.369   5.196  14.168  0.3375 -0.4831 -0.0565
 9735TIP3    H150620   4.448   5.199  14.222  0.0075  0.7317  0.3920
 9735TIP3    H250621   4.400   5.181  14.079  1.0227 -0.6886  0.2161
 9736TIP3   OH250622   2.995   0.936   0.488  0.1673 -0.1039 -0.3527
 9736TIP3    H150623   2.904   0.925   0.518  0.2197 -1.1097 -0.5293
 9736TIP3    H250624   3.036   0.851   0.505  1.0727  0.3334 -0.3023
 9737TIP3   OH250625   0.449   2.838  13.769  0.1557  0.3169  0.1022
 9737TIP3    H150626   0.473   2.771  13.705  0.8661  0.9055 -0.2715
 9737TIP3    H250627   0.507   2.912  13.748 -0.3745  0.9158  0.7225
 9738TIP3   OH250628   5.737   5.467  11.167  0.1128 -0.1301  0.2264
 9738TIP3    H150629   5.758   5.503  11.081  1.2740 -0.3301  0.4019
 9738TIP3    H250630   5.770   5.532  11.228  2.2417 -1.4101  0.5507
 9739TIP3   OH250631   3.959   6.299  13.441  0.6604  0.2449  0.1083
 9739TIP3    H150632   3.886   6.326  13.385 -0.5612  0.7794  1.8556
 9739TIP3    H250633   4.034   6.295  13.383 -0.6292  0.3054 -1.6425
 9740TIP3   OH250634   0.421   4.378  14.722  0.4415  0.3629  0.2231
 9740TIP3    H150635   0.508   4.378  14.761  1.1349  1.1820 -1.2265
 9740TIP3    H250636   0.405   4.469  14.699 -0.2126  0.0149 -0.7716
 9741TIP3   OH250637   0.225   0.934   3.753  0.3023 -0.3139  0.3637
 9741TIP3    H150638   0.313   0.912   3.783  0.5560  0.7105  0.4098
 9741TIP3    H250639   0.168   0.906   3.825  0.6764 -0.1574  0.7256
 9742TIP3   OH250640   6.155   5.444  12.724  0.2235  0.4050 -0.3607
 9742TIP3    H150641   6.099   5.404  12.790  0.5783 -0.7788 -0.7530
 9742TIP3    H250642   6.123   5.408  12.641  1.9021 -0.7540 -0.5541
 9743TIP3   OH250643   1.435   5.791   3.827 -0.3483  0.1610 -0.8011
 9743TIP3    H150644   1.497   5.848   3.874 -1.3511  0.7673 -0.1898
 9743TIP3    H250645   1.357   5.845   3.814 -1.4690 -1.1650  0.1213
 9744TIP3   OH250646   5.752   0.116   0.503  0.1765  0.2491  0.2808
 9744TIP3    H150647   5.694   0.185   0.535 -0.0578 -0.0831  0.5826
 9744TIP3    H250648   5.833   0.161   0.481  0.1025  0.5844  0.6926
 9745TIP3   OH250649   0.781   3.986  17.085  0.5992  0.0596  0.0984
 9745TIP3    H150650   0.710   3.959  17.026  0.3979 -2.6709  1.4227
 9745TIP3    H250651   0.860   3.979  17.031  0.4386 -2.5420  0.0423
 9746TIP3   OH250652   4.357   2.929   6.168 -0.2112 -0.3387 -0.0744
 9746TIP3    H150653   4.264   2.937   6.189  0.2338  1.7919  1.3968
 9746TIP3    H250654   4.401   2.930   6.253  1.2057 -0.8274 -0.7690
 9747TIP3   OH250655   6.610   0.155   3.524  0.0370 -0.4825 -0.1199
 9747TIP3    H150656   6.616   0.059   3.515 -5.4380 -1.6014  3.1998
 9747TIP3    H250657   6.566   0.183   3.444  1.6071 -0.6340 -1.0812
 9748TIP3   OH250658   0.242   6.680   5.495 -0.2697 -0.0474  0.2715
 9748TIP3    H150659   0.284   6.736   5.561 -1.1543  0.1374  0.6957
 9748TIP3    H250660   0.313   6.655   5.437  0.1532  1.5457  0.0437
 9749TIP3   OH250661   4.023   3.409   3.849 -0.0521  0.6536 -0.3314
 9749TIP3    H150662   3.930   3.423   3.868  0.5415  2.5129  1.6022
 9749TIP3    H250663   4.061   3.497   3.849  2.1470 -0.2074  1.6699
 9750TIP3   OH250664   4.862   5.240  15.553 -0.0560 -0.0403  0.0443
 9750TIP3    H150665   4.802   5.169  15.576  0.3413 -0.4664 -0.1911
 9750TIP3    H250666   4.878   5.228  15.459  1.1125 -0.5074  0.2869
 9751TIP3   OH250667   4.066   1.165   5.512  0.1556  0.3044 -0.1986
 9751TIP3    H150668   4.100   1.254   5.524 -0.1244  0.4618 -0.5613
 9751TIP3    H250669   4.075   1.148   5.418  2.6659 -1.0500  0.2021
 9752TIP3   OH250670   2.057   1.158   1.838  0.5133  0.1318  0.0352
 9752TIP3    H150671   2.119   1.214   1.792 -0.2056  0.0425 -1.0833
 9752TIP3    H250672   2.112   1.095   1.885  1.3263  1.5315  1.0578
 9753TIP3   OH250673   1.211   6.718  16.755 -0.1239  0.6600  0.2368
 9753TIP3    H150674   1.294   6.765  16.757  0.3707 -0.2176  1.0294
 9753TIP3    H250675   1.230   6.638  16.706 -0.3448  0.1994  0.8874
 9754TIP3   OH250676   3.356   5.852  15.410  0.9132 -0.0315  0.5350
 9754TIP3    H150677   3.290   5.786  15.432 -0.4307  0.2755 -2.1184
 9754TIP3    H250678   3.316   5.935  15.435  1.1354  0.0190  0.7235
 9755TIP3   OH250679   3.594   5.705  11.411  0.4809 -0.1430  0.1410
 9755TIP3    H150680   3.501   5.685  11.404  0.4529 -0.4290  1.1845
 9755TIP3    H250681   3.615   5.750  11.329 -0.3937 -0.7598 -0.4421
 9756TIP3   OH250682   4.020   0.211  13.050 -0.1692 -0.5602 -0.2212
 9756TIP3    H150683   3.962   0.142  13.084  1.0125 -0.3584  2.4891
 9756TIP3    H250684   4.098   0.165  13.020  0.6393 -0.5181  1.6313
 9757TIP3   OH250685   6.712   4.883   5.660 -0.1939  0.2603 -0.4528
 9757TIP3    H150686   6.771   4.950   5.627 -1.1680  1.3082 -0.1434
 9757TIP3    H250687   6.630   4.898   5.613 -0.6829 -0.1606  0.2492
 9758TIP3   OH250688   2.003   6.385   0.906  0.2121 -0.1484 -0.5166
 9758TIP3    H150689   1.918   6.403   0.947 -1.0479 -0.9223 -2.6398
 9758TIP3    H250690   2.058   6.458   0.933 -1.5573  1.1517 -0.2520
 9759TIP3   OH250691   5.022   3.831   2.078 -0.5361 -0.0799 -0.4469
 9759TIP3    H150692   4.967   3.795   2.007 -0.7843 -2.7469  0.9636
 9759TIP3    H250693   5.070   3.756   2.111  0.0252  1.2018  1.8353
 9760TIP3   OH250694   2.194   6.066   1.326  0.3501 -0.7405 -0.5382
 9760TIP3    H150695   2.119   6.011   1.304  0.0886 -0.9532  0.7820
 9760TIP3    H250696   2.204   6.125   1.252 -1.8580  0.0608 -0.2496
 9761TIP3   OH250697   5.282   4.231   0.230  0.3395 -0.4171  0.5076
 9761TIP3    H150698   5.355   4.279   0.191 -0.8715 -0.2307 -1.6969
 9761TIP3    H250699   5.214   4.231   0.162 -1.0639 -2.1072  1.8085
 9762TIP3   OH250700   2.683   1.340   1.326 -0.2316  0.1199  0.4435
 9762TIP3    H150701   2.663   1.273   1.391  0.0047 -0.6676 -0.2731
 9762TIP3    H250702   2.677   1.423   1.373 -0.0958 -0.4337  1.4474
 9763TIP3   OH250703   2.165   5.063   5.504 -0.0151 -0.3175 -0.1588
 9763TIP3    H150704   2.210   5.147   5.498  0.3708 -0.4268  1.0524
 9763TIP3    H250705   2.231   5.002   5.536 -1.1193 -0.3797  2.1553
 9764TIP3   OH250706   1.922   5.471  15.656  0.3153  0.0220  0.1061
 9764TIP3    H150707   1.918   5.533  15.728  0.9734  1.3545 -0.9605
 9764TIP3    H250708   1.978   5.400  15.688 -1.0811 -0.4646  1.6188
 9765TIP3   OH250709   5.507   3.500   1.039  0.3077 -0.2698 -0.2432
 9765TIP3    H150710   5.592   3.514   1.080 -0.2374 -1.6411  1.4921
 9765TIP3    H250711   5.523   3.510   0.946  1.9403  1.4349  0.1566
 9766TIP3   OH250712   0.957   5.532  12.801  0.2382 -0.1406  0.4333
 9766TIP3    H150713   0.864   5.553  12.813  0.2396  2.6414 -2.8831
 9766TIP3    H250714   0.958   5.437  12.785 -1.2708 -1.1914  5.1106
 9767TIP3   OH250715   4.708   4.421  16.588 -0.0470  0.2739 -0.5368
 9767TIP3    H150716   4.756   4.385  16.662  1.2566 -0.5288 -1.7289
 9767TIP3    H250717   4.702   4.515  16.607  0.7717  0.1660  0.3094
 9768TIP3   OH250718   3.045   6.541   0.606 -0.6078 -0.1947  0.1743
 9768TIP3    H150719   3.011   6.627   0.633 -0.5781 -0.1134 -0.0399
 9768TIP3    H250720   2.986   6.478   0.647  0.4856 -0.1464  1.9096
 9769TIP3   OH250721   5.906   2.138  15.271 -0.4814 -0.2222  0.3138
 9769TIP3    H150722   5.994   2.099  15.272 -0.5300 -0.4079 -0.8250
 9769TIP3    H250723   5.897   2.178  15.357  0.9828  0.3719  0.2248
 9770TIP3   OH250724   3.325   5.145   4.704  0.0501 -0.4461 -0.9773
 9770TIP3    H150725   3.329   5.104   4.617 -0.0726 -2.1446 -0.2227
 9770TIP3    H250726   3.302   5.074   4.763 -2.3211  1.1457  0.1540
 9771TIP3   OH250727   5.246   2.691   6.062 -0.3287  0.2401 -0.2177
 9771TIP3    H150728   5.316   2.683   5.997  0.0675  0.7660  0.1417
 9771TIP3    H250729   5.267   2.624   6.127 -0.9466 -0.5630 -0.8171
 9772TIP3   OH250730   0.433   3.815  13.552  0.1679  0.6312 -0.2475
 9772TIP3    H150731   0.338   3.802  13.550  0.2518 -0.0427 -0.0126
 9772TIP3    H250732   0.470   3.727  13.560  0.8273  0.8547 -0.6662
 9773TIP3   OH250733   2.081   1.963   2.267 -0.3537 -0.0793 -0.0372
 9773TIP3    H150734   2.058   2.044   2.223  1.9157 -1.2405 -3.7434
 9773TIP3    H250735   2.017   1.899   2.236 -0.0529 -0.4521  0.0935
 9774TIP3   OH250736   6.134   3.695  13.600 -0.1411 -0.2267  0.2705
 9774TIP3    H150737   6.118   3.767  13.660  0.5326 -2.6014  3.5816
 9774TIP3    H250738   6.049   3.675  13.563 -0.3157  2.2581 -0.8626
 9775TIP3   OH250739   3.451   6.274  14.059  0.2029 -0.2427 -0.4150
 9775TIP3    H150740   3.514   6.306  14.124  1.0615 -0.9952 -0.8499
 9775TIP3    H250741   3.365   6.290  14.098  0.7154 -1.3722  1.2483
 9776TIP3   OH250742   6.333   1.877  17.150 -0.3736 -0.5503  0.3210
 9776TIP3    H150743   6.424   1.905  17.157 -0.0015 -1.4639 -0.5821
 9776TIP3    H250744   6.283   1.950  17.187  0.7648 -0.4850  1.8352
 9777TIP3   OH250745   3.643   1.102   4.312 -0.5102 -0.2112  0.1894
 9777TIP3    H150746   3.596   1.071   4.235  0.4534  0.3490 -0.6430
 9777TIP3    H250747   3.691   1.026   4.344  0.0831 -0.1535 -0.5266
 9778TIP3   OH250748   6.444   4.070  11.332 -0.1684 -0.3040 -0.1510
 9778TIP3    H150749   6.412   4.099  11.247  1.0111  1.7802  0.0585
 9778TIP3    H250750   6.400   4.127  11.395  0.4778 -0.4693  0.4655
 9779TIP3   OH250751   1.737   2.531  14.396  0.0257 -0.1542  0.1280
 9779TIP3    H150752   1.712   2.549  14.487 -0.5160 -0.8249  0.1207
 9779TIP3    H250753   1.749   2.617  14.357  1.9887  0.1594  1.2906
 9780TIP3   OH250754   5.198   1.559  14.833 -0.2847 -0.7577 -0.1889
 9780TIP3    H150755   5.109   1.578  14.802 -0.6439 -2.2181 -0.1357
 9780TIP3    H250756   5.254   1.614  14.778 -1.2403  0.7676  0.2955
 9781TIP3   OH250757   6.497   2.206   0.759  0.2661 -0.7197  0.3566
 9781TIP3    H150758   6.523   2.281   0.705 -0.3702 -0.4030  0.4732
 9781TIP3    H250759   6.519   2.233   0.849 -0.3285 -0.5068  0.4402
 9782TIP3   OH250760   2.301   1.960   6.659 -0.2232  0.0987 -0.1971
 9782TIP3    H150761   2.371   1.921   6.607  0.8622  0.4723  0.9302
 9782TIP3    H250762   2.233   1.981   6.595  0.9504  0.3058 -1.4359
 9783TIP3   OH250763   5.262   1.615   3.865 -0.4655  0.0206 -0.1580
 9783TIP3    H150764   5.260   1.626   3.960  1.7089  0.7352 -0.1515
 9783TIP3    H250765   5.218   1.531   3.849  1.0165 -1.1852  1.6848
 9784TIP3   OH250766   3.039   6.021  13.929  0.1578  0.8139 -0.6063
 9784TIP3    H150767   2.972   6.031  13.860 -0.1336 -0.2029 -0.4934
 9784TIP3    H250768   2.989   6.012  14.010  0.5109  2.4237 -0.1779
 9785TIP3   OH250769   0.389   2.414  15.389  0.5283 -0.1225  0.2593
 9785TIP3    H150770   0.374   2.473  15.463 -0.8180 -0.2663  0.1283
 9785TIP3    H250771   0.453   2.350  15.421  1.3830  0.9149  0.6676
 9786TIP3   OH250772   4.384   0.990   5.944 -0.8807  0.4854  0.0103
 9786TIP3    H150773   4.380   0.928   6.017 -0.3911  2.5289  1.8826
 9786TIP3    H250774   4.293   1.012   5.926 -0.9688  0.6375  0.6240
 9787TIP3   OH250775   2.456   5.410   5.105  0.1859 -0.0546  0.4736
 9787TIP3    H150776   2.522   5.357   5.150  0.8615 -0.4918 -0.9631
 9787TIP3    H250777   2.470   5.391   5.012 -1.8593 -0.0210  0.1181
 9788TIP3   OH250778   2.564   0.660   3.538 -0.3680 -0.4405  0.5195
 9788TIP3    H150779   2.526   0.584   3.582  0.1653 -0.9658  0.1052
 9788TIP3    H250780   2.564   0.637   3.446 -0.2471  0.0899  0.3819
 9789TIP3   OH250781   2.490   2.620   2.720 -0.5751  0.2906  0.3990
 9789TIP3    H150782   2.415   2.646   2.772 -0.4090  0.5173  0.5274
 9789TIP3    H250783   2.458   2.549   2.665 -0.4837 -0.6460  1.5301
 9790TIP3   OH250784   2.217   6.105   3.794 -0.8705  0.0891  0.1411
 9790TIP3    H150785   2.142   6.158   3.821  0.2968  1.3085  1.1398
 9790TIP3    H250786   2.277   6.109   3.869  0.0401 -1.1642 -0.4873
 9791TIP3   OH250787   1.840   2.524  11.752  0.2911 -0.1849  0.2141
 9791TIP3    H150788   1.837   2.431  11.771  2.0405 -0.8376 -2.1470
 9791TIP3    H250789   1.765   2.539  11.694  0.6129 -0.3914 -0.2659
 9792TIP3   OH250790   6.067   5.752   5.944 -0.1588 -0.2870 -0.2740
 9792TIP3    H150791   6.095   5.747   5.853  1.0390 -1.5009  0.1291
 9792TIP3    H250792   6.146   5.773   5.993 -0.8207  0.5136  0.4810
 9793TIP3   OH250793   6.301   5.745  12.427  0.0439 -1.3518  0.0089
 9793TIP3    H150794   6.376   5.770  12.373  0.0700 -2.8010 -0.6693
 9793TIP3    H250795   6.229   5.735  12.365 -0.5065 -0.7979  0.5512
 9794TIP3   OH250796   3.210   6.295   5.540 -0.0432  0.3647  0.5033
 9794TIP3    H150797   3.225   6.358   5.470  2.4139  1.0622  1.5358
 9794TIP3    H250798   3.210   6.210   5.496  0.2647  0.8650 -0.4878
 9795TIP3   OH250799   4.621   0.075   6.055  0.2633 -0.2988  0.3047
 9795TIP3    H150800   4.589   0.162   6.030  0.8166  0.0596  0.8310
 9795TIP3    H250801   4.712   0.089   6.081  0.3154 -1.0151  0.5310
 9796TIP3   OH250802   2.397   1.116  12.100 -0.1046 -0.7981 -0.1985
 9796TIP3    H150803   2.324   1.170  12.130 -0.9351 -1.8605 -0.2456
 9796TIP3    H250804   2.371   1.026  12.122  2.3199 -1.0725  2.2133
 9797TIP3   OH250805   0.103   5.146  12.344 -0.4137  0.6531 -0.1496
 9797TIP3    H150806   0.073   5.135  12.254  3.1045 -0.0203 -1.4113
 9797TIP3    H250807   0.081   5.236  12.366 -0.4031  1.1800 -2.1270
 9798TIP3   OH250808   1.797   5.845  11.839  0.0792 -0.6127  0.2873
 9798TIP3    H150809   1.710   5.817  11.809  1.1250 -0.8561 -2.9552
 9798TIP3    H250810   1.840   5.764  11.866 -1.2387 -0.2702  3.9299
 9799TIP3   OH250811   5.067   2.764   5.474 -0.0564 -0.1769 -0.4032
 9799TIP3    H150812   4.976   2.779   5.449 -0.3395 -1.0256  0.0864
 9799TIP3    H250813   5.079   2.815   5.554 -0.0202  0.1407 -0.6078
 9800TIP3   OH250814   0.099   6.027   2.280  0.0067  0.3569  0.5280
 9800TIP3    H150815   0.066   6.045   2.368 -2.5440  3.2087 -0.8180
 9800TIP3    H250816   0.101   6.113   2.237  1.6886 -0.8526 -2.0395
 9801TIP3   OH250817   0.957   0.590  16.661 -0.4541 -0.5535  0.1964
 9801TIP3    H150818   0.902   0.512  16.661 -0.0995 -0.8065  0.3769
 9801TIP3    H250819   0.963   0.615  16.568 -0.1360 -1.0577  0.0694
 9802TIP3   OH250820   5.649   2.465   3.396  0.0276 -0.1947 -0.7457
 9802TIP3    H150821   5.663   2.457   3.302  0.2289  0.4708 -0.7760
 9802TIP3    H250822   5.737   2.469   3.434  0.0145 -2.4255 -0.3249
 9803TIP3   OH250823   4.976   4.817  13.946 -0.2521 -0.0543 -0.0068
 9803TIP3    H150824   5.014   4.900  13.915 -0.2546  0.2695  0.8393
 9803TIP3    H250825   4.882   4.827  13.930 -0.2638  0.1488  0.1786
 9804TIP3   OH250826   2.158   4.137  12.268 -0.6487  0.1746  0.1482
 9804TIP3    H150827   2.143   4.222  12.225 -0.8945  0.4514  0.7603
 9804TIP3    H250828   2.231   4.098  12.220 -1.5476  0.0345 -1.1489
 9805TIP3   OH250829   4.920   2.129  12.604  0.1650  0.4734 -0.8053
 9805TIP3    H150830   4.918   2.081  12.521 -1.7779 -1.9847  0.5452
 9805TIP3    H250831   4.881   2.214  12.583 -0.5002 -0.1830 -2.3579
 9806TIP3   OH250832   0.920   3.466  16.750  0.6488 -0.2117 -0.1303
 9806TIP3    H150833   0.907   3.556  16.781  0.1001  0.4564 -2.1692
 9806TIP3    H250834   1.000   3.470  16.697  1.9821 -1.4879  1.6610
 9807TIP3   OH250835   4.170   5.003  16.349 -0.6225  0.1850 -0.1422
 9807TIP3    H150836   4.248   5.012  16.404 -1.0490  0.1114  0.4838
 9807TIP3    H250837   4.114   4.942  16.396 -0.0508 -1.6863 -1.7509
 9808TIP3   OH250838   3.302   0.747   6.658 -0.1418  0.2757 -0.2151
 9808TIP3    H150839   3.259   0.816   6.710  1.3133  1.1399 -0.1046
 9808TIP3    H250840   3.264   0.666   6.690  0.3632  0.8128  1.8926
 9809TIP3   OH250841   4.457   6.144   3.856  0.1176 -0.0855 -0.3101
 9809TIP3    H150842   4.493   6.194   3.929 -0.3921  0.1222 -0.1916
 9809TIP3    H250843   4.373   6.110   3.890 -0.1198  0.0088 -0.7944
 9810TIP3   OH250844   0.138   0.594   4.811  0.4092  0.0504 -0.2923
 9810TIP3    H150845   0.158   0.649   4.887  0.0721 -1.2707  0.7975
 9810TIP3    H250846   0.221   0.552   4.789  0.5551  0.5922 -0.8124
 9811TIP3   OH250847   2.251   3.130  16.428  0.1387 -0.5751 -0.1989
 9811TIP3    H150848   2.178   3.190  16.414 -0.4917 -1.0600  0.8784
 9811TIP3    H250849   2.287   3.114  16.341  0.3025  1.3168 -0.5285
 9812TIP3   OH250850   2.493   4.143  11.665  0.0873 -0.3050 -0.3889
 9812TIP3    H150851   2.514   4.054  11.696 -1.0893 -0.9418 -1.3334
 9812TIP3    H250852   2.549   4.200  11.718  0.3945 -1.5546  0.7029
 9813TIP3   OH250853   0.231   5.655  16.953  0.1145  0.3667  0.1342
 9813TIP3    H150854   0.166   5.594  16.916  0.8927  1.1445 -2.7607
 9813TIP3    H250855   0.270   5.607  17.026 -3.1883 -0.3723  1.6141
 9814TIP3   OH250856   4.437   4.398   6.318  0.1365 -0.1369 -0.1034
 9814TIP3    H150857   4.481   4.366   6.397  1.2638 -1.1082 -1.0834
 9814TIP3    H250858   4.488   4.474   6.291 -0.5348  0.4861  0.3548
 9815TIP3   OH250859   6.220   4.853   2.289 -0.5398 -0.1238 -0.2684
 9815TIP3    H150860   6.128   4.851   2.317 -0.6955  1.3245 -0.5710
 9815TIP3    H250861   6.269   4.859   2.371 -0.8393  1.0090 -0.1421
 9816TIP3   OH250862   1.908   6.424  13.849 -0.1773 -0.5783  0.0429
 9816TIP3    H150863   1.846   6.448  13.780 -1.3817 -0.3759  1.1652
 9816TIP3    H250864   1.979   6.488  13.840 -0.9056  0.2073 -0.2597
 9817TIP3   OH250865   5.374   3.516  11.077  0.0896 -0.1629 -0.7174
 9817TIP3    H150866   5.357   3.530  11.170  0.0013 -0.5549 -0.6709
 9817TIP3    H250867   5.468   3.498  11.071  0.1559  0.1795 -0.7477
 9818TIP3   OH250868   1.171   4.427  14.309  0.0527 -0.2299 -0.5898
 9818TIP3    H150869   1.121   4.409  14.230  0.3919 -1.3053 -0.5713
 9818TIP3    H250870   1.246   4.368  14.304  0.9302  0.8428 -0.2518
 9819TIP3   OH250871   4.576   0.778   3.134  0.1062  0.2176 -0.3231
 9819TIP3    H150872   4.538   0.770   3.046 -1.1918  1.0886  0.1374
 9819TIP3    H250873   4.528   0.715   3.187  0.0187  0.5741  0.0288
 9820TIP3   OH250874   4.574   5.576  11.871  0.0178 -0.4134 -0.5559
 9820TIP3    H150875   4.651   5.627  11.895  1.5024 -1.0761 -3.4640
 9820TIP3    H250876   4.586   5.492  11.913  1.6011 -0.9383 -1.9581
 9821TIP3   OH250877   0.251   5.210  12.795  0.4061  0.0147 -0.2276
 9821TIP3    H150878   0.261   5.125  12.839 -0.1362  0.9568  1.8240
 9821TIP3    H250879   0.165   5.241  12.821 -0.4636  0.1593 -2.9598
 9822TIP3   OH250880   6.280   3.880  14.979  0.4833  0.5047 -0.2941
 9822TIP3    H150881   6.287   3.805  15.038 -0.6379  0.8078  0.2457
 9822TIP3    H250882   6.370   3.907  14.964  0.8766 -0.6092 -0.0651
 9823TIP3   OH250883   3.304   0.222  13.619 -0.0500 -0.4655  0.3758
 9823TIP3    H150884   3.261   0.145  13.582  0.0396 -0.2186 -0.2571
 9823TIP3    H250885   3.390   0.192  13.646 -0.1122 -0.6482  0.3712
 9824TIP3   OH250886   1.152   0.947   5.612  0.2778 -0.2685  0.2629
 9824TIP3    H150887   1.159   0.910   5.523 -0.0161  1.2387 -0.4168
 9824TIP3    H250888   1.240   0.936   5.648  0.5418 -0.4484 -0.4050
 9825TIP3   OH250889   4.974   5.334  11.239 -0.0768  0.5707 -0.9818
 9825TIP3    H150890   5.010   5.416  11.271  1.6131 -0.8981  1.1491
 9825TIP3    H250891   4.893   5.322  11.288  0.0504  0.5947 -0.7684
 9826TIP3   OH250892   4.163   4.785   2.443  0.0143 -0.3560  0.4461
 9826TIP3    H150893   4.248   4.778   2.488  0.9126  3.0194 -0.4604
 9826TIP3    H250894   4.098   4.772   2.512  1.3176  0.8297  1.9767
 9827TIP3   OH250895   1.740   3.083  17.408  0.1830  0.3652 -0.0108
 9827TIP3    H150896   1.729   3.167  17.453 -0.1045 -0.2537  1.1354
 9827TIP3    H250897   1.653   3.063  17.373  0.3330  0.6977 -0.5888
 9828TIP3   OH250898   0.871   0.043   2.584 -0.0021 -0.7263 -0.9549
 9828TIP3    H150899   0.899  -0.033   2.534  1.3795 -1.2587  0.5436
 9828TIP3    H250900   0.854   0.009   2.672  1.6559  0.8191  0.0246
 9829TIP3   OH250901   6.144   2.723   1.872  0.2485  0.2562 -0.7965
 9829TIP3    H150902   6.199   2.755   1.800  2.2674 -0.7539  0.2206
 9829TIP3    H250903   6.126   2.631   1.849 -0.2609  0.3161 -0.6585
 9830TIP3   OH250904   1.928   2.705   3.923 -0.1927 -0.1041  0.5075
 9830TIP3    H150905   1.979   2.727   4.001  0.8466  0.5076 -0.3234
 9830TIP3    H250906   1.901   2.614   3.937  1.2737 -0.5064  0.8938
 9831TIP3   OH250907   1.354   4.367   4.355  0.2074  0.4818 -0.0040
 9831TIP3    H150908   1.384   4.445   4.402  0.6922  1.0063 -1.1468
 9831TIP3    H250909   1.259   4.367   4.366  0.3403  0.3136  1.3715
 9832TIP3   OH250910   6.548   3.138  16.738 -0.2111 -0.3319  0.4176
 9832TIP3    H150911   6.510   3.157  16.652  0.9049  1.5010  0.2826
 9832TIP3    H250912   6.564   3.224  16.776  1.2935 -1.0941  1.5832
 9833TIP3   OH250913   3.239   4.668  14.139 -0.4037  0.4613  0.3724
 9833TIP3    H150914   3.305   4.738  14.141  0.1231  0.1751 -2.5196
 9833TIP3    H250915   3.288   4.589  14.118 -1.4430 -0.1021 -0.0067
 9834TIP3   OH250916   2.296   1.544   2.410 -0.3521 -0.3329  0.2349
 9834TIP3    H150917   2.201   1.536   2.396 -0.4699 -1.8836  1.5787
 9834TIP3    H250918   2.331   1.561   2.323 -1.9761  1.8323 -0.0790
 9835TIP3   OH250919   4.664   6.283   2.264 -0.2874  0.1427 -0.1172
 9835TIP3    H150920   4.615   6.236   2.331  1.5286  1.3438  2.1979
 9835TIP3    H250921   4.597   6.327   2.211 -1.8040  0.9870  2.3322
 9836TIP3   OH250922   3.489   2.251   4.652 -0.1583 -0.8666  1.0841
 9836TIP3    H150923   3.438   2.206   4.585  1.5673 -2.4594  0.7653
 9836TIP3    H250924   3.439   2.239   4.733 -0.9561 -1.1826  0.5516
 9837TIP3   OH250925   6.093   6.696   3.152  0.4885  0.1489 -0.2758
 9837TIP3    H150926   6.062   6.768   3.206  0.9067  1.4737 -1.7447
 9837TIP3    H250927   6.187   6.710   3.144  0.5744 -0.5536 -0.5797
 9838TIP3   OH250928   2.625   5.639   2.930 -0.1114  0.2961  0.2346
 9838TIP3    H150929   2.569   5.675   2.861  0.7325 -2.8760 -2.3293
 9838TIP3    H250930   2.695   5.704   2.939 -0.8040  1.2945 -1.1089
 9839TIP3   OH250931   1.323   5.174   0.786  0.6955  0.8509 -0.2005
 9839TIP3    H150932   1.278   5.239   0.841 -0.3076  0.4452 -0.5197
 9839TIP3    H250933   1.383   5.130   0.846 -1.8237 -1.0141  1.1570
 9840TIP3   OH250934   0.777   3.896  15.051 -0.1584 -0.2290  0.0339
 9840TIP3    H150935   0.799   3.898  14.958 -0.3493  1.5365 -0.0140
 9840TIP3    H250936   0.691   3.854  15.054 -0.3432  0.0791 -0.6572
 9841TIP3   OH250937   2.171   1.387   2.125  1.4051  0.5355  0.0650
 9841TIP3    H150938   2.239   1.326   2.096  2.0172  1.2688 -0.0538
 9841TIP3    H250939   2.216   1.470   2.138  0.6786  0.8308  0.7712
 9842TIP3   OH250940   1.703   1.240   1.481 -0.8225 -0.3378 -0.1345
 9842TIP3    H150941   1.677   1.150   1.460 -0.2038 -0.5022 -0.2030
 9842TIP3    H250942   1.646   1.264   1.554 -1.8315 -0.3485 -0.8991
 9843TIP3   OH250943   1.453   2.142  13.767 -0.0570  0.3662 -0.2314
 9843TIP3    H150944   1.391   2.205  13.731 -0.8867 -0.8525 -0.9839
 9843TIP3    H250945   1.538   2.186  13.760 -0.6567  1.5385 -0.3779
 9844TIP3   OH250946   2.705   0.453   5.239  0.8912  0.0439 -0.2584
 9844TIP3    H150947   2.758   0.533   5.235 -0.7918  1.2517  0.5263
 9844TIP3    H250948   2.667   0.446   5.151 -0.0121  0.8776  0.0539
 9845TIP3   OH250949   0.405   6.392   5.457  0.3108  0.1594 -0.2252
 9845TIP3    H150950   0.409   6.481   5.423  0.8771 -0.1482 -0.9879
 9845TIP3    H250951   0.466   6.392   5.531  0.1250  0.4646 -0.0688
 9846TIP3   OH250952   6.117   1.812   1.186 -0.3436 -0.4302 -0.1893
 9846TIP3    H150953   6.187   1.787   1.124 -0.4333 -0.5342 -0.2498
 9846TIP3    H250954   6.136   1.762   1.265  0.0594  0.0819  0.0438
 9847TIP3   OH250955   3.116   6.575   2.371  0.0235  0.7019 -0.1428
 9847TIP3    H150956   3.162   6.659   2.368  0.5522  0.4014 -0.7141
 9847TIP3    H250957   3.078   6.566   2.284 -1.6636  1.2299  0.5095
 9848TIP3   OH250958   4.718   2.766   6.785 -0.6444 -0.4617 -0.1532
 9848TIP3    H150959   4.659   2.827   6.741  0.2611 -0.0173 -0.8060
 9848TIP3    H250960   4.706   2.683   6.738  0.5193  0.0767 -1.4954
 9849TIP3   OH250961   2.500   3.499   1.154 -0.0134 -0.1043  0.5025
 9849TIP3    H150962   2.513   3.592   1.171 -0.3865  0.4080 -1.6699
 9849TIP3    H250963   2.409   3.482   1.178  0.6050 -0.4544  2.8439
 9850TIP3   OH250964   6.475   4.749  14.157  0.6762  0.5841  0.2725
 9850TIP3    H150965   6.554   4.754  14.211  0.7737  3.3451 -0.0096
 9850TIP3    H250966   6.409   4.798  14.206 -0.7062 -1.1010  0.1772
 9851TIP3   OH250967   4.168   5.972  11.641 -0.1132  0.3486 -0.1772
 9851TIP3    H150968   4.144   5.885  11.608 -0.5627  0.3485  0.1406
 9851TIP3    H250969   4.114   5.983  11.719 -0.1228  0.9544 -0.2701
 9852TIP3   OH250970   5.521   0.485  11.443 -0.2203 -0.3368  0.0816
 9852TIP3    H150971   5.576   0.447  11.375 -0.2436 -1.5751  0.7250
 9852TIP3    H250972   5.510   0.415  11.507 -1.0011  0.4897  0.8859
 9853TIP3   OH250973   1.951   2.886  17.400  0.3887 -0.1782  0.3659
 9853TIP3    H150974   1.894   2.962  17.407  0.2420 -0.1253 -1.0409
 9853TIP3    H250975   1.932   2.850  17.313  1.2759 -1.1501  0.5513
 9854TIP3   OH250976   3.902   6.723  16.242  0.0800 -0.0640  0.2894
 9854TIP3    H150977   3.816   6.711  16.202  0.0428 -0.3758  0.4562
 9854TIP3    H250978   3.891   6.689  16.331 -0.3007  2.1087  1.1366
 9855TIP3   OH250979   2.689   1.933  11.597 -0.8093  0.0539  0.2869
 9855TIP3    H150980   2.749   1.971  11.660 -0.4846  1.6476 -0.9167
 9855TIP3    H250981   2.680   1.842  11.624 -0.0332  0.4744  2.1069
 9856TIP3   OH250982   0.096   6.459   0.675 -0.5142  0.1037  0.4447
 9856TIP3    H150983   0.099   6.392   0.743  0.9489 -0.5833 -0.2375
 9856TIP3    H250984   0.184   6.458   0.637 -1.4615 -0.0528 -1.9531
 9857TIP3   OH250985   1.754   6.012  13.110 -0.4337 -0.1418 -0.3237
 9857TIP3    H150986   1.800   5.972  13.036 -2.2153  0.4374 -1.8525
 9857TIP3    H250987   1.665   6.028  13.076 -1.6306 -0.7556  2.2934
 9858TIP3   OH250988   6.207   6.574   2.186 -0.3030  0.2334  0.4817
 9858TIP3    H150989   6.181   6.666   2.183 -0.6768  0.1279  0.4695
 9858TIP3    H250990   6.133   6.530   2.228 -0.9802 -0.3554 -1.2393
 9859TIP3   OH250991   2.786   3.922  13.869  0.0500 -0.4303  0.0816
 9859TIP3    H150992   2.864   3.866  13.867  1.2749  1.2124 -0.0116
 9859TIP3    H250993   2.819   4.010  13.850 -2.0606  0.0833 -1.5444
 9860TIP3   OH250994   6.025   2.142  14.906 -0.1496  0.7254 -0.5078
 9860TIP3    H150995   6.059   2.059  14.873  1.0146 -0.1840  2.6526
 9860TIP3    H250996   5.934   2.124  14.927  0.2349  0.0584  0.6478
 9861TIP3   OH250997   5.547   0.937  14.366  0.1290  0.3435  1.0160
 9861TIP3    H150998   5.488   0.865  14.343  0.4085  0.2008  0.7562
 9861TIP3    H250999   5.629   0.916  14.324 -0.0314  1.2533  0.2239
 9862TIP3   OH251000   0.640   5.341  16.367  0.4641 -0.3841 -0.2654
 9862TIP3    H151001   0.591   5.368  16.444  2.3888 -0.2546  0.9997
 9862TIP3    H251002   0.623   5.247  16.359 -0.5344 -0.2026 -0.2958
 9863TIP3   OH251003   6.178   3.808  11.264  0.1983  0.1514  0.3557
 9863TIP3    H151004   6.159   3.752  11.339 -0.2112  1.5630  1.3597
 9863TIP3    H251005   6.144   3.760  11.189  0.9713 -1.4795  1.0050
 9864TIP3   OH251006   0.963   3.385   1.893  0.8559 -0.8020 -0.5047
 9864TIP3    H151007   0.868   3.387   1.883  1.0189  1.1332 -2.3241
 9864TIP3    H251008   0.981   3.450   1.961  0.7786 -3.3863  2.2083
 9865TIP3   OH251009   4.630   1.282   0.882 -0.2776 -0.1185  0.4958
 9865TIP3    H151010   4.608   1.284   0.975 -1.6142 -1.5755  0.2653
 9865TIP3    H251011   4.679   1.200   0.871 -0.6784 -0.2805 -0.1624
 9866TIP3   OH251012   1.968   1.932   4.404 -0.2201  0.2920  0.4014
 9866TIP3    H151013   2.063   1.930   4.393 -0.3260 -0.2721 -0.5309
 9866TIP3    H251014   1.938   1.991   4.334 -0.5815  0.2225  0.4988
 9867TIP3   OH251015   1.349   0.845   3.460 -0.1897  0.0688 -0.2214
 9867TIP3    H151016   1.423   0.888   3.417  0.8096  0.5999  1.9128
 9867TIP3    H251017   1.275   0.862   3.402  1.2115  0.0423 -2.1155
 9868TIP3   OH251018   0.303   1.898  15.845  0.4576 -0.3680  0.1030
 9868TIP3    H151019   0.217   1.870  15.815  0.0135  1.4447 -0.4884
 9868TIP3    H251020   0.364   1.862  15.781 -0.1582  0.5912 -1.0792
 9869TIP3   OH251021   1.316   2.396   0.868  0.8411  0.0977  0.1073
 9869TIP3    H151022   1.394   2.383   0.921 -1.6351 -0.3656  4.0980
 9869TIP3    H251023   1.300   2.311   0.827  1.6223 -0.2293  0.4585
 9870TIP3   OH251024   0.415   6.341  14.352 -0.1510  0.1185  0.3009
 9870TIP3    H151025   0.346   6.407  14.358 -1.0674 -0.8912  1.8975
 9870TIP3    H251026   0.378   6.264  14.397  1.5315 -0.8931  0.0534
 9871TIP3   OH251027   2.940   4.150   3.955  0.1720  0.0313 -0.5525
 9871TIP3    H151028   2.997   4.158   3.878  1.8463  0.9696  0.6878
 9871TIP3    H251029   2.896   4.066   3.945  2.1504 -0.9714 -1.3946
 9872TIP3   OH251030   0.069   2.765   3.122 -0.6498 -0.0701 -0.0845
 9872TIP3    H151031  -0.019   2.788   3.151 -0.1119 -1.2724  2.8464
 9872TIP3    H251032   0.056   2.727   3.035 -2.6600  1.9983 -0.7964
 9873TIP3   OH251033   1.859   1.382  15.451  0.2090 -0.2485 -0.2250
 9873TIP3    H151034   1.832   1.473  15.439 -0.8047 -0.4215  0.6702
 9873TIP3    H251035   1.789   1.331  15.410 -0.0164 -0.6600  0.6562
 9874TIP3   OH251036   2.432   4.754   3.355 -0.1126 -0.6305 -0.2061
 9874TIP3    H151037   2.490   4.764   3.431 -0.7959  0.3656  0.2027
 9874TIP3    H251038   2.378   4.678   3.375  0.2425 -0.8491 -0.0614
 9875TIP3   OH251039   6.536   5.484  13.030 -0.1506  0.0546  0.3947
 9875TIP3    H151040   6.500   5.397  13.046 -1.1019  0.1162 -1.2049
 9875TIP3    H251041   6.465   5.533  12.990  0.4867  1.4789  0.9161
 9876TIP3   OH251042   4.930   2.365   4.761 -0.0509  0.0443 -0.1839
 9876TIP3    H151043   4.873   2.306   4.810 -1.4444 -1.3197 -3.1872
 9876TIP3    H251044   5.017   2.350   4.797 -0.7508 -2.0415  0.7685
 9877TIP3   OH251045   2.564   5.907   2.424  0.4041  0.4528 -0.0946
 9877TIP3    H151046   2.592   5.917   2.516  2.5012 -2.4259 -0.2747
 9877TIP3    H251047   2.645   5.917   2.374 -0.9728  3.9308 -1.9822
 9878TIP3   OH251048   3.410   3.812   3.785  0.3938  0.0594  0.2194
 9878TIP3    H151049   3.331   3.847   3.825  1.0833  0.3452  1.3890
 9878TIP3    H251050   3.441   3.882   3.727 -0.8938 -0.5565 -1.2779
 9879TIP3   OH251051   1.343   5.900   2.903  0.0412 -0.1156 -0.2753
 9879TIP3    H151052   1.249   5.905   2.887 -0.0289 -1.1710 -0.2397
 9879TIP3    H251053   1.381   5.888   2.816  0.2521  1.3883 -0.4231
 9880TIP3   OH251054   0.475   0.367  11.642  0.2062 -0.2392 -0.2049
 9880TIP3    H151055   0.409   0.432  11.618  1.6050  0.6957 -1.7741
 9880TIP3    H251056   0.516   0.403  11.721  0.1437  0.1656 -0.3557
 9881TIP3   OH251057   1.249   1.996  11.599 -0.5470 -0.1129 -0.4378
 9881TIP3    H151058   1.284   1.999  11.510 -1.4688 -0.3578 -0.8226
 9881TIP3    H251059   1.313   1.943  11.647  1.4551  2.2968 -0.2162
 9882TIP3   OH251060   4.473   4.745  17.157 -1.0914 -0.2295 -0.7011
 9882TIP3    H151061   4.476   4.839  17.177  1.0792 -0.8234  2.3499
 9882TIP3    H251062   4.546   4.731  17.097  0.5939 -0.3260  1.2493
 9883TIP3   OH251063   5.290   4.695  15.087  0.4238  0.3282 -0.4374
 9883TIP3    H151064   5.321   4.785  15.077 -2.6585  1.4739 -0.8757
 9883TIP3    H251065   5.271   4.666  14.997  0.2912 -0.3477 -0.2006
 9884TIP3   OH251066   6.134   4.056   4.729  0.2834 -0.9857  0.1678
 9884TIP3    H151067   6.110   4.127   4.788  3.0332 -0.0821  0.3328
 9884TIP3    H251068   6.226   4.071   4.709  0.7413 -3.9987 -0.5350
 9885TIP3   OH251069   2.103   1.155  11.307  0.2229 -0.1019 -0.0255
 9885TIP3    H151070   2.040   1.216  11.346  0.0910 -0.2625  0.0119
 9885TIP3    H251071   2.051   1.103  11.246  0.2399 -0.5118  0.3091
 9886TIP3   OH251072   3.502   5.651  15.742  0.1419 -0.0460  0.1887
 9886TIP3    H151073   3.419   5.624  15.700 -0.2623  1.6839 -0.1858
 9886TIP3    H251074   3.501   5.746  15.737  1.0751  0.1177  2.3167
 9887TIP3   OH251075   1.821   5.146   3.125  0.1934 -0.5970 -0.4414
 9887TIP3    H151076   1.836   5.120   3.216 -1.7486  0.9538  0.3870
 9887TIP3    H251077   1.816   5.063   3.078  0.8439 -1.4524  0.9126
 9888TIP3   OH251078   2.627   2.675  16.706 -0.0721  0.0968  0.3932
 9888TIP3    H151079   2.709   2.635  16.677 -0.7492 -0.8369 -0.3542
 9888TIP3    H251080   2.644   2.705  16.795  0.7441 -1.1332  0.6790
 9889TIP3   OH251081   0.239   5.423  11.104  0.3935 -0.1124  0.0283
 9889TIP3    H151082   0.163   5.439  11.048 -0.0736  0.2996  0.7796
 9889TIP3    H251083   0.207   5.366  11.174  1.1637 -1.2758 -0.5301
 9890TIP3   OH251084   3.667   3.624  11.822  0.2475 -0.1806  0.0173
 9890TIP3    H151085   3.589   3.570  11.809  1.2669 -1.4796 -1.0957
 9890TIP3    H251086   3.677   3.630  11.917 -0.1286 -1.6686  0.1733
 9891TIP3   OH251087   4.020   4.630   5.188  0.3973  0.3610  0.0168
 9891TIP3    H151088   4.018   4.672   5.102 -1.5813 -0.2536 -0.2734
 9891TIP3    H251089   4.024   4.537   5.170  2.0155  0.2810  0.6429
 9892TIP3   OH251090   0.325   2.390  16.190  0.4966  0.3316 -0.3808
 9892TIP3    H151091   0.398   2.438  16.150 -0.1852  2.2411  0.5377
 9892TIP3    H251092   0.247   2.439  16.163 -0.1997 -0.0440  0.8990
 9893TIP3   OH251093   5.219   0.205  12.702 -0.2856  0.0684  0.6218
 9893TIP3    H151094   5.132   0.216  12.739 -0.7015  0.3990 -0.4278
 9893TIP3    H251095   5.276   0.254  12.761 -1.1003  1.5801  0.2136
 9894TIP3   OH251096   2.492   1.644  14.281  0.6384 -0.1731  0.6491
 9894TIP3    H151097   2.496   1.739  14.282 -0.4843 -0.1125  1.5718
 9894TIP3    H251098   2.549   1.617  14.353  2.6667 -0.3302 -0.9235
 9895TIP3   OH251099   5.331   0.304  16.559 -0.3650  0.7051 -0.1522
 9895TIP3    H151100   5.400   0.248  16.595 -0.2565  0.6073 -0.5031
 9895TIP3    H251101   5.249   0.263  16.589 -0.3416 -0.5371 -1.6392
 9896TIP3   OH251102   5.280   6.430  11.824  0.5385 -0.0530 -0.3675
 9896TIP3    H151103   5.269   6.474  11.740 -1.8747 -1.1776 -0.7310
 9896TIP3    H251104   5.365   6.385  11.817  0.1798 -0.5104 -2.4088
 9897TIP3   OH251105   2.327   1.017   5.414  0.2210 -0.0027 -0.2318
 9897TIP3    H151106   2.359   0.930   5.438 -0.5725 -0.1046  0.4912
 9897TIP3    H251107   2.237   1.019   5.446 -0.3097  0.4990 -1.6561
 9898TIP3   OH251108   0.179   2.094   3.561  0.1068 -0.2681  0.4475
 9898TIP3    H151109   0.210   2.005   3.579 -0.1642 -0.1762  1.4352
 9898TIP3    H251110   0.091   2.081   3.524 -0.4097 -0.3839  1.6809
 9899TIP3   OH251111   1.891   6.350   2.108  0.4770 -0.0496 -0.4088
 9899TIP3    H151112   1.825   6.416   2.131  0.9807  0.7599 -1.2338
 9899TIP3    H251113   1.902   6.359   2.013 -0.2713 -2.1081 -0.7356
 9900TIP3   OH251114   0.287   4.904   4.962 -0.2694 -0.2575  0.5039
 9900TIP3    H151115   0.242   4.896   5.046 -0.6298 -1.7102  0.2140
 9900TIP3    H251116   0.379   4.890   4.982  0.3106  3.6712  1.2444
 9901TIP3   OH251117   3.740   5.497  12.970 -0.4537  0.3241  0.8058
 9901TIP3    H151118   3.809   5.514  13.035  0.3042 -1.5500  0.5442
 9901TIP3    H251119   3.777   5.528  12.887 -1.0818  1.9104  1.0723
 9902TIP3   OH251120   2.637   0.776  14.197 -0.7914 -0.3637  0.2424
 9902TIP3    H151121   2.617   0.866  14.169 -0.0812 -0.3120 -0.1464
 9902TIP3    H251122   2.572   0.722  14.153 -0.1044 -0.2095 -1.0238
 9903TIP3   OH251123   3.917   4.644  14.818  0.5109 -0.2213 -0.9235
 9903TIP3    H151124   3.939   4.734  14.840 -0.9965 -0.0288 -0.0540
 9903TIP3    H251125   3.916   4.642  14.722  0.7983  0.6213 -0.9526
 9904TIP3   OH251126   4.850   4.046   2.189 -0.0311  0.3686 -0.3771
 9904TIP3    H151127   4.917   3.980   2.170  1.7312  1.7516  0.7209
 9904TIP3    H251128   4.796   4.005   2.257  0.4285 -0.3401 -0.4257
 9905TIP3   OH251129   6.387   4.257  11.141 -0.2113  0.9891  0.5158
 9905TIP3    H151130   6.443   4.297  11.074 -0.3513  0.3880  0.0327
 9905TIP3    H251131   6.311   4.316  11.146 -1.3494 -0.1735 -1.6004
 9906TIP3   OH251132   0.888   6.163   3.447 -0.0525 -0.8539 -0.0104
 9906TIP3    H151133   0.810   6.171   3.392  0.2482  0.1816 -0.3022
 9906TIP3    H251134   0.912   6.253   3.469  2.5710 -0.9109 -2.0923
 9907TIP3   OH251135   0.318   2.435  15.675  0.0190  0.2876  0.2874
 9907TIP3    H151136   0.319   2.341  15.694  0.6136 -0.5039 -2.9728
 9907TIP3    H251137   0.225   2.454  15.659 -0.1691  0.4105  1.4516
 9908TIP3   OH251138   2.862   1.295  11.367  0.3547 -0.8400  0.9705
 9908TIP3    H151139   2.919   1.366  11.337 -0.8064  0.0036  0.6891
 9908TIP3    H251140   2.922   1.229  11.402  1.6009 -0.6483 -0.6800
 9909TIP3   OH251141   6.719   5.753   1.835  0.1584 -0.4428 -0.4802
 9909TIP3    H151142   6.794   5.699   1.859  1.2145  1.6248  1.1796
 9909TIP3    H251143   6.645   5.713   1.882  1.0895  0.0501  1.4993
 9910TIP3   OH251144   5.879   2.151   4.780  0.1919  0.1703  0.1361
 9910TIP3    H151145   5.924   2.206   4.844  0.5591  0.4149 -0.3276
 9910TIP3    H251146   5.788   2.181   4.783  0.5623  1.4947 -0.8008
 9911TIP3   OH251147   5.530   5.978   3.541  0.3187 -0.0980 -0.0611
 9911TIP3    H151148   5.551   5.888   3.564 -1.5410 -0.3058  0.9519
 9911TIP3    H251149   5.500   6.018   3.623 -0.4226  0.9779 -0.8291
 9912TIP3   OH251150   1.987   6.597   4.371 -0.0547 -0.0438  0.0068
 9912TIP3    H151151   2.012   6.514   4.410  1.8944  0.4040 -0.1661
 9912TIP3    H251152   1.984   6.579   4.277  0.1459  0.0183 -0.0127
 9913TIP3   OH251153   5.486   5.665  13.799  0.2303 -0.2576 -0.6444
 9913TIP3    H151154   5.498   5.578  13.762 -1.2634 -0.6585 -0.2263
 9913TIP3    H251155   5.548   5.668  13.872 -3.3416 -3.1437  2.9343
 9914TIP3   OH251156   1.268   5.630   5.216  0.5223  0.3088 -0.5730
 9914TIP3    H151157   1.344   5.651   5.161  1.1185 -0.1635  0.0492
 9914TIP3    H251158   1.231   5.716   5.238  1.2950  0.5857 -0.3066
 9915TIP3   OH251159   6.629   1.159  14.462 -0.3230 -0.6754 -0.0399
 9915TIP3    H151160   6.549   1.124  14.422 -1.3245  0.3663  0.9735
 9915TIP3    H251161   6.606   1.248  14.488  0.7763 -0.7796  1.4126
 9916TIP3   OH251162   3.991   6.650  10.700  0.1861  0.4272  0.4793
 9916TIP3    H151163   3.907   6.670  10.659  1.4434  1.3215 -1.8538
 9916TIP3    H251164   3.968   6.613  10.785 -2.5575  0.2664 -0.2407
 9917TIP3   OH251165   1.474   2.439  16.550  0.5306  0.2097  0.1008
 9917TIP3    H151166   1.506   2.497  16.619  1.1732 -1.1034  0.9613
 9917TIP3    H251167   1.547   2.433  16.488 -0.1175  1.5398 -0.8109
 9918TIP3   OH251168   2.721   0.831  15.568 -0.0425  0.0028  0.0916
 9918TIP3    H151169   2.705   0.832  15.474  0.5723 -1.6327 -0.0581
 9918TIP3    H251170   2.763   0.915  15.586 -0.1395  0.3203 -1.0928
 9919TIP3   OH251171   1.653   1.394  11.359 -0.4094  0.0053 -0.4452
 9919TIP3    H151172   1.561   1.386  11.384 -0.9003  0.3821 -2.0610
 9919TIP3    H251173   1.653   1.454  11.285  1.1793  0.2061 -0.3243
 9920TIP3   OH251174   1.571   1.684  12.833 -0.0060 -0.1160  0.2639
 9920TIP3    H151175   1.616   1.707  12.914 -0.8599 -1.3007  1.1043
 9920TIP3    H251176   1.495   1.741  12.831 -0.5453 -0.8052  0.8407
 9921TIP3   OH251177   2.460   4.450   2.433  0.2290  0.2662  0.5791
 9921TIP3    H151178   2.502   4.533   2.455  2.0276 -0.4263 -0.1223
 9921TIP3    H251179   2.383   4.447   2.491  0.9123  1.7382  1.6441
 9922TIP3   OH251180   0.952   2.139   0.374  0.2131  0.8521  0.1329
 9922TIP3    H151181   0.873   2.181   0.341 -0.4814 -0.4826  0.0369
 9922TIP3    H251182   0.923   2.054   0.405  1.2138  1.2080  2.2459
 9923TIP3   OH251183   4.033   3.635   0.756 -0.0911  0.3960  0.3773
 9923TIP3    H151184   4.076   3.718   0.736  1.0399 -0.2918 -0.1602
 9923TIP3    H251185   4.063   3.613   0.844  0.8536 -0.1748 -0.0683
 9924TIP3   OH251186   6.074   3.049  12.372 -0.1108 -0.0707  0.2003
 9924TIP3    H151187   6.128   3.095  12.437 -1.3056  0.4212  0.8599
 9924TIP3    H251188   6.136   2.991  12.327  1.0146  0.6373  0.7878
 9925TIP3   OH251189   4.509   1.430   3.622  0.0163 -0.7178 -0.2011
 9925TIP3    H151190   4.517   1.492   3.695  0.0348 -0.6848 -0.2305
 9925TIP3    H251191   4.483   1.348   3.662 -0.7977 -0.4947 -0.2421
 9926TIP3   OH251192   6.722   5.494  16.060  0.1540  0.1094 -0.0934
 9926TIP3    H151193   6.650   5.471  16.003 -1.0639 -1.5316  1.9682
 9926TIP3    H251194   6.801   5.474  16.010 -0.8406 -0.5598 -1.4337
 9927TIP3   OH251195   0.434   3.317   0.129  0.0423 -0.0709 -0.4398
 9927TIP3    H151196   0.477   3.401   0.120  0.8048 -0.6062 -2.2794
 9927TIP3    H251197   0.446   3.293   0.221  1.2206  1.0698 -0.2739
 9928TIP3   OH251198   4.119   1.443   3.676  0.2502  0.4181  0.4937
 9928TIP3    H151199   4.151   1.492   3.752  1.6095  0.3747 -0.0171
 9928TIP3    H251200   4.162   1.484   3.601 -0.8486  0.2808 -0.2440
 9929TIP3   OH251201   5.471   1.051   2.036 -0.7033 -0.1011  0.1555
 9929TIP3    H151202   5.472   1.108   2.113 -0.1037  0.8465 -0.5370
 9929TIP3    H251203   5.446   0.965   2.070 -1.0276  0.4373  1.3114
 9930TIP3   OH251204   2.878   2.565  16.627 -0.0910 -0.1333 -0.2692
 9930TIP3    H151205   2.875   2.505  16.552 -1.9337 -0.2704 -0.1373
 9930TIP3    H251206   2.859   2.510  16.703 -0.0892  0.3126  0.0578
 9931TIP3   OH251207   0.494   3.890  16.672  0.3127  0.0999 -0.6987
 9931TIP3    H151208   0.543   3.966  16.640  2.4544 -1.2508 -0.8279
 9931TIP3    H251209   0.522   3.818  16.616 -1.3773 -0.8903 -0.3414
 9932TIP3   OH251210   4.353   5.871  15.380  0.0331 -0.4512  0.2537
 9932TIP3    H151211   4.361   5.818  15.301  0.3341  1.5506 -1.1630
 9932TIP3    H251212   4.438   5.863  15.423  0.2728 -0.6557 -0.2477
 9933TIP3   OH251213   2.997   1.278  14.406  0.3623 -0.3085 -0.4081
 9933TIP3    H151214   3.021   1.186  14.421 -0.9503 -0.3601  1.8142
 9933TIP3    H251215   2.946   1.276  14.326 -1.8335 -2.0231  0.8948
 9934TIP3   OH251216   1.211   4.535  15.756 -0.3543 -0.6839  0.8880
 9934TIP3    H151217   1.181   4.624  15.772  0.1674  0.1321 -2.1371
 9934TIP3    H251218   1.305   4.538  15.777  0.0674  0.0373 -0.9621
 9935TIP3   OH251219   1.529   6.566   3.786 -0.0746 -0.3161  0.3854
 9935TIP3    H151220   1.477   6.610   3.854  0.4747 -0.4016  0.8671
 9935TIP3    H251221   1.479   6.487   3.765 -0.4329 -0.1006  0.4231
 9936TIP3   OH251222   1.367   4.678  16.922  0.6293 -0.0511  0.0624
 9936TIP3    H151223   1.410   4.757  16.954 -0.5235  0.3012  0.7922
 9936TIP3    H251224   1.440   4.620  16.899  1.5194  1.8327 -2.2128
 9937TIP3   OH251225   1.691   4.918   1.105  0.4556  0.1234  0.1476
 9937TIP3    H151226   1.711   4.926   1.199  0.8021 -1.2108  0.2056
 9937TIP3    H251227   1.672   4.825   1.092 -0.8728  0.5197 -0.8755
 9938TIP3   OH251228   0.922   3.612   0.640  0.0999  0.1456 -0.4607
 9938TIP3    H151229   0.890   3.696   0.607 -0.5096  0.5024  0.9695
 9938TIP3    H251230   0.951   3.630   0.729  1.6855 -0.7938 -0.7436
 9939TIP3   OH251231   6.520   3.554  13.954  0.1497  0.4837  0.4502
 9939TIP3    H151232   6.518   3.489  13.883 -0.6416 -0.0035  0.9011
 9939TIP3    H251233   6.494   3.636  13.912  0.6208  0.4103 -0.0110
 9940TIP3   OH251234   5.585   4.749   4.116  0.1630  0.2143  0.2080
 9940TIP3    H151235   5.660   4.715   4.066  0.6550  0.5807  0.6825
 9940TIP3    H251236   5.624   4.809   4.179 -0.6319  1.1184 -0.1473
 9941TIP3   OH251237   5.903   4.445   3.710  0.1994 -0.5753  0.3643
 9941TIP3    H151238   5.919   4.462   3.618  1.0950 -2.6878  0.0667
 9941TIP3    H251239   5.818   4.487   3.728  0.0675 -0.0161 -1.3627
 9942TIP3   OH251240   3.703   0.061   1.946  0.3087  0.2156  0.1793
 9942TIP3    H151241   3.638   0.128   1.924 -1.8117 -0.7247  2.8807
 9942TIP3    H251242   3.766   0.106   2.001 -0.2838  0.3532  0.7652
 9943TIP3   OH251243   2.421   3.727  14.103 -0.8862  0.0867  0.1593
 9943TIP3    H151244   2.355   3.795  14.088 -2.1487 -1.3750 -1.4636
 9943TIP3    H251245   2.426   3.718  14.198 -3.1190  0.1967  0.3358
 9944TIP3   OH251246   1.061   2.266   0.129  0.1474  0.1141  0.1401
 9944TIP3    H151247   0.993   2.238   0.068  0.3925  0.9633 -0.5515
 9944TIP3    H251248   1.014   2.296   0.206 -0.4213  2.3246 -0.9789
 9945TIP3   OH251249   5.548   5.208  17.192  0.3286 -0.2499  0.0790
 9945TIP3    H151250   5.560   5.302  17.201  0.4669 -0.1404 -1.1404
 9945TIP3    H251251   5.573   5.173  17.277  1.9659  0.6589  0.0110
 9946TIP3   OH251252   1.339   2.268   6.103 -0.4608  0.1424 -0.1347
 9946TIP3    H151253   1.353   2.349   6.053 -0.0714 -0.4501 -1.0091
 9946TIP3    H251254   1.315   2.298   6.190  0.7656  1.2144 -0.1319
 9947TIP3   OH251255   0.134   2.439   4.502 -1.0420  0.0386  0.0162
 9947TIP3    H151256   0.096   2.354   4.485 -0.5417  0.0897 -1.5380
 9947TIP3    H251257   0.171   2.466   4.418 -2.2523  2.3333  0.1380
 9948TIP3   OH251258   4.222   6.071  17.241  0.4236 -0.0054 -0.2777
 9948TIP3    H151259   4.271   6.128  17.182 -0.2504 -0.0484 -0.9064
 9948TIP3    H251260   4.286   6.040  17.305  1.0588  0.4641 -0.6795
 9949TIP3   OH251261   4.893   1.182   1.497 -0.1716 -0.6350  0.6753
 9949TIP3    H151262   4.943   1.141   1.567  0.1506 -0.2651  0.6682
 9949TIP3    H251263   4.812   1.131   1.491 -1.6893  1.1750  3.4674
 9950TIP3   OH251264   3.936   4.404   3.857 -0.1679 -0.1815 -0.1123
 9950TIP3    H151265   3.865   4.346   3.885  0.2351 -0.0171  1.3528
 9950TIP3    H251266   3.892   4.476   3.812 -1.0088  0.2709  1.3743
 9951TIP3   OH251267   5.428   4.441   1.584 -0.3537 -0.2097 -0.2655
 9951TIP3    H151268   5.390   4.424   1.498 -1.3962 -2.4966  0.5714
 9951TIP3    H251269   5.366   4.501   1.626 -0.2171  0.3365 -0.8349
 9952TIP3   OH251270   2.782   3.005   5.743  0.6952 -0.2532 -0.8297
 9952TIP3    H151271   2.875   3.027   5.745  0.8065 -0.6996  1.5300
 9952TIP3    H251272   2.769   2.948   5.819 -1.4289 -0.5549 -1.3532
 9953TIP3   OH251273   1.169   1.134   4.732  0.4001 -0.4342  0.6192
 9953TIP3    H151274   1.110   1.090   4.671  0.5787 -1.4918  1.1804
 9953TIP3    H251275   1.242   1.073   4.742  0.8296  0.1574  1.1496
 9954TIP3   OH251276   0.420   0.908  13.607  0.6727 -0.0300  0.0640
 9954TIP3    H151277   0.491   0.857  13.568 -0.7627  0.0709 -2.9210
 9954TIP3    H251278   0.435   0.997  13.577 -1.2284 -0.1894 -1.5213
 9955TIP3   OH251279   1.378   4.773   1.501  0.5085  0.2861  0.0907
 9955TIP3    H151280   1.288   4.750   1.479  1.0128  0.1908 -2.1515
 9955TIP3    H251281   1.427   4.692   1.489  0.8970  0.3122  1.3973
 9956TIP3   OH251282   2.507   6.362   6.691 -0.6781  0.4180 -0.6613
 9956TIP3    H151283   2.432   6.341   6.747 -1.4881  2.1435 -1.0396
 9956TIP3    H251284   2.583   6.348   6.747 -1.2693 -1.1428 -0.1964
 9957TIP3   OH251285   0.502   1.577  14.414 -0.1043 -0.0063 -0.1671
 9957TIP3    H151286   0.492   1.591  14.508  2.4351  0.2033  0.1460
 9957TIP3    H251287   0.567   1.642  14.387  0.6804 -1.3412 -1.6545
 9958TIP3   OH251288   3.820   4.010   5.046 -0.0916  0.3071  0.4014
 9958TIP3    H151289   3.749   4.051   4.996 -0.0114  0.8803  0.7590
 9958TIP3    H251290   3.898   4.026   4.994  0.0370  1.1532  0.8429
 9959TIP3   OH251291   4.878   1.728  16.194 -0.1380  0.4238  0.2371
 9959TIP3    H151292   4.969   1.731  16.163 -0.4044 -2.8530 -1.2564
 9959TIP3    H251293   4.831   1.790  16.138  1.0748  1.9535  0.8442
 9960TIP3   OH251294   1.021   2.996   3.260 -0.1609 -0.1296  0.0080
 9960TIP3    H151295   1.116   2.990   3.249 -0.0649 -0.7071  0.9864
 9960TIP3    H251296   0.996   2.908   3.290 -1.0700 -0.1194 -0.7040
 9961TIP3   OH251297   4.366   5.542  16.698 -0.1348  0.4200 -0.1446
 9961TIP3    H151298   4.408   5.614  16.650  2.4954 -0.6518  0.3638
 9961TIP3    H251299   4.424   5.525  16.772 -0.6035 -2.2294 -0.2619
 9962TIP3   OH251300   2.170   5.167   1.223  0.2066 -0.6710 -0.0231
 9962TIP3    H151301   2.161   5.073   1.211 -0.9900 -0.4771 -1.0038
 9962TIP3    H251302   2.245   5.191   1.169 -0.0147 -0.9663 -0.4753
 9963TIP3   OH251303   2.959   5.710  16.533  0.0431 -0.2190  0.0157
 9963TIP3    H151304   2.950   5.614  16.532 -0.4808 -0.1991  1.0120
 9963TIP3    H251305   2.987   5.733  16.445 -0.5877 -1.2244 -0.4607
 9964TIP3   OH251306   5.931   5.051  14.107  0.4906  0.2403  0.3479
 9964TIP3    H151307   6.010   4.999  14.092  0.3583 -0.3521  1.5929
 9964TIP3    H251308   5.861   5.002  14.065  0.6228  0.2210  0.1512
 9965TIP3   OH251309   0.475   5.987  14.231  0.1406  0.5655 -0.6039
 9965TIP3    H151310   0.486   6.032  14.315 -1.0126 -0.8376  0.3377
 9965TIP3    H251311   0.479   6.057  14.165 -1.1206  1.9903  0.7711
 9966TIP3   OH251312   6.595   1.593   2.271  0.6576 -0.2693  0.4354
 9966TIP3    H151313   6.569   1.522   2.330  1.2087  0.0619  1.0971
 9966TIP3    H251314   6.529   1.592   2.201  0.5454 -1.2973  0.5403
 9967TIP3   OH251315   6.568   3.446  16.683 -0.0886  0.9694  0.0600
 9967TIP3    H151316   6.634   3.448  16.752  1.3524 -5.8067 -0.4459
 9967TIP3    H251317   6.618   3.452  16.602 -0.3973 -0.6661 -0.2993
 9968TIP3   OH251318   1.248   6.377   3.449  0.4801  0.1102 -0.7089
 9968TIP3    H151319   1.334   6.355   3.413  0.2288 -2.7294  0.1551
 9968TIP3    H251320   1.193   6.390   3.373  1.2568  0.1533 -1.2815
 9969TIP3   OH251321   3.804   0.077  15.855 -0.2171 -0.1113  0.3019
 9969TIP3    H151322   3.874   0.013  15.869 -0.7089 -0.3719  1.7616
 9969TIP3    H251323   3.825   0.149  15.916  1.3137  2.0486 -2.5250
 9970TIP3   OH251324   4.583   0.480  12.725 -0.2150  0.1475  0.1607
 9970TIP3    H151325   4.545   0.507  12.808  1.9316 -2.3848  2.1508
 9970TIP3    H251326   4.566   0.386  12.721  0.5140  0.0559 -1.8758
 9971TIP3   OH251327   5.684   1.581  15.605  0.4474  0.1115  0.4522
 9971TIP3    H151328   5.615   1.647  15.608 -1.3762 -1.7166  1.0706
 9971TIP3    H251329   5.763   1.630  15.583 -0.7940  2.4850  0.9300
 9972TIP3   OH251330   0.324   1.199  16.020 -0.4583 -0.2219  0.2681
 9972TIP3    H151331   0.352   1.135  15.954 -1.0149 -1.3375  1.0742
 9972TIP3    H251332   0.344   1.284  15.981  0.4163 -0.8831 -0.7913
 9973TIP3   OH251333   1.137   4.266  11.892 -0.1919  0.4677  0.2996
 9973TIP3    H151334   1.204   4.278  11.824 -0.1142 -0.3272  0.2311
 9973TIP3    H251335   1.164   4.188  11.940 -1.3139 -0.1397 -0.0200
 9974TIP3   OH251336   2.535   2.581   3.412  0.4022 -0.1185 -0.7291
 9974TIP3    H151337   2.576   2.547   3.333  3.4133  3.2822 -0.9083
 9974TIP3    H251338   2.606   2.585   3.476 -0.8710  1.3114  0.6956
 9975TIP3   OH251339   0.416   0.428  16.428 -0.3147 -0.1022 -0.0407
 9975TIP3    H151340   0.512   0.423  16.424 -0.2706  1.0597 -0.6695
 9975TIP3    H251341   0.393   0.375  16.505  0.6148 -2.7201 -1.4349
 9976TIP3   OH251342   3.356   6.491   5.044  0.2898  0.3791  0.1941
 9976TIP3    H151343   3.336   6.528   4.958  0.1407  2.1139  0.9354
 9976TIP3    H251344   3.422   6.550   5.081  1.3259 -1.0950  0.7579
 9977TIP3   OH251345   1.669   5.794  16.251 -0.1052  0.1178 -0.6822
 9977TIP3    H151346   1.754   5.767  16.285 -0.8784 -0.3433  1.0013
 9977TIP3    H251347   1.627   5.840  16.324 -1.2556  0.4313 -1.5024
 9978TIP3   OH251348   2.996   5.859  11.758 -0.7860 -0.0969  0.0039
 9978TIP3    H151349   2.911   5.898  11.778 -0.3039  1.2314 -0.4114
 9978TIP3    H251350   2.987   5.826  11.669 -0.1673  2.3042 -1.0364
 9979TIP3   OH251351   2.629   6.163  12.957  0.4220 -0.2536  0.1396
 9979TIP3    H151352   2.550   6.216  12.947  0.2219 -0.4642  0.6161
 9979TIP3    H251353   2.698   6.217  12.918 -0.0551 -0.3425 -0.8646
 9980TIP3   OH251354   5.489   6.440  10.922 -0.2773 -0.1090  0.0205
 9980TIP3    H151355   5.448   6.404  10.844 -2.8611  2.6602 -0.0660
 9980TIP3    H251356   5.470   6.376  10.991 -1.9730 -0.4571 -0.7214
 9981TIP3   OH251357   1.582   4.470   5.730 -0.1637  0.1956 -0.5058
 9981TIP3    H151358   1.566   4.380   5.761 -0.1698  0.8010  1.3267
 9981TIP3    H251359   1.676   4.483   5.741 -0.6216  1.6433  2.9486
 9982TIP3   OH251360   4.188   0.045   1.981 -0.1661  0.2579 -0.2589
 9982TIP3    H151361   4.152   0.110   1.920 -1.0613  0.6316  0.6234
 9982TIP3    H251362   4.223   0.098   2.053  0.7609 -0.1805 -0.3805
 9983TIP3   OH251363   3.723   4.570   5.445  0.3728 -0.4399 -0.0449
 9983TIP3    H151364   3.664   4.495   5.440  0.9326 -1.3374  3.9036
 9983TIP3    H251365   3.810   4.532   5.455  1.3173  0.8548 -2.4251
 9984TIP3   OH251366   6.141   4.782   3.845 -0.3237 -0.2849  0.0206
 9984TIP3    H151367   6.211   4.845   3.860  0.1428 -1.1093  1.4282
 9984TIP3    H251368   6.175   4.723   3.778 -0.0345 -0.1723  0.0701
 9985TIP3   OH251369   6.197   4.284  11.770  0.3844 -0.3521  0.1623
 9985TIP3    H151370   6.245   4.315  11.847  2.4500 -2.9110  0.0654
 9985TIP3    H251371   6.143   4.212  11.804  0.1193 -0.4706 -0.4997
 9986TIP3   OH251372   0.366   4.152  13.834 -0.2204 -0.2595 -0.2557
 9986TIP3    H151373   0.383   4.235  13.790  1.1473 -0.8318 -0.8581
 9986TIP3    H251374   0.326   4.177  13.917  0.7287  1.0394 -0.1595
 9987TIP3   OH251375   4.763   0.498   2.546 -0.4841  0.5620 -0.4270
 9987TIP3    H151376   4.829   0.516   2.613  0.8934 -1.3114 -1.1705
 9987TIP3    H251377   4.687   0.465   2.594 -0.3504  1.3591  0.3457
 9988TIP3   OH251378   2.175   3.383  10.861 -0.5069  0.0123  0.2338
 9988TIP3    H151379   2.178   3.332  10.942  0.5943 -0.3589 -0.0254
 9988TIP3    H251380   2.266   3.405  10.843 -0.8375  0.9245 -0.3925
 9989TIP3   OH251381   5.384   6.010   0.279 -0.8905 -0.0081  0.7654
 9989TIP3    H151382   5.307   6.057   0.247 -0.8247  0.6768  1.5674
 9989TIP3    H251383   5.429   6.073   0.336 -1.1716 -1.2345  2.4361
 9990TIP3   OH251384   6.311   4.818   3.110  0.4437 -0.1890 -0.0330
 9990TIP3    H151385   6.321   4.877   3.185  1.8225 -0.8623  0.3421
 9990TIP3    H251386   6.249   4.863   3.052  0.9320  1.2974  0.5534
 9991TIP3   OH251387   6.574   2.464   6.126  0.0106  0.2515  0.2763
 9991TIP3    H151388   6.509   2.420   6.180 -1.1984  0.2602 -1.1306
 9991TIP3    H251389   6.569   2.421   6.041 -0.9326  2.7421 -1.0400
 9992TIP3   OH251390   3.762   6.233   5.770  0.2814 -0.0196 -0.2364
 9992TIP3    H151391   3.822   6.261   5.700 -0.1621 -0.6462 -0.8865
 9992TIP3    H251392   3.690   6.296   5.766  0.7048  0.5054  0.2903
 9993TIP3   OH251393   1.401   2.801  15.185 -0.2749  0.0456  0.7358
 9993TIP3    H151394   1.411   2.819  15.279  0.4268 -1.8415  1.0742
 9993TIP3    H251395   1.335   2.732  15.181 -3.1363  2.6406 -0.5047
 9994TIP3   OH251396   3.518   4.176  12.335  0.0899  0.1198  0.0834
 9994TIP3    H151397   3.501   4.083  12.344 -0.3094 -0.1118 -2.2880
 9994TIP3    H251398   3.454   4.219  12.391 -0.0418 -1.0117  0.8130
 9995TIP3   OH251399   0.613   0.549   2.829  0.5683 -0.1624 -0.1262
 9995TIP3    H151400   0.612   0.535   2.734  1.7446  0.1848 -0.2006
 9995TIP3    H251401   0.688   0.498   2.860  1.7792  1.7521  0.2659
 9996TIP3   OH251402   2.608   3.205  15.636  0.4670  1.1310 -0.0760
 9996TIP3    H151403   2.633   3.143  15.705  0.6404 -0.4116 -1.4685
 9996TIP3    H251404   2.517   3.227  15.655  0.3249  0.2454  0.3004
 9997TIP3   OH251405   5.505   1.169  14.134  0.0294  0.2065 -0.1450
 9997TIP3    H151406   5.570   1.171  14.205 -0.9043 -0.9554  0.7828
 9997TIP3    H251407   5.500   1.260  14.103 -1.1517  1.2479  2.7880
 9998TIP3   OH251408   2.475   2.070  11.464 -0.6110 -0.1929  0.1484
 9998TIP3    H151409   2.417   2.035  11.532 -1.5126  1.4966  0.2900
 9998TIP3    H251410   2.563   2.061  11.501 -0.6233 -3.3440 -0.3111
 9999TIP3   OH251411   1.274   3.549  16.922  0.1055 -0.6157 -0.0456
 9999TIP3    H151412   1.302   3.641  16.914 -1.5044 -0.0220  0.6783
 9999TIP3    H251413   1.355   3.500  16.929  1.0057  0.7851 -0.1707
10000TIP3   OH251414   3.834   6.285   6.044 -0.2492 -0.1999 -0.2810
10000TIP3    H151415   3.770   6.345   6.083 -1.5153 -1.0879 -0.9378
10000TIP3    H251416   3.783   6.211   6.014  1.1558 -1.1482 -0.4559
10001TIP3   OH251417   3.186   1.152  14.169  0.0008 -0.3790 -0.2937
10001TIP3    H151418   3.105   1.203  14.174  0.6095  0.5949 -0.1298
10001TIP3    H251419   3.250   1.204  14.215  1.3849  0.1508 -2.6561
10002TIP3   OH251420   0.255   2.789   2.786  0.5304  0.7211  0.0888
10002TIP3    H151421   0.221   2.782   2.697  3.3003 -0.2880 -0.9931
10002TIP3    H251422   0.202   2.726   2.836  0.1622 -0.0717 -1.2513
10003TIP3   OH251423   0.759   5.590   0.800 -0.3507  0.2141  0.2742
10003TIP3    H151424   0.748   5.558   0.710 -1.3299  0.7705  0.1813
10003TIP3    H251425   0.671   5.612   0.829 -0.1589 -0.7657  1.6956
10004TIP3   OH251426   4.115   0.193   1.189 -0.4121 -0.1009 -1.1149
10004TIP3    H151427   4.154   0.193   1.102  0.5010 -1.0875 -0.7326
10004TIP3    H251428   4.190   0.188   1.248 -1.0309  0.3213 -0.2768
10005TIP3   OH251429   0.394   5.852   4.219 -0.3016 -0.5723 -0.7328
10005TIP3    H151430   0.326   5.860   4.286 -0.6569 -0.2901 -1.1200
10005TIP3    H251431   0.398   5.939   4.179  1.0626 -0.2633  0.0219
10006TIP3   OH251432   2.853   4.377  13.630  0.0128 -0.5188 -0.9321
10006TIP3    H151433   2.760   4.398  13.620  0.5740  2.0172 -1.5052
10006TIP3    H251434   2.880   4.344  13.545 -0.0330  0.2947 -1.2725
10007TIP3   OH251435   3.032   3.993  13.239 -0.5680 -0.1851  0.0795
10007TIP3    H151436   3.037   3.906  13.279  0.1035  0.6926  2.0274
10007TIP3    H251437   3.121   4.011  13.210  0.1404  1.2137  2.8604
10008TIP3   OH251438   0.314   6.468  12.913  0.0620 -0.6344  0.6063
10008TIP3    H151439   0.389   6.492  12.967  0.8119  0.7480 -0.9741
10008TIP3    H251440   0.244   6.451  12.976  1.3656 -0.8319  2.0675
10009TIP3   OH251441   4.331   5.982   6.877  0.4485  0.1752 -0.2400
10009TIP3    H151442   4.378   5.922   6.819 -0.6586  0.2431 -1.2459
10009TIP3    H251443   4.270   5.926   6.925 -1.1427  0.5325 -1.7452
10010TIP3   OH251444   4.994   2.970  15.071 -0.1204  0.2664  0.4942
10010TIP3    H151445   5.063   2.956  15.007  0.0444 -0.6261  0.8501
10010TIP3    H251446   4.975   2.882  15.105  1.2441  0.8878  3.1541
10011TIP3   OH251447   0.181   1.096  15.213 -0.2665  0.0044 -1.2341
10011TIP3    H151448   0.089   1.123  15.215 -0.5112 -0.8105 -0.8932
10011TIP3    H251449   0.185   1.023  15.275  1.0685  1.4250  0.4616
10012TIP3   OH251450   5.071   0.960   0.929  0.1271 -0.0629 -0.0852
10012TIP3    H151451   5.060   0.937   0.837 -1.2508  0.1897 -0.0136
10012TIP3    H251452   4.991   1.009   0.951  1.6383  2.3146  0.5136
10013TIP3   OH251453   3.505   1.804   0.360  0.0816  0.0634 -0.3806
10013TIP3    H151454   3.491   1.741   0.290  0.5170 -1.8463  1.1487
10013TIP3    H251455   3.600   1.812   0.367  0.0834 -0.7481  0.7762
10014TIP3   OH251456   0.409   5.181   1.362  0.3238  0.1140  0.1481
10014TIP3    H151457   0.348   5.172   1.289 -0.2301  0.8837  0.5066
10014TIP3    H251458   0.355   5.175   1.440  1.0888 -2.0930  0.5639
10015TIP3   OH251459   2.359   2.661  11.562 -0.8565 -0.3245 -0.2793
10015TIP3    H151460   2.268   2.669  11.532 -0.2421  1.9514 -1.7596
10015TIP3    H251461   2.387   2.751  11.578  1.1435 -0.9817  0.1918
10016TIP3   OH251462   4.484   6.501   1.880 -0.6819 -0.5937 -0.4736
10016TIP3    H151463   4.462   6.570   1.818  0.0211 -0.8715 -1.0348
10016TIP3    H251464   4.551   6.540   1.937  0.9129 -1.3070 -1.7962
10017TIP3   OH251465   3.287   5.490   1.696 -0.2849 -0.8209  0.0280
10017TIP3    H151466   3.294   5.581   1.664 -0.0071 -0.4914  1.0039
10017TIP3    H251467   3.377   5.459   1.699 -0.3439 -0.9789  0.1256
10018TIP3   OH251468   5.835   1.019  14.568  0.0741 -0.3609  0.1653
10018TIP3    H151469   5.859   1.073  14.643  0.2753 -0.1603 -0.0417
10018TIP3    H251470   5.743   0.999  14.581 -0.0795  0.2773  0.0897
10019TIP3   OH251471   3.718   2.799   4.321 -0.0552  0.6271  0.4554
10019TIP3    H151472   3.718   2.860   4.394 -2.4595  1.5263 -0.1748
10019TIP3    H251473   3.634   2.753   4.329  0.9760 -1.4350 -0.0424
10020TIP3   OH251474   4.287   0.865   1.753 -0.1218 -0.3268 -0.4250
10020TIP3    H151475   4.339   0.834   1.827 -1.1335 -1.7231 -0.2635
10020TIP3    H251476   4.324   0.819   1.677  1.5136  1.7863 -0.9907
10021TIP3   OH251477   5.507   4.431   5.180 -0.1000  0.1357 -0.2877
10021TIP3    H151478   5.458   4.351   5.159  0.4915  0.0037 -1.2145
10021TIP3    H251479   5.440   4.492   5.211 -1.0271  0.2858 -2.4523
10022TIP3   OH251480   6.245   2.046  15.218  0.4972 -0.0540  0.0773
10022TIP3    H151481   6.338   2.024  15.208  0.4986 -1.1926  2.0960
10022TIP3    H251482   6.198   1.965  15.201 -0.0302  0.1459  0.5350
10023TIP3   OH251483   2.675   5.164   2.871 -0.0842 -0.0829 -0.0836
10023TIP3    H151484   2.754   5.180   2.922  1.0024 -1.3337 -1.3123
10023TIP3    H251485   2.604   5.174   2.935  0.8479  2.9093  0.6478
10024TIP3   OH251486   2.164   6.499   1.459  0.1991  0.3122 -0.0047
10024TIP3    H151487   2.085   6.515   1.511 -0.0656 -0.2276 -0.2258
10024TIP3    H251488   2.214   6.435   1.510  0.8520  1.1998  0.4837
10025TIP3   OH251489   1.842   2.544   1.374 -0.3306  0.0585  0.1214
10025TIP3    H151490   1.842   2.581   1.462 -0.0708  2.8887 -0.9559
10025TIP3    H251491   1.763   2.580   1.334  0.2049 -0.1512 -1.1598
10026TIP3   OH251492   2.460   2.413   4.239  0.5806 -0.4975 -0.1148
10026TIP3    H151493   2.545   2.412   4.284  0.2679 -0.7066  0.4687
10026TIP3    H251494   2.442   2.321   4.220  0.8314 -0.3897 -0.9021
10027TIP3   OH251495   6.124   4.308  13.588  0.3034  0.2513 -0.0712
10027TIP3    H151496   6.161   4.306  13.676  1.9235  1.5192 -0.6769
10027TIP3    H251497   6.092   4.398  13.577 -0.2341 -0.0008 -0.6572
10028TIP3   OH251498   3.431   5.493   0.857 -0.3034  0.0707  0.2220
10028TIP3    H151499   3.475   5.533   0.782 -0.7917 -1.0582 -0.7039
10028TIP3    H251500   3.464   5.541   0.933  1.1271  0.4589 -0.6017
10029TIP3   OH251501   2.157   3.414   3.565 -0.2498  0.0021 -0.2723
10029TIP3    H151502   2.134   3.406   3.657 -0.2059 -0.0938 -0.2696
10029TIP3    H251503   2.252   3.404   3.563 -0.1807  0.5925 -0.2599
10030TIP3   OH251504   4.665   1.953   4.094 -0.0093 -0.3876  0.3822
10030TIP3    H151505   4.604   1.885   4.121 -0.7844  0.7314  1.5345
10030TIP3    H251506   4.641   2.029   4.146  1.3236  0.5599 -0.3329
10031TIP3   OH251507   0.753   1.162  14.705  0.5314 -0.0794 -0.2537
10031TIP3    H151508   0.765   1.185  14.613 -0.1782 -2.1758 -0.9188
10031TIP3    H251509   0.658   1.161  14.717  0.5529  3.0206  1.3513
10032TIP3   OH251510   6.473   1.907  13.353 -0.2411 -0.2707 -0.8140
10032TIP3    H151511   6.483   1.842  13.284 -1.8328 -1.9228  0.4209
10032TIP3    H251512   6.381   1.933  13.348 -0.0189  0.6861 -0.2381
10033TIP3   OH251513   5.336   5.767  14.809  0.8952 -0.0348 -0.3163
10033TIP3    H151514   5.320   5.677  14.780  0.5503  0.4153 -1.6068
10033TIP3    H251515   5.338   5.817  14.728 -0.1936  1.3225  0.4609
10034TIP3   OH251516   3.770   2.789  16.384 -0.6002  0.2233  0.1701
10034TIP3    H151517   3.688   2.783  16.336 -1.0916 -0.1660  1.0435
10034TIP3    H251518   3.744   2.795  16.476  0.1617  3.8437  0.3195
10035TIP3   OH251519   2.026   0.069   2.737  0.0767 -0.1609 -0.3826
10035TIP3    H151520   2.055   0.151   2.776 -2.0047  0.8850 -0.8917
10035TIP3    H251521   2.096   0.044   2.677  0.2528  1.8481 -1.0690
10036TIP3   OH251522   3.690   5.453  16.272 -0.1692 -0.2124  0.5980
10036TIP3    H151523   3.670   5.360  16.274 -1.3678 -0.0960 -1.7937
10036TIP3    H251524   3.604   5.495  16.258  0.3789  1.2184  1.3451
10037TIP3   OH251525   2.496   5.490  12.846  0.1031 -0.1247  0.6531
10037TIP3    H151526   2.549   5.472  12.768  1.7089  1.4810  1.2911
10037TIP3    H251527   2.553   5.464  12.919  0.2339  1.9550  1.3754
10038TIP3   OH251528   2.733   3.001  12.772  0.3129 -0.1966  0.4156
10038TIP3    H151529   2.658   2.943  12.760  1.7052 -1.7356 -1.7036
10038TIP3    H251530   2.731   3.059  12.696 -0.2169  1.6701  1.7622
10039TIP3   OH251531   1.732   3.518   0.685  0.3980 -0.6491 -0.0745
10039TIP3    H151532   1.784   3.499   0.763 -0.1247  0.8417  0.6722
10039TIP3    H251533   1.784   3.582   0.637 -1.2981  2.0263  1.4259
10040TIP3   OH251534   3.361   3.638   3.529 -0.2986  0.0422  0.0856
10040TIP3    H151535   3.445   3.658   3.571 -0.2747 -0.2520  0.1793
10040TIP3    H251536   3.384   3.578   3.458  0.1944  3.3536 -2.7762
10041TIP3   OH251537   2.785   6.470  17.061  0.2536 -0.4532 -0.2373
10041TIP3    H151538   2.702   6.432  17.090  0.9831 -1.7969  0.1856
10041TIP3    H251539   2.850   6.432  17.120  1.2124  0.3444 -0.7529
10042TIP3   OH251540   3.705   3.657  16.770  0.2218  0.0406 -0.0015
10042TIP3    H151541   3.708   3.563  16.786 -0.5941 -0.0826 -0.4855
10042TIP3    H251542   3.794   3.680  16.743  0.2325 -0.7443 -0.6669
10043TIP3   OH251543   1.633   3.399   6.686 -0.6443 -0.2533 -0.3763
10043TIP3    H151544   1.629   3.464   6.616 -2.0298 -0.4373 -0.5019
10043TIP3    H251545   1.576   3.435   6.755  0.0262 -0.4758  0.3052
10044TIP3   OH251546   4.002   6.292  13.996 -0.0880 -0.7938 -0.0927
10044TIP3    H151547   3.909   6.270  14.002 -0.6053  1.2063 -0.0202
10044TIP3    H251548   4.014   6.317  13.905 -0.1387  0.9412  0.3529
10045TIP3   OH251549   0.982   1.729  14.633 -0.4775 -0.1189 -0.2404
10045TIP3    H151550   0.913   1.765  14.578 -1.4859  0.7069  1.4980
10045TIP3    H251551   1.059   1.727  14.576 -1.1934  1.7537 -1.3503
10046TIP3   OH251552   4.062   4.885  14.394 -0.4245  0.5175 -0.0266
10046TIP3    H151553   4.028   4.861  14.307 -3.1446 -3.0443  1.7605
10046TIP3    H251554   4.000   4.950  14.427 -0.2252  0.7914 -0.1875
10047TIP3   OH251555   3.829   0.968  16.492  0.8793 -0.0672 -0.7461
10047TIP3    H151556   3.889   1.007  16.428  3.0117  0.3412  1.3382
10047TIP3    H251557   3.861   0.879  16.504  0.6243 -0.0812 -0.1373
10048TIP3   OH251558   2.708   3.448  13.837 -0.0143  0.7711  0.2851
10048TIP3    H151559   2.691   3.438  13.930 -0.1510 -1.3834  0.0953
10048TIP3    H251560   2.663   3.373  13.797 -0.2449  1.8288 -1.5558
10049TIP3   OH251561   6.700   2.092   1.006 -0.2664 -0.1115 -0.0993
10049TIP3    H151562   6.727   2.133   1.088  1.0370  0.7916 -0.9376
10049TIP3    H251563   6.749   2.139   0.939 -0.3367 -1.6712 -1.2912
10050TIP3   OH251564   3.959   2.489  16.952 -0.3086  0.0621 -0.4758
10050TIP3    H151565   4.049   2.460  16.969 -0.3563 -0.0181 -0.3620
10050TIP3    H251566   3.969   2.573  16.907 -0.1582 -0.3105 -1.1490
10051TIP3   OH251567   5.387   0.030   2.692 -0.0729  0.5679 -0.1373
10051TIP3    H151568   5.308   0.028   2.638  0.2990  1.2842 -0.7304
10051TIP3    H251569   5.354   0.030   2.782 -0.7279  0.2202 -0.3708
10052TIP3   OH251570   6.168   1.551  13.488  0.1344 -0.1846  0.0525
10052TIP3    H151571   6.103   1.507  13.542 -0.1116  0.4060  0.2434
10052TIP3    H251572   6.222   1.600  13.550 -1.0816  1.7285 -0.3175
10053TIP3   OH251573   6.304   0.518   2.866  0.3693  0.1518 -0.2712
10053TIP3    H151574   6.323   0.599   2.914  1.0174  0.1549 -0.5257
10053TIP3    H251575   6.210   0.504   2.880 -0.0204  1.6072 -1.2175
10054TIP3   OH251576   1.261   3.970   1.964 -0.4965 -0.4010 -0.2020
10054TIP3    H151577   1.248   4.058   1.930  1.9880 -0.7180 -2.1697
10054TIP3    H251578   1.331   3.979   2.028  1.5408 -1.2299 -2.2025
10055TIP3   OH251579   2.443   0.900  13.613  0.3706  0.9702  0.3681
10055TIP3    H151580   2.402   0.865  13.534 -0.9715 -0.9986  1.8379
10055TIP3    H251581   2.511   0.836  13.635 -0.2884  0.6588  1.6114
10056TIP3   OH251582   6.458   2.044  12.984  0.0064 -0.5971  0.7992
10056TIP3    H151583   6.488   1.968  13.034 -0.0295 -0.6864  0.6853
10056TIP3    H251584   6.536   2.073  12.936  0.6559  0.8814  2.6335
10057TIP3   OH251585   5.233   0.935   6.263 -0.0840 -0.6678  0.0124
10057TIP3    H151586   5.236   0.887   6.346 -1.0004  0.0932  0.5054
10057TIP3    H251587   5.315   0.983   6.260  0.2927 -1.2966  0.1051
10058TIP3   OH251588   0.551   6.608  13.841  0.2348 -0.2073  0.0533
10058TIP3    H151589   0.480   6.546  13.822 -0.2856  0.9281 -2.0143
10058TIP3    H251590   0.627   6.571  13.798  1.0216 -1.4602  2.3291
10059TIP3   OH251591   3.956   1.253   1.113 -0.5302 -0.0127  0.5566
10059TIP3    H151592   3.910   1.241   1.195 -1.0960 -1.5224  0.0537
10059TIP3    H251593   4.031   1.194   1.118 -0.1759  0.3988  0.2579
10060TIP3   OH251594   6.064   0.947  16.742 -0.1257  0.0126  0.6652
10060TIP3    H151595   6.129   0.895  16.789 -1.1324 -0.4593  1.5772
10060TIP3    H251596   6.089   1.038  16.759  2.2871 -0.0680 -1.8159
10061TIP3   OH251597   4.220   1.724  16.728  0.2474 -0.0208  0.1651
10061TIP3    H151598   4.257   1.796  16.779  0.9942 -0.5241  0.3452
10061TIP3    H251599   4.165   1.767  16.662  0.9420  0.7253  0.0601
10062TIP3   OH251600   0.236   2.059  12.360  0.2891 -0.4227  0.3353
10062TIP3    H151601   0.316   2.032  12.406  0.6746 -1.4849 -0.8942
10062TIP3    H251602   0.214   1.984  12.305 -0.5340  0.5451 -0.6951
10063TIP3   OH251603   2.228   1.500   6.098 -0.1947 -0.3058  0.1985
10063TIP3    H151604   2.319   1.527   6.092 -0.2299 -0.3460 -0.6589
10063TIP3    H251605   2.179   1.582   6.110 -0.4752  0.3951 -4.1342
10064TIP3   OH251606   6.389   0.063  14.536 -0.6323 -0.4844 -0.1490
10064TIP3    H151607   6.298   0.088  14.525 -0.8326  0.3297  2.7249
10064TIP3    H251608   6.425   0.127  14.597  1.4845 -1.6289 -0.0908
10065TIP3   OH251609   0.512   4.865   1.522 -0.6862 -0.5285  0.2456
10065TIP3    H151610   0.580   4.902   1.466 -0.5144  3.0659  2.5257
10065TIP3    H251611   0.552   4.788   1.562  2.3072  1.6581  1.7908
10066TIP3   OH251612   4.256   5.560  11.592  0.0667 -0.4238  0.1124
10066TIP3    H151613   4.217   5.603  11.516 -0.4986 -0.8211  0.1738
10066TIP3    H251614   4.308   5.628  11.633 -1.0102  0.2908  0.3422
10067TIP3   OH251615   3.615   0.817  17.061 -0.2358 -0.1422  0.4016
10067TIP3    H151616   3.675   0.876  17.107 -0.4594 -0.8961  1.7198
10067TIP3    H251617   3.618   0.846  16.970  2.4416 -0.3913  0.3195
10068TIP3   OH251618   4.093   2.065   0.083  0.1501 -0.0262 -0.2146
10068TIP3    H151619   4.020   2.005   0.093 -0.0210  0.0648 -0.8788
10068TIP3    H251620   4.168   2.008   0.061 -0.2934  0.0862 -2.1927
10069TIP3   OH251621   0.338   0.099   2.592  0.7690  0.5523  0.4395
10069TIP3    H151622   0.328   0.072   2.683  1.4317 -1.0839  0.0673
10069TIP3    H251623   0.285   0.179   2.584 -0.9236 -0.3590  1.7717
10070TIP3   OH251624   6.243   0.294   4.216  0.1244  0.8785  0.4791
10070TIP3    H151625   6.269   0.264   4.303 -2.0109  2.7959  1.8728
10070TIP3    H251626   6.324   0.287   4.164  0.6654 -3.6461  1.5177
10071TIP3   OH251627   2.871   4.387   0.240 -0.5803  0.1531 -0.1752
10071TIP3    H151628   2.780   4.408   0.223 -0.6190  0.3465  0.2497
10071TIP3    H251629   2.888   4.307   0.190 -1.0854 -0.0906  0.0402
10072TIP3   OH251630   6.064   6.362  16.995 -0.0977  0.0418 -0.5814
10072TIP3    H151631   6.136   6.306  16.965 -2.1280 -1.9274 -2.1355
10072TIP3    H251632   6.015   6.383  16.916 -2.0349  0.1132  0.5558
10073TIP3   OH251633   2.331   6.597  13.044 -0.1045  0.3236 -0.2648
10073TIP3    H151634   2.335   6.691  13.062 -0.0656  0.2943 -0.1217
10073TIP3    H251635   2.255   6.587  12.986 -0.4551  0.3694  0.1848
10074TIP3   OH251636   4.425   0.646   4.656  0.8065  0.2871 -0.0211
10074TIP3    H151637   4.466   0.694   4.584  0.2267  0.0650 -0.5125
10074TIP3    H251638   4.485   0.574   4.674  0.6279 -0.0525 -0.7497
10075TIP3   OH251639   0.021   1.596  12.427  0.1397  0.1129 -0.3227
10075TIP3    H151640  -0.052   1.549  12.468 -0.9328  2.0348  0.1041
10075TIP3    H251641  -0.018   1.637  12.350  0.4329  2.1513  0.5632
10076TIP3   OH251642   0.084   4.149   6.454 -0.0738  0.1907 -0.0441
10076TIP3    H151643  -0.004   4.125   6.424 -0.2700  1.3968 -0.4948
10076TIP3    H251644   0.074   4.238   6.487  0.6377 -0.2686  1.4924
10077TIP3   OH251645   1.695   4.245  14.141 -0.5893 -0.0918  0.3900
10077TIP3    H151646   1.686   4.163  14.092  0.2451 -0.2455  0.4736
10077TIP3    H251647   1.787   4.246  14.168 -0.4274  1.1769 -0.1452
10078TIP3   OH251648   4.204   5.525   4.786  0.8385 -0.5084 -0.4954
10078TIP3    H151649   4.137   5.513   4.854  0.7163  1.5102 -0.1982
10078TIP3    H251650   4.154   5.532   4.705  0.2922  3.3339 -0.0455
10079TIP3   OH251651   5.068   6.299   5.879 -0.1847 -0.0362  0.2501
10079TIP3    H151652   5.150   6.273   5.921 -0.0117  0.4516  0.2226
10079TIP3    H251653   5.092   6.376   5.827 -0.3378 -0.7631 -0.9351
10080TIP3   OH251654   3.240   5.320  15.582 -0.3760 -0.0699 -0.1283
10080TIP3    H151655   3.290   5.254  15.630 -1.2475  0.4926  1.6224
10080TIP3    H251656   3.256   5.402  15.628 -1.2116  0.5010 -0.8170
10081TIP3   OH251657   1.190   2.524   3.325 -0.2528  0.2612  0.3725
10081TIP3    H151658   1.197   2.516   3.420  0.2676  0.9386  0.4022
10081TIP3    H251659   1.279   2.506   3.293 -0.2825  0.6294  0.0730
10082TIP3   OH251660   0.927   0.764  11.633 -0.0807 -0.4939  0.1967
10082TIP3    H151661   0.908   0.727  11.547 -0.7929  1.4636 -0.5373
10082TIP3    H251662   0.997   0.828  11.617 -1.5891  1.3563  0.6538
10083TIP3   OH251663   3.497   0.789  15.545 -0.2052 -0.2994 -0.0155
10083TIP3    H151664   3.463   0.722  15.486  0.2185  0.7315 -1.4705
10083TIP3    H251665   3.570   0.829  15.498  0.0947  0.6142  1.1696
10084TIP3   OH251666   0.036   2.668   2.876  0.2431  0.6187 -0.1842
10084TIP3    H151667  -0.044   2.720   2.863  0.9022  1.5035 -0.8091
10084TIP3    H251668   0.006   2.577   2.878 -0.7493  0.9233 -0.6799
10085TIP3   OH251669   2.144   1.636  15.859  0.3616 -0.3155 -0.7637
10085TIP3    H151670   2.124   1.572  15.926  1.2094  1.0536  0.8807
10085TIP3    H251671   2.128   1.591  15.776 -1.6027 -1.7808  0.3293
10086TIP3   OH251672   0.219   1.281   1.182  0.3312  0.3892 -0.5462
10086TIP3    H151673   0.137   1.288   1.134 -0.8703  0.6297  1.4411
10086TIP3    H251674   0.249   1.372   1.191 -0.3550  0.5295  0.5816
10087TIP3   OH251675   1.478   3.686  11.926  0.0922 -0.6094  0.4625
10087TIP3    H151676   1.530   3.721  11.854  1.9254 -0.9659  1.5413
10087TIP3    H251677   1.410   3.752  11.941  1.6173  1.0433  0.4627
10088TIP3   OH251678   3.979   5.961   2.241 -0.2859 -0.0879  0.0327
10088TIP3    H151679   4.046   5.993   2.181 -0.9987 -0.1455 -0.8110
10088TIP3    H251680   3.917   5.914   2.185 -0.1218 -1.5523  1.0278
10089TIP3   OH251681   1.690   5.539   2.191 -0.5328  0.3566 -0.3466
10089TIP3    H151682   1.689   5.570   2.101 -2.6945 -0.3145 -0.6004
10089TIP3    H251683   1.602   5.505   2.206 -0.2934  0.6213  2.0791
10090TIP3   OH251684   5.050   2.493  12.930  0.3515 -0.0574  0.5207
10090TIP3    H151685   5.001   2.574  12.917  0.4499 -0.0830 -0.0094
10090TIP3    H251686   5.127   2.519  12.981  0.2699  0.1423  0.5425
10091TIP3   OH251687   2.248   5.288   2.938  0.3382  0.4071  0.2211
10091TIP3    H151688   2.255   5.317   2.847  1.6041  0.2432  0.2542
10091TIP3    H251689   2.157   5.306   2.962  0.2015  1.1863 -0.8266
10092TIP3   OH251690   5.985   3.030  14.810  0.1584  0.2223  0.4846
10092TIP3    H151691   6.031   3.001  14.888 -0.4450 -2.4955 -0.0926
10092TIP3    H251692   6.036   2.996  14.736  0.1459  1.8490 -0.3348
10093TIP3   OH251693   2.656   4.392  12.916 -0.0561  0.0602 -0.0387
10093TIP3    H151694   2.729   4.381  12.855 -0.2698  0.5342 -0.3852
10093TIP3    H251695   2.622   4.304  12.928  0.0428 -0.0522 -0.5388
10094TIP3   OH251696   1.740   3.410  14.793  0.5732  0.3129  0.0436
10094TIP3    H151697   1.773   3.384  14.707  0.1981 -0.2134  0.0594
10094TIP3    H251698   1.680   3.341  14.819 -0.5641  1.2510  0.0101
10095TIP3   OH251699   2.768   1.065   6.226  0.5076  0.3085  0.2994
10095TIP3    H151700   2.795   1.088   6.137 -0.2534 -0.5151 -0.1573
10095TIP3    H251701   2.833   1.000   6.254  0.3136  0.0034  0.0509
10096TIP3   OH251702   6.021   0.458  15.522  0.2540 -0.2291 -0.4865
10096TIP3    H151703   5.935   0.423  15.540 -0.0567  1.8026  2.8365
10096TIP3    H251704   6.082   0.395  15.560 -0.1250  0.9313  2.2218
10097TIP3   OH251705   0.036   3.799  16.469  0.1581 -0.4475 -0.0580
10097TIP3    H151706   0.030   3.757  16.384 -0.9053  2.1088 -1.3636
10097TIP3    H251707  -0.030   3.869  16.466 -1.5633 -1.6592  3.7437
10098TIP3   OH251708   0.906   4.701   0.566 -0.1353  0.1357 -0.6443
10098TIP3    H151709   0.888   4.733   0.654  0.0811 -0.1967 -0.4763
10098TIP3    H251710   0.938   4.778   0.519  2.4133 -0.2057  0.3331
10099TIP3   OH251711   3.981   2.533   2.716  0.4001  0.0687  0.6895
10099TIP3    H151712   4.018   2.521   2.803  1.2474 -1.5537  0.1396
10099TIP3    H251713   3.909   2.471   2.711 -0.6269  1.2132  0.7360
10100TIP3   OH251714   2.413   2.356  12.961 -0.0557 -0.6146 -0.3080
10100TIP3    H151715   2.399   2.431  13.019 -0.1815  2.0923 -3.5232
10100TIP3    H251716   2.325   2.330  12.935  0.0376  0.4945 -1.8624
10101TIP3   OH251717   1.381   2.751   4.903 -0.0894  0.2118 -0.0690
10101TIP3    H151718   1.371   2.831   4.955  0.8521 -0.4687  1.2151
10101TIP3    H251719   1.467   2.760   4.861 -0.2987  0.1869 -0.5169
10102TIP3   OH251720   1.874   1.374   4.894  0.0585 -0.5120 -0.4458
10102TIP3    H151721   1.842   1.447   4.947  0.6209  0.3232 -1.2259
10102TIP3    H251722   1.855   1.297   4.946 -0.5717  0.1858  0.3931
10103TIP3   OH251723   1.878   1.243   4.383  0.1620  0.5118  0.0538
10103TIP3    H151724   1.918   1.298   4.450  1.2624  1.4358 -1.3067
10103TIP3    H251725   1.785   1.242   4.405  0.1222  2.8642  0.1848
10104TIP3   OH251726   0.984   4.311   0.131 -0.1660 -0.4452 -0.2505
10104TIP3    H151727   0.961   4.219   0.146 -4.4729  0.5285  0.4809
10104TIP3    H251728   0.958   4.328   0.041 -0.9932  0.4131  0.1341
10105TIP3   OH251729   3.672   4.077  14.987  0.1425  0.5710  0.7321
10105TIP3    H151730   3.580   4.064  14.962 -0.1004  2.2000  0.6773
10105TIP3    H251731   3.720   4.009  14.939 -1.0086 -0.2394  0.6851
10106TIP3   OH251732   6.526   1.092   2.941  0.5005 -0.2744  0.3301
10106TIP3    H151733   6.501   1.098   3.033  2.9884 -0.9886  1.1439
10106TIP3    H251734   6.613   1.051   2.942  0.6411 -0.2606 -2.3429
10107TIP3   OH251735   5.332   2.737  14.916  0.2918 -0.2302 -0.2063
10107TIP3    H151736   5.417   2.727  14.874  0.4224 -0.0033  0.0022
10107TIP3    H251737   5.311   2.830  14.905 -0.9060 -0.6673 -2.1278
10108TIP3   OH251738   0.558   5.809  14.824  0.0090 -0.1430 -0.1145
10108TIP3    H151739   0.635   5.803  14.880  0.6284  2.8656 -0.4853
10108TIP3    H251740   0.491   5.757  14.869  1.7912 -1.6435  0.9527
10109TIP3   OH251741   2.810   0.105   0.301  0.3584  0.0351 -0.6731
10109TIP3    H151742   2.852   0.157   0.232  1.8245  0.5637  0.5756
10109TIP3    H251743   2.876   0.042   0.327 -0.6968 -1.1167 -0.7239
10110TIP3   OH251744   2.961   0.316  12.338 -0.5657 -0.3372  0.1119
10110TIP3    H151745   2.869   0.293  12.351 -0.4128  0.1711  2.5765
10110TIP3    H251746   3.000   0.312  12.425  1.9975 -1.4218 -0.9662
10111TIP3   OH251747   2.057   5.596   5.393  0.1364 -0.0580 -0.0920
10111TIP3    H151748   2.107   5.595   5.474  0.5756 -1.7859 -0.3434
10111TIP3    H251749   2.119   5.567   5.326 -0.9012 -1.1893 -0.5977
10112TIP3   OH251750   4.397   1.472   1.081  0.3206  0.2890 -0.2470
10112TIP3    H151751   4.392   1.378   1.066 -0.7757  0.2121  0.4994
10112TIP3    H251752   4.368   1.484   1.171  2.8341  1.1272  0.5336
10113TIP3   OH251753   2.135   5.754  15.687 -0.4516  0.2528 -0.5244
10113TIP3    H151754   2.119   5.663  15.664  1.5150  0.5492 -3.6333
10113TIP3    H251755   2.092   5.804  15.618  0.7303  1.5351 -0.3706
10114TIP3   OH251756   2.053   1.981   4.848  0.5974 -0.2664 -0.2581
10114TIP3    H151757   2.107   1.902   4.853  0.6119 -0.2571 -0.2670
10114TIP3    H251758   2.116   2.053   4.856  0.4316 -0.2571  1.3650
10115TIP3   OH251759   4.742   3.878  14.215  0.5624  0.2292  0.5574
10115TIP3    H151760   4.824   3.925  14.229 -1.8459  4.8217  1.2698
10115TIP3    H251761   4.730   3.827  14.295  2.6240 -0.5957  0.4120
10116TIP3   OH251762   0.532   5.422   0.011  0.3672 -0.2386  0.8252
10116TIP3    H151763   0.616   5.421  -0.033  0.2680 -1.3984  0.6115
10116TIP3    H251764   0.553   5.406   0.103  0.3540 -1.2247  0.6722
10117TIP3   OH251765   6.077   1.496   0.151 -0.2136  0.1193  0.1548
10117TIP3    H151766   6.130   1.487   0.230 -2.8030 -0.7350  1.9193
10117TIP3    H251767   6.135   1.466   0.080  2.2713  1.1333  1.6127
10118TIP3   OH251768   1.614   3.555   1.506 -0.2962  0.1885 -0.3217
10118TIP3    H151769   1.534   3.575   1.458 -0.8579 -0.7676  0.1795
10118TIP3    H251770   1.600   3.466   1.539  0.6283  0.3220  0.4640
10119TIP3   OH251771   1.427   1.715  16.890  0.1453 -0.3510  0.5087
10119TIP3    H151772   1.374   1.646  16.929  1.0017 -0.0550  2.3103
10119TIP3    H251773   1.496   1.669  16.843  1.5355 -0.8388  2.8436
10120TIP3   OH251774   0.103   1.243  12.605  0.2631  0.0174  0.3031
10120TIP3    H151775   0.157   1.308  12.561 -1.7105  2.7021  1.5682
10120TIP3    H251776   0.082   1.282  12.690 -0.4905 -2.6030  1.4514
10121TIP3   OH251777   2.090   5.303   1.432  0.0589  0.1201 -0.1315
10121TIP3    H151778   2.008   5.257   1.451  0.8564 -0.1236  3.3473
10121TIP3    H251779   2.139   5.242   1.376 -0.7252 -1.3128  0.6841
10122TIP3   OH251780   4.337   3.053   3.434  0.4109 -0.2931  0.3595
10122TIP3    H151781   4.242   3.057   3.435  0.3385 -1.6316  1.0513
10122TIP3    H251782   4.362   3.087   3.348 -0.8054 -1.6284 -0.5617
10123TIP3   OH251783   0.071   0.494   0.801  0.1593  0.5621 -0.1233
10123TIP3    H151784   0.143   0.467   0.858  0.1984  1.1931  0.1408
10123TIP3    H251785  -0.008   0.466   0.847  0.2032  0.7638  0.0765
10124TIP3   OH251786   1.933   1.436  11.097  0.6259 -0.2612  0.0050
10124TIP3    H151787   2.001   1.368  11.092  1.0158  0.0810  0.5589
10124TIP3    H251788   1.943   1.486  11.016  0.0852 -1.0950 -0.5866
10125TIP3   OH251789   0.299   3.480   2.784 -1.0183 -0.1212  0.3827
10125TIP3    H151790   0.249   3.399   2.793 -1.8039  0.2011 -0.8629
10125TIP3    H251791   0.235   3.549   2.798 -0.6061  0.2951  0.2136
10126TIP3   OH251792   3.659   6.274   5.100 -0.1202 -0.0166  0.5257
10126TIP3    H151793   3.632   6.343   5.039 -0.1254  1.4166  2.0684
10126TIP3    H251794   3.697   6.206   5.044 -0.3332  1.1262 -1.0844
10127TIP3   OH251795   1.343   6.157   5.861  0.0291 -0.6253  0.9687
10127TIP3    H151796   1.308   6.069   5.866  0.9587 -1.1127 -0.2885
10127TIP3    H251797   1.391   6.158   5.778  1.0448  0.6804  1.5386
10128TIP3   OH251798   2.485   4.092   3.102 -0.5530 -0.0456 -0.4732
10128TIP3    H151799   2.562   4.062   3.150 -0.4042  0.2375 -0.5330
10128TIP3    H251800   2.520   4.152   3.036 -0.8312  0.1373 -0.4537
10129TIP3   OH251801   5.635   1.859  15.511  0.1777 -0.4599 -0.0535
10129TIP3    H151802   5.610   1.924  15.445  2.0311  1.2591  0.8002
10129TIP3    H251803   5.559   1.853  15.569  0.3751  2.0665  0.6054
10130TIP3   OH251804   5.288   0.504  12.055 -0.1558  0.1783  0.1941
10130TIP3    H151805   5.308   0.447  12.129 -0.2338  0.3305  0.3337
10130TIP3    H251806   5.214   0.462  12.011  1.0606 -0.9053 -0.8917
10131TIP3   OH251807   2.086   0.323   4.987  0.0468 -0.0537 -0.5823
10131TIP3    H151808   2.043   0.403   5.019 -0.4112 -0.2175 -0.7866
10131TIP3    H251809   2.016   0.274   4.943  0.3788 -0.4589 -0.6606
10132TIP3   OH251810   2.861   6.138   4.677 -0.1024  0.5746  0.9190
10132TIP3    H151811   2.799   6.212   4.677 -1.1808 -0.2978  0.5402
10132TIP3    H251812   2.844   6.093   4.594  0.2851 -0.3031  1.3056
10133TIP3   OH251813   1.616   5.628   0.078 -0.5441 -0.2070 -0.4006
10133TIP3    H151814   1.573   5.582   0.150  0.8029  0.8492  1.1517
10133TIP3    H251815   1.606   5.721   0.100 -1.4852  0.2365 -2.4423
10134TIP3   OH251816   4.047   1.500   5.969  0.1819 -0.0040 -0.0319
10134TIP3    H151817   4.039   1.593   5.988  1.3796  0.0011  0.5734
10134TIP3    H251818   4.137   1.489   5.938  0.1080 -0.9767  0.0494
10135TIP3   OH251819   3.091   0.488   5.427  0.3396  0.0824  0.5673
10135TIP3    H151820   3.085   0.434   5.505 -0.1429 -1.4939 -0.5225
10135TIP3    H251821   3.157   0.445   5.373 -0.0819  0.5553 -0.3503
10136TIP3   OH251822   1.711   2.241  14.574 -0.3887  0.0552  0.0436
10136TIP3    H151823   1.710   2.321  14.628  1.4870  0.0930  0.1161
10136TIP3    H251824   1.719   2.170  14.638  0.1467 -0.0171 -0.0961
10137TIP3   OH251825   1.324   4.789   6.697 -0.1281 -0.0945 -0.3007
10137TIP3    H151826   1.315   4.882   6.679 -0.4274 -0.3665 -1.6406
10137TIP3    H251827   1.407   4.763   6.657 -0.4184 -0.5558 -0.6184
10138TIP3   OH251828   4.160   2.154  13.579 -0.1162 -0.3034  0.5337
10138TIP3    H151829   4.238   2.115  13.618  0.2739 -0.6103 -0.5365
10138TIP3    H251830   4.188   2.241  13.550  0.1709 -0.8738 -0.9503
10139TIP3   OH251831   4.397   5.491   2.196  0.6422  0.0522  0.2828
10139TIP3    H151832   4.384   5.415   2.253 -0.5560 -0.3712 -0.5375
10139TIP3    H251833   4.371   5.461   2.109 -1.2527  1.8085  0.1891
10140TIP3   OH251834   4.960   4.067  16.679  0.6798 -0.3229  0.4010
10140TIP3    H151835   4.899   3.994  16.685  1.1061 -0.5939  3.8222
10140TIP3    H251836   4.992   4.065  16.589 -0.8285 -3.0711 -0.1906
10141TIP3   OH251837   6.519   1.561  16.457 -0.5130  0.2387  0.4672
10141TIP3    H151838   6.559   1.503  16.521  0.1187  1.5349  1.2961
10141TIP3    H251839   6.572   1.641  16.461 -2.4733  1.5831  0.7558
10142TIP3   OH251840   1.327   1.099  14.569  0.3637 -0.1037 -0.0464
10142TIP3    H151841   1.311   1.194  14.564 -0.9858 -0.3340 -0.4700
10142TIP3    H251842   1.365   1.077  14.484 -1.1461 -0.2377 -0.7197
10143TIP3   OH251843   0.792   4.866  13.546 -1.0013 -0.7300 -0.2106
10143TIP3    H151844   0.869   4.923  13.551  0.0460 -2.0393 -0.8318
10143TIP3    H251845   0.734   4.899  13.614  0.5965 -0.4260  1.0761
10144TIP3   OH251846   3.076   1.808   2.378  0.2918  0.1429 -0.2056
10144TIP3    H151847   3.085   1.743   2.308  0.5397 -0.6688  0.5561
10144TIP3    H251848   3.083   1.757   2.459  0.0881  1.0721  0.4142
10145TIP3   OH251849   4.628   1.660   3.350 -0.2306  0.0117 -0.5534
10145TIP3    H151850   4.706   1.707   3.377  0.5758 -0.6720 -1.6318
10145TIP3    H251851   4.655   1.569   3.344 -1.4000 -0.4071  0.0895
10146TIP3   OH251852   4.275   1.340  10.439 -0.4122  0.1896  0.0494
10146TIP3    H151853   4.264   1.284  10.516  0.5749  0.0029  0.0734
10146TIP3    H251854   4.307   1.423  10.475  1.0383 -0.2246 -0.2156
10147TIP3   OH251855   1.797   0.342  17.083  0.1301  0.0526 -0.0792
10147TIP3    H151856   1.792   0.257  17.038  1.7144 -0.8375  1.3111
10147TIP3    H251857   1.888   0.369  17.071 -0.0312  0.9196  0.6208
10148TIP3   OH251858   1.682   1.627  14.096  0.0611  0.1927  0.6202
10148TIP3    H151859   1.711   1.698  14.038 -0.3658 -0.1491 -0.0245
10148TIP3    H251860   1.598   1.599  14.059 -0.2458 -0.0005  1.4412
10149TIP3   OH251861   0.616   1.954   1.306 -0.4073 -0.0313  0.1598
10149TIP3    H151862   0.531   1.980   1.269 -0.0521  1.5348  0.3876
10149TIP3    H251863   0.679   1.972   1.236  0.1040  1.7346  1.0220
10150TIP3   OH251864   1.606   4.663   5.069  0.0488 -0.1363  0.2335
10150TIP3    H151865   1.699   4.662   5.091 -0.2950 -0.8351  1.7231
10150TIP3    H251866   1.589   4.753   5.041  1.4045 -0.2891 -1.2165
10151TIP3   OH251867   1.525   3.890  12.705  0.2346 -0.1498  0.3437
10151TIP3    H151868   1.582   3.862  12.776 -0.7592  1.8511  2.0273
10151TIP3    H251869   1.532   3.986  12.704 -1.3565  0.0101 -0.8825
10152TIP3   OH251870   3.623   0.460   1.060  0.3101  0.4283  0.2096
10152TIP3    H151871   3.692   0.445   1.123  0.1582  1.4102  0.6268
10152TIP3    H251872   3.555   0.397   1.083  0.6304  0.1728  0.4538
10153TIP3   OH251873   5.028   0.175  15.834 -0.3727 -0.1530 -0.2857
10153TIP3    H151874   5.017   0.269  15.820 -0.3641 -0.5223 -3.7311
10153TIP3    H251875   5.039   0.166  15.928 -0.1324  3.3072  0.1594
10154TIP3   OH251876   4.977   2.219   0.853  0.1912 -0.0131  0.2693
10154TIP3    H151877   4.971   2.196   0.946  1.1582 -2.8034 -0.2539
10154TIP3    H251878   5.040   2.290   0.850 -1.0947  1.2677  1.8606
10155TIP3   OH251879   0.489   1.619   5.522 -0.1348 -0.7140  0.3782
10155TIP3    H151880   0.417   1.644   5.581  0.0728 -1.4526  0.9647
10155TIP3    H251881   0.471   1.527   5.501  0.4510 -0.8015  0.2564
10156TIP3   OH251882   5.417   3.376  13.340 -0.0811  0.0137  0.3434
10156TIP3    H151883   5.411   3.314  13.412  0.7458  1.1243  1.3924
10156TIP3    H251884   5.510   3.396  13.333 -0.5254  2.8276  1.5264
10157TIP3   OH251885   4.592   5.488  16.900 -0.0581  0.0115 -0.6074
10157TIP3    H151886   4.656   5.539  16.850  0.9333 -2.1587 -1.6773
10157TIP3    H251887   4.564   5.547  16.970  2.7557  1.2701 -0.3793
10158TIP3   OH251888   6.336   3.193   5.235  0.6038  0.4284 -0.7631
10158TIP3    H151889   6.275   3.157   5.300 -2.4104 -0.9790 -4.0530
10158TIP3    H251890   6.398   3.122   5.219  0.3678  0.1793 -0.5886
10159TIP3   OH251891   1.878   6.285  16.759 -0.4223 -0.5391 -0.1258
10159TIP3    H151892   1.905   6.331  16.839 -0.4150 -0.4350 -0.1878
10159TIP3    H251893   1.936   6.209  16.754 -1.7542 -1.6917  1.0741
10160TIP3   OH251894   1.713   6.203  11.544 -0.6428 -0.3773  0.2672
10160TIP3    H151895   1.747   6.241  11.463 -1.6358 -0.7131 -0.3178
10160TIP3    H251896   1.780   6.224  11.610 -0.9304  2.0375 -0.0941
10161TIP3   OH251897   0.571   6.381   1.616  0.0580 -0.4093  0.1792
10161TIP3    H151898   0.664   6.371   1.594  0.5720 -1.1074  2.3349
10161TIP3    H251899   0.572   6.435   1.696 -1.3972 -0.3172  0.1550
10162TIP3   OH251900   4.909   5.558   0.807 -0.2720  0.2076  0.0033
10162TIP3    H151901   4.837   5.607   0.845  0.3633  1.7285 -0.6967
10162TIP3    H251902   4.951   5.619   0.747 -0.4965 -1.7161 -2.2436
10163TIP3   OH251903   2.801   4.081   6.480 -0.3500 -0.2414 -0.2535
10163TIP3    H151904   2.805   4.174   6.459  1.0275 -0.1517  0.3211
10163TIP3    H251905   2.761   4.040   6.403  2.0422  0.4079 -1.9429
10164TIP3   OH251906   1.079   5.756   6.401 -0.8986 -0.7083  0.2760
10164TIP3    H151907   0.993   5.733   6.437 -1.6824 -1.3697 -1.8692
10164TIP3    H251908   1.060   5.813   6.327  0.7916  3.1390  2.4784
10165TIP3   OH251909   2.117   5.430   5.880 -0.3195  0.3730 -0.6131
10165TIP3    H151910   2.130   5.400   5.970  0.8620  1.0191 -0.5415
10165TIP3    H251911   2.071   5.358   5.837  1.1858 -0.9719 -0.0957
10166TIP3   OH251912   6.607   4.155   1.831 -0.1779 -0.0536 -0.4076
10166TIP3    H151913   6.535   4.101   1.863  0.5245  1.2590  3.9666
10166TIP3    H251914   6.676   4.093   1.808 -0.9885 -1.1268  0.0109
10167TIP3   OH251915   5.026   5.813   3.116  0.1180 -0.4223  0.1368
10167TIP3    H151916   5.008   5.719   3.122 -0.3130 -0.4860 -1.6494
10167TIP3    H251917   4.970   5.843   3.044  1.6109  0.8599 -0.5278
10168TIP3   OH251918   5.639   4.759  14.674  0.8547  0.0158 -0.1729
10168TIP3    H151919   5.707   4.693  14.658 -0.5822 -1.1219 -2.2307
10168TIP3    H251920   5.567   4.709  14.713 -0.0782  0.4103 -1.3226
10169TIP3   OH251921   5.712   1.509   3.220 -0.2235  0.2667 -0.0662
10169TIP3    H151922   5.777   1.440   3.209  1.0992  1.4363  0.1533
10169TIP3    H251923   5.671   1.490   3.305  0.6858  0.1748  0.3643
10170TIP3   OH251924   0.027   3.748   6.315 -0.6296  1.0031 -0.6099
10170TIP3    H151925  -0.028   3.825   6.325 -2.1020 -0.1214  0.5218
10170TIP3    H251926  -0.001   3.689   6.385 -0.1267 -0.8891 -1.9016
10171TIP3   OH251927   2.140   0.724  13.710 -0.1601  0.4598 -0.0042
10171TIP3    H151928   2.149   0.765  13.796 -0.6000  0.7390 -0.0866
10171TIP3    H251929   2.120   0.796  13.651 -0.1027  0.2376 -0.2995
10172TIP3   OH251930   3.418   1.388  15.897 -0.3260  0.0247  0.2753
10172TIP3    H151931   3.454   1.421  15.814  0.8957  0.0400  0.7826
10172TIP3    H251932   3.471   1.310  15.915  0.2811  0.7305  1.6571
10173TIP3   OH251933   1.845   0.892   0.812  0.8347 -0.1225 -0.3569
10173TIP3    H151934   1.844   0.987   0.801 -1.9598 -0.1666 -1.2507
10173TIP3    H251935   1.814   0.878   0.901  1.9881 -0.2351  0.0511
10174TIP3   OH251936   5.575   5.448  13.649 -0.3186  0.0915 -0.6946
10174TIP3    H151937   5.623   5.476  13.571 -0.8357  0.6249 -0.8356
10174TIP3    H251938   5.633   5.386  13.693  0.2254  0.2431 -1.1907
10175TIP3   OH251939   4.004   3.929  17.361 -0.4832 -0.3767 -0.1061
10175TIP3    H151940   4.022   4.007  17.415 -0.4488  0.2781 -1.0430
10175TIP3    H251941   3.914   3.941  17.331  1.1381  2.3945 -5.0414
10176TIP3   OH251942   3.467   0.444   3.706 -0.0270 -0.0649 -0.3190
10176TIP3    H151943   3.396   0.386   3.679  0.8276 -1.0767 -0.4666
10176TIP3    H251944   3.461   0.447   3.802  0.5334 -1.2409 -0.2279
10177TIP3   OH251945   1.408   6.306  13.755 -0.1952 -0.4284  0.3509
10177TIP3    H151946   1.413   6.307  13.659  0.6962 -0.2576  0.3897
10177TIP3    H251947   1.479   6.248  13.781  0.8584  1.1098  0.9785
10178TIP3   OH251948   2.423   4.676   1.626 -0.4522 -0.2782  0.3447
10178TIP3    H151949   2.412   4.722   1.543 -0.3142 -3.4727 -1.5997
10178TIP3    H251950   2.518   4.676   1.641 -0.5172  0.8374  0.9193
10179TIP3   OH251951   3.912   5.627  15.055  0.2916  0.1906  0.4473
10179TIP3    H151952   3.872   5.708  15.023  1.3924  0.9486  0.9061
10179TIP3    H251953   3.952   5.588  14.978  0.1537  0.3252  0.3063
10180TIP3   OH251954   0.995   2.644   0.071  0.1211 -0.0408 -0.2834
10180TIP3    H151955   0.987   2.627  -0.023  0.7772 -0.8431 -0.2079
10180TIP3    H251956   1.089   2.637   0.088  0.2504  2.0420  0.1035
10181TIP3   OH251957   3.831   4.795   4.758 -0.7798 -0.5441  0.7575
10181TIP3    H151958   3.754   4.768   4.808 -0.6389 -1.5410  0.4504
10181TIP3    H251959   3.801   4.798   4.667 -0.8436  0.5647  0.7957
10182TIP3   OH251960   3.566   2.520  12.452 -0.5357 -0.6042 -0.2407
10182TIP3    H151961   3.616   2.530  12.533 -0.3115 -1.4678 -0.2693
10182TIP3    H251962   3.492   2.580  12.463  0.4004  0.5544 -0.1329
10183TIP3   OH251963   2.111   2.383  11.421  0.0551 -0.1003  0.3861
10183TIP3    H151964   2.113   2.453  11.356 -0.0784 -0.2700  0.2009
10183TIP3    H251965   2.143   2.425  11.501  1.4439 -0.2077 -0.0833
10184TIP3   OH251966   1.371   2.692   5.620  0.3034 -0.0284  0.5877
10184TIP3    H151967   1.283   2.692   5.584 -0.1709 -1.9704  1.6207
10184TIP3    H251968   1.428   2.707   5.545 -0.8251 -0.1988 -0.3260
10185TIP3   OH251969   2.533   0.561   4.512 -0.3956 -0.3099 -0.6086
10185TIP3    H151970   2.628   0.562   4.502 -0.5096 -1.0383 -1.9766
10185TIP3    H251971   2.501   0.511   4.437 -1.6129 -3.2458  1.6537
10186TIP3   OH251972   4.923   4.444   2.740 -0.0556  0.0123 -0.7860
10186TIP3    H151973   4.920   4.377   2.808 -0.8233  0.4550 -0.3758
10186TIP3    H251974   4.832   4.469   2.726  0.2017  0.8299 -1.0737
10187TIP3   OH251975   2.599   1.434  13.072  0.2255 -0.5137 -0.3525
10187TIP3    H151976   2.525   1.439  13.012 -0.0456  1.0939  0.0720
10187TIP3    H251977   2.566   1.383  13.147  0.0153 -1.0219 -0.7823
10188TIP3   OH251978   1.713   0.327   1.555  0.2431  0.1176  0.2870
10188TIP3    H151979   1.780   0.264   1.582 -0.9274 -1.5800 -0.6068
10188TIP3    H251980   1.758   0.384   1.493  0.7940 -1.2335 -0.5914
10189TIP3   OH251981   1.276   6.551  15.304  0.3295  0.3081  0.6590
10189TIP3    H151982   1.278   6.531  15.398  0.7928  0.2516  0.6393
10189TIP3    H251983   1.274   6.466  15.261 -2.3941  0.2919  0.6362
10190TIP3   OH251984   1.046   5.599  13.611  0.4604 -0.2715 -0.2395
10190TIP3    H151985   1.088   5.586  13.526 -0.4297 -0.7762 -0.6191
10190TIP3    H251986   0.957   5.567  13.599  0.4433 -0.7606  1.0116
10191TIP3   OH251987   1.461   1.918   4.330 -0.2670 -0.1718  0.3904
10191TIP3    H151988   1.553   1.898   4.349  0.4893  0.6910 -1.9688
10191TIP3    H251989   1.417   1.833   4.331  0.8774 -0.7910  0.1440
10192TIP3   OH251990   3.894   4.236  12.098  0.7121  0.7997  0.2445
10192TIP3    H151991   3.832   4.293  12.143 -0.4758 -0.0158 -0.3235
10192TIP3    H251992   3.862   4.231  12.008  1.1689 -0.2430  0.1262
10193TIP3   OH251993   4.176   6.419  16.270  0.1277 -0.2119 -0.2137
10193TIP3    H151994   4.223   6.345  16.233 -0.1446  0.1699 -1.3650
10193TIP3    H251995   4.154   6.392  16.359  0.7757 -1.1649 -0.3310
10194TIP3   OH251996   4.914   1.782  13.623  0.7298  0.0389 -0.2688
10194TIP3    H151997   4.821   1.790  13.605  0.3365 -1.8669  0.6643
10194TIP3    H251998   4.952   1.752  13.541  0.6284  1.2810 -0.7897
10195TIP3   OH251999   3.206   2.924  11.167 -0.4892 -0.1609  0.4783
10195TIP3    H152000   3.175   2.853  11.224  0.2566 -0.3852  0.6187
10195TIP3    H252001   3.187   3.004  11.215 -0.1335 -0.3353  0.9137
10196TIP3   OH252002   1.076   6.139   1.306 -0.8592  0.9565 -0.4597
10196TIP3    H152003   1.042   6.199   1.374 -1.2764 -1.7706  1.9296
10196TIP3    H252004   1.013   6.146   1.235 -2.2496  1.5857  0.7645
10197TIP3   OH252005   1.965   5.857   5.361 -0.3507  0.1990 -0.2307
10197TIP3    H152006   2.000   5.772   5.388  0.6465 -0.1361 -2.3329
10197TIP3    H252007   1.921   5.891   5.439 -0.5851 -2.1285  0.7437
10198TIP3   OH252008   4.365   2.735  12.645  0.6486  0.1929 -0.2794
10198TIP3    H152009   4.403   2.667  12.701 -1.2239  0.9785  2.0816
10198TIP3    H252010   4.336   2.689  12.566  0.7719 -1.4761  0.6271
10199TIP3   OH252011   0.363   2.607  13.581 -0.2228 -0.6052 -0.5187
10199TIP3    H152012   0.296   2.550  13.542  0.1290 -0.1610 -1.7938
10199TIP3    H252013   0.372   2.679  13.520 -2.2350  2.0763  2.0558
10200TIP3   OH252014   1.600   5.563  14.009  0.6709  0.3796  0.2936
10200TIP3    H152015   1.549   5.485  14.032  1.7395 -0.6687 -0.7384
10200TIP3    H252016   1.665   5.571  14.078  0.1497  0.7474  0.7446
10201TIP3   OH252017   0.256   5.285  14.897  0.4592 -0.0998 -0.4227
10201TIP3    H152018   0.177   5.313  14.942 -0.0851  0.6306 -1.7716
10201TIP3    H252019   0.234   5.292  14.804  1.7328 -0.9833 -0.8184
10202TIP3   OH252020   1.873   0.419  14.280 -0.2220  0.3284 -0.1199
10202TIP3    H152021   1.855   0.329  14.253 -0.8948  0.6059 -0.6279
10202TIP3    H252022   1.849   0.472  14.205 -1.0155  1.0326  0.6053
10203TIP3   OH252023   5.821   0.694   2.763  0.5408 -0.3082 -0.2312
10203TIP3    H152024   5.750   0.671   2.702  1.0074 -0.6464 -0.6514
10203TIP3    H252025   5.858   0.609   2.789 -0.0305 -0.2025  0.9839
10204TIP3   OH252026   1.295   0.823  15.678 -0.1178 -0.3003  0.1315
10204TIP3    H152027   1.242   0.891  15.719 -0.3397 -2.1881  3.3340
10204TIP3    H252028   1.239   0.786  15.610 -0.1468  2.2928 -1.3597
10205TIP3   OH252029   5.203   4.736   1.898 -0.3738 -0.2551 -0.2722
10205TIP3    H152030   5.223   4.673   1.828 -1.3353 -1.8119  0.7747
10205TIP3    H252031   5.107   4.732   1.906 -0.2751 -0.1911  1.1865
10206TIP3   OH252032   0.023   4.808   2.927 -0.1229 -0.5162  0.2208
10206TIP3    H152033   0.106   4.822   2.974  0.4792 -1.3293 -0.5568
10206TIP3    H252034   0.020   4.878   2.863  0.1041 -0.6370  0.0742
10207TIP3   OH252035   2.504   0.462   3.728  0.3355 -0.0788  0.4454
10207TIP3    H152036   2.520   0.508   3.811  2.1945 -0.0968  0.1448
10207TIP3    H252037   2.574   0.397   3.723  0.6293  0.3295 -1.4261
10208TIP3   OH252038   3.731   5.833   1.084  0.3938  0.2597 -0.0149
10208TIP3    H152039   3.664   5.764   1.078  0.1850  0.1146  2.7182
10208TIP3    H252040   3.781   5.825   1.002  0.2466 -2.9946  0.0738
10209TIP3   OH252041   4.370   0.849  13.711 -0.8531  0.5220  0.2942
10209TIP3    H152042   4.380   0.939  13.742  0.7100  0.2878  0.5449
10209TIP3    H252043   4.351   0.857  13.618  1.1407  1.0886 -0.0925
10210TIP3   OH252044   2.623   2.203   4.672 -0.3678 -0.4573  0.0696
10210TIP3    H152045   2.673   2.191   4.753 -0.3364  2.2150  0.5565
10210TIP3    H252046   2.684   2.183   4.602  0.1494 -1.0873  0.6894
10211TIP3   OH252047   3.062   3.798   5.095  0.2560 -0.2855  0.2183
10211TIP3    H152048   2.968   3.816   5.100  0.5314  1.0484  1.2467
10211TIP3    H252049   3.101   3.857   5.159  2.1023  1.4081 -2.2441
10212TIP3   OH252050   3.886   3.796   0.405 -0.1440 -0.4897  0.3137
10212TIP3    H152051   3.977   3.814   0.426 -0.1921 -0.9981  1.0047
10212TIP3    H252052   3.871   3.842   0.322  0.3953  0.5765  0.7868
10213TIP3   OH252053   3.281   2.078  12.430  0.1710 -0.4116 -0.4853
10213TIP3    H152054   3.248   2.159  12.469  1.3302 -0.3438  0.4226
10213TIP3    H252055   3.322   2.032  12.503 -2.1954 -2.8203 -0.5129
10214TIP3   OH252056   4.796   4.886   2.306  0.0660 -0.4944 -0.0280
10214TIP3    H152057   4.814   4.872   2.213  1.2923 -4.3418  0.6073
10214TIP3    H252058   4.883   4.890   2.347 -0.3843  3.0190  0.8961
10215TIP3   OH252059   6.005   3.442  12.648 -0.0732  0.2827  0.3932
10215TIP3    H152060   6.078   3.465  12.706 -0.5590  1.5717  0.5471
10215TIP3    H252061   6.034   3.469  12.561 -0.6940  1.6897  0.5915
10216TIP3   OH252062   2.618   3.989  13.421 -0.5621  0.2325 -0.4845
10216TIP3    H152063   2.709   3.965  13.435 -0.6570 -0.6157 -1.2409
10216TIP3    H252064   2.575   3.972  13.505  0.7017  4.6566  1.3440
10217TIP3   OH252065   6.149   5.869   1.701 -0.2409 -0.7039  0.0203
10217TIP3    H152066   6.219   5.806   1.723 -0.1408 -1.7749 -2.9318
10217TIP3    H252067   6.072   5.836   1.747  0.7230 -0.5828  1.8154
10218TIP3   OH252068   5.035   2.146  13.295  0.4501  0.3167  0.7174
10218TIP3    H152069   5.012   2.149  13.202  0.3520  0.4685  0.7463
10218TIP3    H252070   4.951   2.149  13.341  0.4625 -0.3549  0.8020
10219TIP3   OH252071   1.573   0.608  13.944 -0.6891 -0.2910  0.5594
10219TIP3    H152072   1.569   0.591  13.849  1.7513 -0.0356  0.3529
10219TIP3    H252073   1.530   0.693  13.954  1.4548  1.0661 -0.7999
10220TIP3   OH252074   0.311   5.537  14.412 -0.3105  0.1962  0.1114
10220TIP3    H152075   0.322   5.631  14.401 -1.2741  0.2756 -0.1892
10220TIP3    H252076   0.218   5.521  14.401  0.0611 -1.0305 -1.7200
10221TIP3   OH252077   3.142   3.291   4.106 -0.0993 -0.1375 -0.5611
10221TIP3    H152078   3.097   3.219   4.150  0.3318  1.3425  2.5847
10221TIP3    H252079   3.078   3.325   4.043 -1.2392 -1.5851 -0.2275
10222TIP3   OH252080   4.615   3.781  13.365 -0.5754 -0.1384  1.0030
10222TIP3    H152081   4.594   3.851  13.304 -1.3805 -0.3508  1.0194
10222TIP3    H252082   4.596   3.701  13.317  2.5778 -0.4938  0.1327
10223TIP3   OH252083   5.816   5.483  16.314 -0.3134  0.0019 -0.6704
10223TIP3    H152084   5.800   5.528  16.231 -1.4439  0.5838 -0.1639
10223TIP3    H252085   5.812   5.390  16.293  0.4270  0.1377 -1.4409
10224TIP3   OH252086   3.741   1.713  14.476 -0.1530 -0.8352 -0.3497
10224TIP3    H152087   3.685   1.759  14.413  0.6498  2.9981  1.4251
10224TIP3    H252088   3.681   1.662  14.530 -1.4942  0.2070 -0.8023
10225TIP3   OH252089   0.758   0.213  10.752 -0.4500  0.0035  0.3535
10225TIP3    H152090   0.766   0.308  10.739 -0.0117 -0.0421  0.2826
10225TIP3    H252091   0.808   0.196  10.832  0.1643 -0.2894 -0.0934
10226TIP3   OH252092   5.746   6.023   4.102 -0.4429  0.5730 -0.1101
10226TIP3    H152093   5.664   6.058   4.066 -1.0698 -0.6306  0.1182
10226TIP3    H252094   5.813   6.052   4.040 -1.3266 -0.3479 -1.5622
10227TIP3   OH252095   4.045   4.719   6.269 -0.7108  0.3562 -0.2320
10227TIP3    H152096   3.978   4.786   6.257  0.7447  1.8152 -0.5813
10227TIP3    H252097   4.053   4.709   6.364 -1.8731 -0.3499 -0.1873
10228TIP3   OH252098   4.670   3.356   6.396  0.0151 -0.1734  0.0100
10228TIP3    H152099   4.623   3.427   6.351 -1.0356 -0.5734  0.4328
10228TIP3    H252100   4.611   3.281   6.389  0.7837 -0.7990  0.2202
10229TIP3   OH252101   5.304   2.049  14.711 -0.0378 -0.3836 -0.6870
10229TIP3    H152102   5.306   2.141  14.687  0.8420  0.1526  1.2586
10229TIP3    H252103   5.210   2.029  14.722 -0.2568  0.1340 -1.5076
10230TIP3   OH252104   1.521   2.350  16.815  0.0880 -0.6377  0.2504
10230TIP3    H152105   1.600   2.297  16.815 -0.4398 -1.4446  1.1246
10230TIP3    H252106   1.467   2.314  16.885 -1.1290 -0.2134 -0.4291
10231TIP3   OH252107   3.661   3.826   5.962 -0.0251  0.3684  0.4113
10231TIP3    H152108   3.595   3.786   6.018  1.0306 -0.7697  0.9068
10231TIP3    H252109   3.659   3.919   5.985 -1.2016  0.3025  0.6416
10232TIP3   OH252110   4.289   0.935  11.652  0.7193 -0.1239  0.3774
10232TIP3    H152111   4.283   0.843  11.675  1.5949 -0.3586 -0.2898
10232TIP3    H252112   4.279   0.937  11.557 -0.8039  0.6282  0.5175
10233TIP3   OH252113   1.886   6.258  17.408 -0.5127  0.3423  0.6084
10233TIP3    H152114   1.798   6.232  17.432 -0.7967  0.2509 -0.4760
10233TIP3    H252115   1.875   6.342  17.362 -0.1129  0.0549 -0.0361
10234TIP3   OH252116   6.619   4.871  16.166  0.0210 -0.0007  0.2312
10234TIP3    H152117   6.618   4.822  16.084 -2.6817 -0.8556  0.6791
10234TIP3    H252118   6.563   4.820  16.225 -3.3430  3.6232  0.6349
10235TIP3   OH252119   3.565   4.993   5.785  0.8318  0.3462  0.2103
10235TIP3    H152120   3.567   4.966   5.693 -0.6746  0.8526  0.0101
10235TIP3    H252121   3.624   4.932   5.829  0.0907 -1.1230 -0.7740
10236TIP3   OH252122   0.732   2.868  15.526  0.0382  0.0533 -0.3860
10236TIP3    H152123   0.720   2.811  15.602  0.9023  0.7391  0.3060
10236TIP3    H252124   0.725   2.811  15.450  1.6938 -1.1345  0.3111
10237TIP3   OH252125   4.029   0.431  16.043  0.0163  0.1299  0.4522
10237TIP3    H152126   4.049   0.402  15.954 -0.7280  3.0488 -0.7702
10237TIP3    H252127   3.954   0.377  16.069 -0.9723  0.4685 -1.4862
10238TIP3   OH252128   5.596   1.211   5.590 -0.3135 -0.1650  0.3634
10238TIP3    H152129   5.501   1.201   5.598 -0.3935  0.2242 -0.0502
10238TIP3    H252130   5.630   1.121   5.595 -1.0121 -0.7734 -3.3284
10239TIP3   OH252131   3.227   4.154   3.083  0.1548  0.3563 -0.2082
10239TIP3    H152132   3.268   4.238   3.105  0.8080 -0.4736  1.9723
10239TIP3    H252133   3.214   4.158   2.988  2.2165  2.0101 -0.4880
10240TIP3   OH252134   2.929   4.578   3.643  0.3909 -0.2936  0.2871
10240TIP3    H152135   2.973   4.530   3.713 -0.5185 -1.5874  0.0200
10240TIP3    H252136   2.900   4.509   3.582 -1.5135  0.5082  0.1974
10241TIP3   OH252137   5.781   3.441  16.922  0.1922 -0.3624 -0.3952
10241TIP3    H152138   5.748   3.523  16.886  0.4072 -0.4202 -0.7310
10241TIP3    H252139   5.705   3.384  16.926  0.1070 -0.2535 -0.4634
10242TIP3   OH252140   5.513   5.579  16.465  0.5138  0.4355 -0.5077
10242TIP3    H152141   5.479   5.666  16.440  0.0878  0.4293  0.0270
10242TIP3    H252142   5.582   5.561  16.401 -0.6834  0.3225 -1.8286
10243TIP3   OH252143   1.951   0.561   5.071 -0.2477 -0.1883  0.0888
10243TIP3    H152144   1.908   0.611   5.001 -1.0368 -0.6367  0.2393
10243TIP3    H252145   1.894   0.572   5.147 -0.4585 -1.3176  0.1217
10244TIP3   OH252146   3.581   5.530  17.392  0.3009  0.1964  0.0452
10244TIP3    H152147   3.494   5.493  17.406  0.2884  0.0020 -0.4896
10244TIP3    H252148   3.567   5.625  17.388  0.3031  0.2592  1.2301
10245TIP3   OH252149   4.933   4.947   5.900 -0.0677 -0.2987  0.0615
10245TIP3    H152150   4.898   4.865   5.934 -3.4645  1.0232  0.1715
10245TIP3    H252151   4.916   4.943   5.805  1.4403 -0.4460 -0.2158
10246TIP3   OH252152   1.796   2.056   2.147 -0.1808  0.3895 -0.2760
10246TIP3    H152153   1.802   2.024   2.237  1.2065  1.2576 -0.0257
10246TIP3    H252154   1.702   2.070   2.133 -0.4223  0.2801  1.0517
10247TIP3   OH252155   1.625   4.087  12.145  0.3436 -0.6567  0.0686
10247TIP3    H152156   1.559   4.145  12.106  1.2166 -0.5054 -1.2287
10247TIP3    H252157   1.595   3.999  12.123 -0.6144 -0.7183  1.4513
10248TIP3   OH252158   4.894   0.397  13.807 -0.3040  0.3356 -0.4506
10248TIP3    H152159   4.895   0.302  13.814  2.5693  0.2962  0.1877
10248TIP3    H252160   4.882   0.427  13.897 -0.0366  0.5276 -0.4756
10249TIP3   OH252161   1.263   1.311  16.988 -0.3612  0.0571 -0.0607
10249TIP3    H152162   1.176   1.303  16.949 -0.6055 -0.0564  0.5109
10249TIP3    H252163   1.268   1.402  17.018  0.2209  0.4612 -1.2652
10250TIP3   OH252164   5.872   2.712   3.663  0.1624 -0.0057 -0.2524
10250TIP3    H152165   5.801   2.665   3.618  1.4348 -1.7307 -0.5796
10250TIP3    H252166   5.895   2.783   3.603  0.7649 -1.3208 -1.6661
10251TIP3   OH252167   5.841   3.340  15.984  0.2013 -0.0051  0.1311
10251TIP3    H152168   5.910   3.378  15.929 -1.8263  1.9822 -1.2182
10251TIP3    H252169   5.822   3.408  16.049 -1.8893  0.4568 -0.8679
10252TIP3   OH252170   6.358   4.065  13.971 -0.3377  0.2067  0.1159
10252TIP3    H152171   6.421   4.105  13.910  1.4637 -1.2553  0.9175
10252TIP3    H252172   6.273   4.101  13.945  0.4687  0.3171 -2.6843
10253TIP3   OH252173   1.480   0.911   5.260  0.1870  0.0070 -0.1055
10253TIP3    H152174   1.523   0.932   5.177  2.5567  1.2599  1.3386
10253TIP3    H252175   1.541   0.940   5.327 -2.8569  1.7445  2.1767
10254TIP3   OH252176   0.094   4.659  15.520 -0.4553 -0.1019  0.1432
10254TIP3    H152177   0.127   4.579  15.561  0.8519 -0.2306 -1.0829
10254TIP3    H252178   0.170   4.696  15.474 -1.7354  0.1922 -1.8826
10255TIP3   OH252179   2.326   6.018   2.290 -0.1340  0.5159 -0.4735
10255TIP3    H152180   2.410   5.980   2.315 -0.4274  0.2344  0.0825
10255TIP3    H252181   2.301   5.972   2.210 -0.6856 -0.7817  0.4126
10256TIP3   OH252182   2.576   0.587  15.221 -0.1644  0.2795  0.0649
10256TIP3    H152183   2.502   0.644  15.197  0.1785  0.6727 -0.0915
10256TIP3    H252184   2.640   0.603  15.151  0.3540  0.4903  0.5853
10257TIP3   OH252185   6.243   1.460  16.803 -0.3526 -0.0064  0.1609
10257TIP3    H152186   6.315   1.511  16.838 -0.7320 -0.3755  1.5310
10257TIP3    H252187   6.241   1.481  16.710  2.5162 -1.1731 -0.2600
10258TIP3   OH252188   4.011   3.294  12.889 -0.1679  0.0208 -0.1167
10258TIP3    H152189   4.037   3.225  12.950 -0.5479 -0.4305 -0.4531
10258TIP3    H252190   4.040   3.262  12.803  0.4880  0.7105 -0.1654
10259TIP3   OH252191   5.901   6.427  16.518 -0.0113 -0.2735 -0.2794
10259TIP3    H152192   5.897   6.348  16.464 -1.1911  1.0382 -2.2721
10259TIP3    H252193   5.993   6.433  16.545  0.3315 -1.7284 -1.0253
10260TIP3   OH252194   2.138   3.048   3.727 -0.2439 -0.0426  0.0839
10260TIP3    H152195   2.209   3.104   3.698  1.5024 -1.3053  1.6302
10260TIP3    H252196   2.166   2.959   3.704 -1.1349 -0.6047  1.0503
10261TIP3   OH252197   4.184   0.488   1.010 -0.0040  0.3298 -0.1716
10261TIP3    H152198   4.193   0.533   1.094  1.1695  0.0702 -0.1485
10261TIP3    H252199   4.097   0.447   1.015 -0.9577  2.2366 -0.0405
10262TIP3   OH252200   1.250   2.996  12.906 -0.2020 -0.0843 -0.0108
10262TIP3    H152201   1.188   2.959  12.843 -0.1459  0.1838 -0.2274
10262TIP3    H252202   1.275   3.080  12.867 -0.7115  0.4108  0.7119
10263TIP3   OH252203   1.000   3.385  14.245  0.2129  0.1663  0.2056
10263TIP3    H152204   0.925   3.410  14.298  0.0506  0.1117  0.0010
10263TIP3    H252205   0.963   3.335  14.172  0.3660  0.7948 -0.3153
10264TIP3   OH252206   0.978   1.784  11.206 -0.7417  0.4100 -0.1897
10264TIP3    H152207   0.979   1.744  11.119  0.0933  0.0830 -0.0392
10264TIP3    H252208   0.970   1.710  11.266  2.3964  0.2367  0.1720
10265TIP3   OH252209   2.930   2.231   4.469 -0.4691  0.7490 -0.0941
10265TIP3    H152210   2.899   2.162   4.528  0.1171 -0.9785 -1.7154
10265TIP3    H252211   2.995   2.188   4.414  2.1417  3.3052  0.6996
10266TIP3   OH252212   3.776   3.872  14.814  0.2815  0.3535  0.1998
10266TIP3    H152213   3.870   3.872  14.797  0.3495  1.5624  0.4582
10266TIP3    H252214   3.737   3.834  14.736  0.7956  2.6875 -1.2998
10267TIP3   OH252215   1.260   6.603   6.110  0.1112  0.0416  0.1361
10267TIP3    H152216   1.289   6.684   6.152  0.4714  1.1278 -2.0511
10267TIP3    H252217   1.180   6.627   6.064 -0.8911 -1.3951  1.0617
10268TIP3   OH252218   5.101   3.939  12.246  0.1058  0.1126  0.1139
10268TIP3    H152219   5.017   3.904  12.277 -0.1019  0.1771 -0.3595
10268TIP3    H252220   5.147   3.862  12.211  0.0005  0.1661 -0.1507
10269TIP3   OH252221   1.133   3.410  15.409 -0.3040 -0.0879 -0.9825
10269TIP3    H152222   1.132   3.318  15.381  0.2739 -0.0436 -1.1648
10269TIP3    H252223   1.080   3.412  15.488 -0.3998 -0.5624 -1.0332
10270TIP3   OH252224   5.377   3.555  12.934  0.6752  0.0786  0.1674
10270TIP3    H152225   5.422   3.556  12.849 -0.8179 -0.8359 -0.6727
10270TIP3    H252226   5.439   3.512  12.993  1.7973  0.8620 -0.3989
10271TIP3   OH252227   0.427   2.246  11.596 -0.2684  0.4865  0.2984
10271TIP3    H152228   0.492   2.180  11.620 -1.5736 -1.0535 -0.2309
10271TIP3    H252229   0.455   2.278  11.510  0.4548  0.7677  0.6297
10272TIP3   OH252230   4.053   5.185   5.203 -0.7828 -0.9939  0.3324
10272TIP3    H152231   4.013   5.256   5.253 -1.1431 -0.7030 -0.3622
10272TIP3    H252232   4.144   5.183   5.234 -1.2371 -1.4378  1.6664
10273TIP3   OH252233   2.438   0.901   1.833  0.4636 -0.8389 -0.5095
10273TIP3    H152234   2.424   0.940   1.747  2.0166 -0.4613 -0.6318
10273TIP3    H252235   2.504   0.958   1.874 -2.2525  0.6790  2.0885
10274TIP3   OH252236   5.160   0.665   6.646  0.2287 -0.1116 -0.2678
10274TIP3    H152237   5.132   0.687   6.735  0.4281  0.6486 -0.3848
10274TIP3    H252238   5.078   0.653   6.598  0.1090 -1.6314  0.2635
10275TIP3   OH252239   5.329   2.764  16.461  0.0526  0.1015 -0.2296
10275TIP3    H152240   5.254   2.823  16.471  1.4314  2.3477 -1.9389
10275TIP3    H252241   5.392   2.794  16.527 -0.4952 -1.8070  1.2374
10276TIP3   OH252242   4.342   5.941  14.830 -0.5681 -0.0096 -0.0405
10276TIP3    H152243   4.266   5.887  14.807 -0.8244  0.9275 -1.6211
10276TIP3    H252244   4.330   6.021  14.778 -0.2265  1.5965  2.2183
10277TIP3   OH252245   3.516   1.224   2.140 -0.0728  0.4543  0.1098
10277TIP3    H152246   3.560   1.219   2.225  0.4544  0.6246 -0.1464
10277TIP3    H252247   3.510   1.317   2.121  2.3816  0.4211 -1.3149
10278TIP3   OH252248   5.119   0.369   0.648 -0.2475 -0.4089 -0.0731
10278TIP3    H152249   5.057   0.398   0.714  0.1617  0.4441 -0.0414
10278TIP3    H252250   5.205   0.385   0.687  0.0329  1.3560 -1.2643
10279TIP3   OH252251   3.020   5.051   3.957 -0.5219 -0.2061 -0.9549
10279TIP3    H152252   3.006   5.128   3.903  0.9903 -0.1695 -1.3546
10279TIP3    H252253   2.947   5.050   4.019 -0.0802  2.0712 -0.3333
10280TIP3   OH252254   3.063   5.964   0.677 -0.0452 -0.9704 -0.8467
10280TIP3    H152255   3.011   6.029   0.630  0.7886 -0.1877 -0.7107
10280TIP3    H252256   2.999   5.899   0.707 -0.7281 -0.8533 -2.0179
10281TIP3   OH252257   2.907   0.668   5.634  0.6451  0.0272 -0.0767
10281TIP3    H152258   2.988   0.705   5.599 -0.4698 -0.1259 -3.1067
10281TIP3    H252259   2.838   0.705   5.579 -1.2661 -0.7299  1.6813
10282TIP3   OH252260   4.987   0.551   0.854  0.0438 -0.3187 -0.2549
10282TIP3    H152261   4.983   0.612   0.781 -1.2099  0.7329  0.6610
10282TIP3    H252262   4.915   0.576   0.911  0.5294 -1.5989  0.9867
10283TIP3   OH252263   3.432   5.985  15.961 -0.4484  0.0458  0.7376
10283TIP3    H152264   3.453   5.958  16.051 -1.9086 -1.6095  0.6363
10283TIP3    H252265   3.483   6.065  15.948  0.6374 -0.2570  2.6575
10284TIP3   OH252266   0.191   1.596  14.925  0.1490  0.1869 -0.3238
10284TIP3    H152267   0.200   1.668  14.863  1.1510 -0.2257 -0.6801
10284TIP3    H252268   0.256   1.614  14.993  0.7031 -0.5873 -0.6352
10285TIP3   OH252269   0.751   0.780   1.068 -0.2285 -0.3843 -0.3747
10285TIP3    H152270   0.725   0.690   1.048 -0.5030  0.0709 -2.2517
10285TIP3    H252271   0.813   0.804   0.999 -0.4193  0.9867 -0.1092
10286TIP3   OH252272   2.241   3.449   1.214  0.0697 -0.0804  0.3580
10286TIP3    H152273   2.248   3.356   1.196 -1.5293 -0.4687  1.5142
10286TIP3    H252274   2.150   3.471   1.193  0.4004  1.2064  0.1849
10287TIP3   OH252275   2.196   1.728  14.312  0.1504  0.5245  0.3329
10287TIP3    H152276   2.275   1.692  14.272 -0.8823  0.6094 -1.9336
10287TIP3    H252277   2.196   1.820  14.286 -0.5674  0.5879  0.5365
10288TIP3   OH252278   4.843   4.411   3.198 -0.5063 -0.3773  0.1949
10288TIP3    H152279   4.787   4.486   3.220  0.1277 -0.0948  0.8676
10288TIP3    H252280   4.796   4.336   3.234 -2.3068 -0.6604 -2.4352
10289TIP3   OH252281   2.271   2.144   0.453  0.1736  0.3253 -0.2348
10289TIP3    H152282   2.353   2.160   0.406 -0.6720  2.6363 -1.0936
10289TIP3    H252283   2.205   2.189   0.400 -1.2909  0.5153  1.6676
10290TIP3   OH252284   3.709   3.032  14.128  0.0324  0.5540  0.8873
10290TIP3    H152285   3.637   2.975  14.102  1.9877 -1.5768 -0.1917
10290TIP3    H252286   3.753   3.055  14.046  0.6858  1.6699  1.5238
10291TIP3   OH252287   1.853   5.509   0.032  0.2063 -0.2782  0.3739
10291TIP3    H152288   1.899   5.575  -0.020 -0.4248 -0.2869 -0.2084
10291TIP3    H252289   1.765   5.546   0.045  0.5293  0.0146  1.9757
10292TIP3   OH252290   1.192   3.910  11.231  0.7117  0.1374  0.1344
10292TIP3    H152291   1.173   4.003  11.248 -1.0343 -0.2132  0.3287
10292TIP3    H252292   1.282   3.898  11.260  0.3199  1.3284  1.9849
10293TIP3   OH252293   6.406   1.099   0.277  0.9949  0.6144 -0.0503
10293TIP3    H152294   6.500   1.114   0.270  1.2159 -0.7705 -0.3582
10293TIP3    H252295   6.386   1.039   0.205  0.1724 -0.3668  0.9687
10294TIP3   OH252296   1.375   4.112   4.021 -0.1151 -0.5638 -0.3471
10294TIP3    H152297   1.304   4.161   3.979  0.6065 -0.5840 -1.6307
10294TIP3    H252298   1.451   4.127   3.965  0.8553 -0.7233  0.8936
10295TIP3   OH252299   6.723   1.634  17.210 -0.4024 -0.4112  0.0397
10295TIP3    H152300   6.722   1.579  17.132 -0.5145 -0.0608 -0.2122
10295TIP3    H252301   6.815   1.653  17.225 -0.4809  0.9469 -1.0405
10296TIP3   OH252302   3.339   2.802   1.111 -0.0083 -0.0435  0.2077
10296TIP3    H152303   3.254   2.792   1.068 -0.3113  1.6740  0.3278
10296TIP3    H252304   3.376   2.881   1.072  2.1102 -1.3970 -0.7178
10297TIP3   OH252305   5.410   1.481  14.134  0.0458 -0.5660 -0.0778
10297TIP3    H152306   5.464   1.522  14.066  1.4097 -0.7309  0.8651
10297TIP3    H252307   5.321   1.491  14.102  0.6484 -0.9212 -2.0479
10298TIP3   OH252308   3.219   5.064   2.064 -0.5030  0.4669 -0.6743
10298TIP3    H152309   3.146   5.126   2.068  0.3867  1.5307 -0.2713
10298TIP3    H252310   3.295   5.118   2.041  0.2341 -0.5368 -0.6695
10299TIP3   OH252311   0.606   4.157  15.884  0.1835 -0.0835 -0.3642
10299TIP3    H152312   0.537   4.117  15.937  0.2406 -0.9983 -0.9533
10299TIP3    H252313   0.674   4.180  15.947 -0.0083 -0.6031  0.0442
10300TIP3   OH252314   5.096   6.128   3.480  0.1109 -0.1378  0.4416
10300TIP3    H152315   5.028   6.147   3.416  0.5098  1.5040  0.4684
10300TIP3    H252316   5.170   6.182   3.453  1.0705 -1.1528  0.9859
10301TIP3   OH252317   0.908   6.435  17.068 -0.0491 -0.6431  0.0053
10301TIP3    H152318   0.979   6.372  17.081  2.4081  2.0807  0.7493
10301TIP3    H252319   0.937   6.514  17.113 -2.0394  1.6823 -2.4683
10302TIP3   OH252320   5.844   5.676  11.972 -0.8669 -0.1728  0.1526
10302TIP3    H152321   5.925   5.627  11.961 -0.7994  0.0967 -0.6681
10302TIP3    H252322   5.785   5.617  12.019 -0.2612 -0.4378  0.5822
10303TIP3   OH252323   6.124   5.157  16.110 -0.6556 -0.5044  0.8554
10303TIP3    H152324   6.124   5.196  16.022 -0.3981  0.7694  1.4020
10303TIP3    H252325   6.057   5.088  16.105 -0.7173 -0.3916 -0.3031
10304TIP3   OH252326   5.115   6.176  17.001  0.2033 -0.0422  0.5254
10304TIP3    H152327   5.068   6.096  16.976  0.5488  0.5209 -2.2138
10304TIP3    H252328   5.160   6.152  17.082  0.8186 -2.8860 -0.5264
10305TIP3   OH252329   5.669   2.542  16.978 -0.1065  0.4483  0.3787
10305TIP3    H152330   5.731   2.548  16.906  0.2664 -0.7476  0.5767
10305TIP3    H252331   5.666   2.448  16.999  0.9193  0.9031  2.8715
10306TIP3   OH252332   0.265   5.583   1.343 -0.4628 -0.1172 -0.1571
10306TIP3    H152333   0.266   5.570   1.438 -0.5414  0.0270 -0.1351
10306TIP3    H252334   0.340   5.534   1.311  0.4399  1.0257  0.1420
10307TIP3   OH252335   6.500   5.532   3.145  0.2448 -0.2789  0.3820
10307TIP3    H152336   6.489   5.612   3.095 -2.2186 -1.1578 -0.6391
10307TIP3    H252337   6.498   5.560   3.236  1.9354  1.0419  0.0631
10308TIP3   OH252338   4.841   3.480  15.104  0.5160 -0.5376  0.6721
10308TIP3    H152339   4.792   3.520  15.177  1.6067  2.4060 -0.0387
10308TIP3    H252340   4.861   3.392  15.134 -3.1028 -1.0929  1.9489
10309TIP3   OH252341   4.052   3.430   1.352 -0.0951  0.0596  0.0070
10309TIP3    H152342   3.978   3.488   1.369 -0.2965  0.1642 -1.1284
10309TIP3    H252343   4.096   3.468   1.276  0.7439 -0.3662  0.2617
10310TIP3   OH252344   4.865   2.312   2.391 -0.4187 -0.2357  0.0030
10310TIP3    H152345   4.802   2.275   2.329 -0.0218 -1.9198  0.5549
10310TIP3    H252346   4.830   2.399   2.412 -1.5671 -0.4052 -1.1039
10311TIP3   OH252347   4.024   0.278   0.137  0.4444  0.3635 -0.0927
10311TIP3    H152348   4.041   0.263   0.230 -1.6701  2.4837  0.7511
10311TIP3    H252349   4.092   0.340   0.110  2.3301 -1.7772 -0.6243
10312TIP3   OH252350   0.623   1.275   3.311  0.0971 -0.2941  0.4442
10312TIP3    H152351   0.716   1.254   3.311  0.1758  0.0022  1.4910
10312TIP3    H252352   0.579   1.190   3.311  0.2807 -0.5172 -2.7467
10313TIP3   OH252353   4.223   1.221  12.105 -0.1006 -0.0430  0.0428
10313TIP3    H152354   4.154   1.207  12.169 -0.4933  1.6919  0.0681
10313TIP3    H252355   4.176   1.241  12.023  0.3559  0.8246 -0.0180
10314TIP3   OH252356   4.020   2.785   2.618 -0.3093 -0.0994  0.0282
10314TIP3    H152357   4.023   2.694   2.649 -0.9725  0.1016  0.6976
10314TIP3    H252358   4.097   2.793   2.561 -0.5767 -1.2536 -0.5268
10315TIP3   OH252359   0.886   1.065   4.865  0.2113 -0.0089  0.5085
10315TIP3    H152360   0.879   1.020   4.781 -0.6124 -0.3656  0.7599
10315TIP3    H252361   0.842   1.007   4.927 -1.0879  1.2356  0.8012
10316TIP3   OH252362   0.516   1.549  11.789  0.0994  0.3027 -0.3265
10316TIP3    H152363   0.481   1.500  11.863 -0.4543 -0.7233 -1.2356
10316TIP3    H252364   0.589   1.599  11.824  1.2657 -1.8713  0.4572
10317TIP3   OH252365   3.309   4.649   5.709 -0.1296 -0.1365  0.0380
10317TIP3    H152366   3.274   4.704   5.779  0.5635 -0.4059  0.6070
10317TIP3    H252367   3.308   4.706   5.632  1.1892  0.9253  0.7486
10318TIP3   OH252368   4.644   2.517  16.960 -0.1901  0.1319  0.3830
10318TIP3    H152369   4.692   2.481  16.885 -1.5614 -0.1398 -0.3912
10318TIP3    H252370   4.712   2.547  17.020  0.9927  2.0557 -1.7594
10319TIP3   OH252371   6.016   4.151   1.567 -0.0403 -0.3291  0.0712
10319TIP3    H152372   5.940   4.208   1.570  0.4211  0.4449 -1.6328
10319TIP3    H252373   5.992   4.074   1.619 -1.5472  0.3877  0.4559
10320TIP3   OH252374   1.987   6.026   3.071 -0.3186 -0.1033  0.5363
10320TIP3    H152375   1.907   5.974   3.084  1.1717 -3.0080 -0.9798
10320TIP3    H252376   2.051   5.963   3.037  2.1458  2.4692  0.0893
10321TIP3   OH252377   4.026   4.200  13.535  0.2454  0.0127  0.2994
10321TIP3    H152378   3.987   4.178  13.619  0.1327  0.6212  0.4090
10321TIP3    H252379   4.055   4.291  13.544  2.5846 -0.6750  0.5530
10322TIP3   OH252380   3.102   1.748  13.825  0.4577  0.2631 -0.2633
10322TIP3    H152381   3.031   1.701  13.782 -1.7122  2.8596  0.1931
10322TIP3    H252382   3.131   1.812  13.760  1.4759  0.1160  0.0318
10323TIP3   OH252383   0.042   1.472   3.898 -0.0456 -0.2059  0.1506
10323TIP3    H152384   0.077   1.456   3.810  1.1309  0.5932  0.4488
10323TIP3    H252385   0.082   1.405   3.953 -1.7904 -1.5420 -0.1077
10324TIP3   OH252386   2.452   1.557  12.528  0.3626 -0.2100 -0.5156
10324TIP3    H152387   2.496   1.484  12.485  0.1161 -0.0757 -1.0104
10324TIP3    H252388   2.522   1.605  12.572  0.8960  0.5823 -2.1252
10325TIP3   OH252389   5.664   0.235  16.398 -0.3658  0.3427 -0.1204
10325TIP3    H152390   5.745   0.246  16.348 -0.3371  0.0091 -0.1514
10325TIP3    H252391   5.639   0.324  16.423 -0.5042  0.5305 -0.9106
10326TIP3   OH252392   3.797   5.986  14.091 -0.8255 -0.6370  0.0645
10326TIP3    H152393   3.811   5.896  14.060  0.8554 -0.1116 -0.8460
10326TIP3    H252394   3.778   6.035  14.011 -1.0103 -0.0568  0.4626
10327TIP3   OH252395   5.610   6.504   5.049 -0.1830  0.1909 -0.8885
10327TIP3    H152396   5.632   6.546   5.133 -0.6903  0.9145 -1.1081
10327TIP3    H252397   5.577   6.418   5.073 -1.7108  0.9286 -0.2245
10328TIP3   OH252398   6.665   6.114  11.884  0.0064  0.2358 -0.0471
10328TIP3    H152399   6.611   6.192  11.895 -0.2330  0.0665 -0.0119
10328TIP3    H252400   6.752   6.148  11.862  0.4861  0.5888  2.2379
10329TIP3   OH252401   5.736   3.781  11.019 -0.2777  0.1062  0.1645
10329TIP3    H152402   5.715   3.753  11.108 -0.0532 -2.4017 -0.4993
10329TIP3    H252403   5.829   3.802  11.022 -0.3513  0.3770  0.5974
10330TIP3   OH252404   3.008   6.700   0.367 -0.4208  0.7920  0.7557
10330TIP3    H152405   3.011   6.645   0.445  0.6528 -0.3681 -0.0563
10330TIP3    H252406   3.062   6.776   0.390  0.6285  0.0431  0.8683
10331TIP3   OH252407   3.753   5.275   6.727  0.0926  0.3203  0.5202
10331TIP3    H152408   3.754   5.274   6.632  0.6350  0.7075  0.5204
10331TIP3    H252409   3.743   5.367   6.751 -1.6641  0.0846  0.8404
10332TIP3   OH252410   5.777   5.622  11.539  0.0235 -0.3504 -0.2683
10332TIP3    H152411   5.848   5.559  11.525 -0.2750 -0.8172  0.2649
10332TIP3    H252412   5.699   5.578  11.505 -0.0045  0.1821 -0.9016
10333TIP3   OH252413   3.491   0.952  11.410 -0.3031 -0.3818 -0.1454
10333TIP3    H152414   3.495   0.963  11.315 -0.7247  0.0422 -0.1180
10333TIP3    H252415   3.570   0.902  11.431  0.8934  1.2659 -0.4881
10334TIP3   OH252416   5.740   4.646   4.347 -0.0625  0.6687 -0.2716
10334TIP3    H152417   5.740   4.741   4.359 -1.8888  0.6985 -0.2161
10334TIP3    H252418   5.700   4.633   4.261  0.6022 -0.0485 -0.4800
10335TIP3   OH252419   3.126   0.372  11.255 -0.3263  0.1054 -0.1028
10335TIP3    H152420   3.102   0.327  11.336 -0.3468  2.1085  1.0656
10335TIP3    H252421   3.042   0.404  11.221 -0.2293 -0.1062 -0.5495
10336TIP3   OH252422   6.006   4.097  17.191  0.1030 -0.6057 -0.4224
10336TIP3    H152423   6.029   4.021  17.137  1.3673  0.5699 -1.6217
10336TIP3    H252424   6.038   4.172  17.141  1.2598  0.5595  1.9489
10337TIP3   OH252425   2.389   0.652   1.615  0.7974 -0.1601  0.6310
10337TIP3    H152426   2.453   0.718   1.588  1.5214 -0.5943  1.2494
10337TIP3    H252427   2.391   0.655   1.711 -0.5070  0.1925  0.6657
10338TIP3   OH252428   5.762   6.690  17.347  0.2045  0.0868 -0.5749
10338TIP3    H152429   5.790   6.670  17.258  2.0353  0.3208 -0.0950
10338TIP3    H252430   5.700   6.763  17.337 -1.5010 -1.4588 -1.8007
10339TIP3   OH252431   3.538   3.759  11.184  0.0442 -0.1083 -0.0549
10339TIP3    H152432   3.481   3.829  11.153  0.2272 -0.3227 -0.9198
10339TIP3    H252433   3.480   3.699  11.230 -0.2187  0.2857  0.1369
10340TIP3   OH252434   3.371   4.616   4.715  0.4722 -0.0840 -0.1659
10340TIP3    H152435   3.327   4.535   4.741  1.7042 -1.1859 -1.3131
10340TIP3    H252436   3.383   4.607   4.620  1.7632  0.8640 -0.1181
10341TIP3   OH252437   1.931   2.787  11.805 -0.0496 -0.0175 -0.1319
10341TIP3    H152438   1.889   2.708  11.771 -0.9611  0.6660 -0.6425
10341TIP3    H252439   1.989   2.816  11.735 -1.8549  1.3358 -1.1794
10342TIP3   OH252440   2.557   5.778  11.628 -0.1802 -0.3277  0.3932
10342TIP3    H152441   2.634   5.835  11.626 -0.4058 -0.0405 -0.6949
10342TIP3    H252442   2.493   5.827  11.680  0.3094 -0.4959  1.1673
10343TIP3   OH252443   1.873   5.813   1.286 -0.1275 -0.0076  0.6816
10343TIP3    H152444   1.870   5.888   1.346 -0.7322 -0.3550  1.0883
10343TIP3    H252445   1.851   5.738   1.341  0.7026 -0.5187  0.3246
10344TIP3   OH252446   6.202   2.974  14.104  0.4444  0.0228 -0.1592
10344TIP3    H152447   6.282   2.941  14.061 -0.9630 -3.1696 -0.6132
10344TIP3    H252448   6.211   2.945  14.195  1.0942  2.3454  0.5878
10345TIP3   OH252449   4.254   2.724  17.044 -0.2632 -0.0534  0.3489
10345TIP3    H152450   4.252   2.798  16.982 -0.3945  1.0102  1.5825
10345TIP3    H252451   4.313   2.660  17.003  1.1400  1.4108 -0.0230
10346TIP3   OH252452   0.250   2.042   6.112  0.8192  1.1763  0.3794
10346TIP3    H152453   0.217   2.108   6.052  1.0428  1.4359  0.5446
10346TIP3    H252454   0.183   2.037   6.181  1.0483  1.5992  0.6372
10347TIP3   OH252455   6.032   2.457   0.579 -0.0447  0.0250 -0.4791
10347TIP3    H152456   6.012   2.364   0.562 -0.4158 -0.0035  0.0749
10347TIP3    H252457   5.962   2.504   0.533 -1.1903 -0.0602  1.0752
10348TIP3   OH252458   0.513   0.971  14.817  0.5071  0.2013 -0.5253
10348TIP3    H152459   0.479   0.986  14.728  2.0416 -0.0092 -1.1718
10348TIP3    H252460   0.435   0.950  14.868 -0.5195  1.1200 -1.6307
10349TIP3   OH252461   6.395   3.695  12.618  0.0381 -0.0814 -0.3062
10349TIP3    H152462   6.481   3.694  12.660 -0.4383 -3.0078  0.8663
10349TIP3    H252463   6.357   3.780  12.642  2.1619  0.8377  0.0124
10350TIP3   OH252464   5.785   0.664  17.290 -0.0351 -0.5170  0.2485
10350TIP3    H152465   5.731   0.594  17.327 -1.1667  0.0034 -0.3801
10350TIP3    H252466   5.723   0.721  17.245  0.8883  0.7747  0.5488
10351TIP3   OH252467   4.536   1.775   4.248 -0.0540 -0.7950 -0.0460
10351TIP3    H152468   4.601   1.726   4.299  0.0838 -1.0800 -0.4922
10351TIP3    H252469   4.489   1.827   4.314  0.7876 -0.3918  0.2594
10352TIP3   OH252470   5.072   0.909  15.477  0.1176  0.3032  0.3374
10352TIP3    H152471   4.987   0.884  15.441 -0.4232  0.4064  1.4929
10352TIP3    H252472   5.128   0.833  15.464 -0.2445  0.1245 -0.1607
10353TIP3   OH252473   3.488   5.032   4.265  0.0620  0.0134 -0.2930
10353TIP3    H152474   3.580   5.008   4.252  0.0339 -0.5848  0.4960
10353TIP3    H252475   3.444   4.948   4.280 -0.2803  0.4349  1.2027
10354TIP3   OH252476   5.192   3.679   5.132  0.0766 -0.2266  0.6034
10354TIP3    H152477   5.162   3.664   5.043 -1.1139  1.2815  0.7115
10354TIP3    H252478   5.130   3.630   5.187 -0.8888  1.0935  0.7187
10355TIP3   OH252479   5.989   5.248   4.026 -0.1718 -0.3418  0.5210
10355TIP3    H152480   5.894   5.238   4.020 -0.1062 -0.9321  0.4209
10355TIP3    H252481   6.023   5.205   3.947  0.1813 -0.1872  0.5843
10356TIP3   OH252482   3.642   2.796  10.760  0.0100 -0.1479 -0.6288
10356TIP3    H152483   3.568   2.846  10.794 -0.5901 -1.4649  0.0571
10356TIP3    H252484   3.715   2.858  10.759 -0.2275  0.2599  2.0204
10357TIP3   OH252485   3.408   2.519   5.308  0.5285 -0.3030 -0.0977
10357TIP3    H152486   3.333   2.509   5.366 -0.1568 -0.2418 -0.9547
10357TIP3    H252487   3.479   2.549   5.365 -0.1426 -0.1858  0.6903
10358TIP3   OH252488   4.840   5.551  12.974 -0.0974 -0.1704 -0.8027
10358TIP3    H152489   4.832   5.542  13.069 -0.7288  1.8359 -0.6163
10358TIP3    H252490   4.794   5.474  12.939 -0.2351 -0.7105  0.5056
10359TIP3   OH252491   3.351   3.975   4.022  0.3157  0.2570 -0.0073
10359TIP3    H152492   3.325   4.063   3.994 -0.8114 -0.2137 -0.4986
10359TIP3    H252493   3.290   3.917   3.977  0.7377 -0.7498  0.6971
10360TIP3   OH252494   0.472   5.848  17.387  0.0215  0.4872  0.3110
10360TIP3    H152495   0.539   5.912  17.410 -0.8857  0.6772  2.7148
10360TIP3    H252496   0.396   5.901  17.361 -0.3839  0.3924  1.2600
10361TIP3   OH252497   0.586   3.159   3.915 -0.6150 -0.1296 -0.0973
10361TIP3    H152498   0.665   3.154   3.862 -1.2396 -1.4949 -0.9608
10361TIP3    H252499   0.519   3.192   3.856 -1.2359 -1.3073 -0.0775
10362TIP3   OH252500   0.861   0.841  14.237 -0.0149 -0.1220 -0.3016
10362TIP3    H152501   0.819   0.912  14.285  1.8856  0.1370  1.1237
10362TIP3    H252502   0.819   0.841  14.152 -2.7697  0.1538  0.9531
10363TIP3   OH252503   6.254   3.776  15.922 -0.2848  0.2115  0.3688
10363TIP3    H152504   6.326   3.720  15.951 -0.9015 -2.0194 -2.0394
10363TIP3    H252505   6.175   3.727  15.942 -0.9138  0.8181 -0.5507
10364TIP3   OH252506   4.021   0.534  16.290  0.5103  0.3523 -0.5182
10364TIP3    H152507   4.014   0.503  16.200 -1.3185  2.1496 -1.0549
10364TIP3    H252508   4.107   0.575  16.295 -0.0059  1.6867 -1.9685
10365TIP3   OH252509   2.456   3.643   5.001 -0.1195  0.0632 -0.4707
10365TIP3    H152510   2.425   3.715   5.056  1.9573  1.3210 -0.8465
10365TIP3    H252511   2.416   3.565   5.040 -1.4003  1.2590  0.7472
10366TIP3   OH252512   1.046   0.390  16.338  0.6079 -0.0467 -0.5559
10366TIP3    H152513   1.048   0.306  16.383  0.0385 -1.5900 -3.1450
10366TIP3    H252514   1.084   0.372  16.252 -1.1478  1.8728 -1.8518
10367TIP3   OH252515   6.307   2.279   1.842  0.1341 -0.0062  0.2385
10367TIP3    H152516   6.365   2.261   1.768  1.1678  0.1557  0.9900
10367TIP3    H252517   6.311   2.200   1.895  0.8201  0.5506  1.0359
10368TIP3   OH252518   2.146   2.488  11.677 -0.1840  0.6341  0.5761
10368TIP3    H152519   2.053   2.499  11.694 -0.4038 -0.4656  0.1735
10368TIP3    H252520   2.184   2.471  11.763 -0.6641 -0.8203  0.5305
10369TIP3   OH252521   0.117   0.431  13.848  0.0768 -0.8217  0.4280
10369TIP3    H152522   0.143   0.521  13.831  1.2356 -1.3872 -1.0585
10369TIP3    H252523   0.156   0.410  13.933 -0.1758  0.0589  0.7667
10370TIP3   OH252524   2.975   1.028   0.176 -0.5947  0.2712 -0.1784
10370TIP3    H152525   3.005   0.998   0.262 -0.1898  0.5105 -0.2311
10370TIP3    H252526   2.880   1.029   0.182 -0.5575  0.5301  0.3473
10371TIP3   OH252527   3.730   3.541   2.682  0.5469 -0.2463 -0.4501
10371TIP3    H152528   3.792   3.601   2.639  0.8535 -0.4977 -0.3656
10371TIP3    H252529   3.749   3.550   2.775 -1.0277  1.3090 -0.2324
10372TIP3   OH252530   3.382   1.874   2.474  0.8639 -0.5158 -0.0671
10372TIP3    H152531   3.321   1.929   2.524  0.5245 -1.4180  0.5595
10372TIP3    H252532   3.345   1.871   2.386  1.6815  1.4206 -0.5212
10373TIP3   OH252533   1.877   0.958   1.370  0.5157  0.3963 -0.5378
10373TIP3    H152534   1.888   0.896   1.443 -0.0779  1.6123  0.6357
10373TIP3    H252535   1.966   0.982   1.345  0.7305  0.0291 -0.1447
10374TIP3   OH252536   6.269   4.241   1.450  0.2026 -0.2389 -0.1425
10374TIP3    H152537   6.185   4.197   1.464 -0.9809  1.8257 -0.2706
10374TIP3    H252538   6.313   4.238   1.535  0.8318 -2.8535 -0.4921
10375TIP3   OH252539   5.927   0.926  11.277  0.0837 -0.1397  0.1151
10375TIP3    H152540   5.929   0.994  11.209  0.6786  1.2074  1.4103
10375TIP3    H252541   6.017   0.893  11.282 -0.3443 -1.5612 -0.9808
10376TIP3   OH252542   3.710   5.946   3.930 -0.2980  0.9277  0.0251
10376TIP3    H152543   3.615   5.935   3.921 -0.5655 -0.9632  3.5159
10376TIP3    H252544   3.748   5.886   3.866 -1.5628 -0.9038  0.9206
10377TIP3   OH252545   3.704   0.485  11.622 -0.1570 -0.1671 -0.6060
10377TIP3    H152546   3.685   0.475  11.529  1.6004  0.2424 -1.0423
10377TIP3    H252547   3.682   0.399  11.660  0.5726 -0.8407 -1.6734
10378TIP3   OH252548   0.049   2.858  16.528  0.0366  0.0168 -0.2401
10378TIP3    H152549  -0.044   2.840  16.515 -0.1106  1.7524 -2.3190
10378TIP3    H252550   0.093   2.805  16.462  0.4274 -0.0779  0.0954
10379TIP3   OH252551   3.290   2.428  12.359 -0.1841  0.2573 -0.9505
10379TIP3    H152552   3.347   2.423  12.435 -1.0608  0.5229 -0.2630
10379TIP3    H252553   3.340   2.388  12.288 -0.5553 -2.9693  0.4672
10380TIP3   OH252554   5.594   2.958   0.554 -0.3641  0.7192  0.2175
10380TIP3    H152555   5.676   3.007   0.564  0.0214  0.2604 -0.6869
10380TIP3    H252556   5.551   2.998   0.479  1.0760 -1.8178 -2.1288
10381TIP3   OH252557   3.175   5.550  12.660 -0.1731  0.4046 -0.1744
10381TIP3    H152558   3.208   5.466  12.690 -0.3092  0.4931  0.2428
10381TIP3    H252559   3.142   5.592  12.740 -1.1529  0.3789 -0.5515
10382TIP3   OH252560   4.596   5.881  14.580 -0.1665 -0.0621 -0.0652
10382TIP3    H152561   4.607   5.915  14.669  0.7984  0.0264 -0.2082
10382TIP3    H252562   4.517   5.924  14.547  0.7765  1.7277 -0.0825
10383TIP3   OH252563   3.942   4.603   4.044  0.0671 -0.3645 -0.2586
10383TIP3    H152564   3.953   4.576   4.136  1.1308 -1.1867 -0.5962
10383TIP3    H252565   3.960   4.523   3.994  2.8379  0.7915 -1.3048
10384TIP3   OH252566   4.685   6.487   3.634 -0.7381  0.2429  0.1026
10384TIP3    H152567   4.633   6.503   3.712  0.4923 -0.9749  1.2141
10384TIP3    H252568   4.669   6.395   3.613  0.2203  0.1096 -0.0899
10385TIP3   OH252569   6.271   4.172   6.264  0.3249 -0.2883 -0.6358
10385TIP3    H152570   6.282   4.181   6.359 -0.1080 -1.6488 -0.4314
10385TIP3    H252571   6.189   4.123   6.254  0.2136  0.0846 -1.7327
10386TIP3   OH252572   0.989   4.538   4.223  0.4632  0.6509 -0.4236
10386TIP3    H152573   1.017   4.460   4.272  0.5462  1.3114  0.6001
10386TIP3    H252574   1.007   4.611   4.281 -0.6800  1.3478 -0.9155
10387TIP3   OH252575   4.221   0.523  15.247  0.4237 -0.7003 -0.8655
10387TIP3    H152576   4.203   0.430  15.234 -1.7770 -0.3568 -0.5611
10387TIP3    H252577   4.138   0.560  15.276  1.4332  1.2500 -0.3110
10388TIP3   OH252578   5.674   5.874   1.997  0.7198 -0.1343  0.4342
10388TIP3    H152579   5.715   5.808   1.941  1.5780  1.2050 -0.5872
10388TIP3    H252580   5.681   5.955   1.946  1.0423  1.0271  2.2632
10389TIP3   OH252581   4.187   3.213   0.506 -0.2982  0.0840  0.5771
10389TIP3    H152582   4.118   3.273   0.480 -2.3514 -0.9984  3.0882
10389TIP3    H252583   4.209   3.238   0.596  0.1223 -1.7022  1.0255
10390TIP3   OH252584   1.268   5.382   1.445  0.3717 -0.2160 -0.1307
10390TIP3    H152585   1.343   5.361   1.389  0.9471 -0.5584  0.7404
10390TIP3    H252586   1.304   5.381   1.534 -0.5905 -0.0133  0.2701
10391TIP3   OH252587   2.752   5.869  14.839 -0.3428 -0.4931 -0.2295
10391TIP3    H152588   2.677   5.826  14.879 -0.1024 -0.4195  0.3068
10391TIP3    H252589   2.728   5.962  14.837 -0.2464 -0.4625 -0.0080
10392TIP3   OH252590   1.793   4.960   5.267  0.4127  0.0977 -0.0447
10392TIP3    H152591   1.866   4.930   5.213  0.9743  1.6084 -0.1868
10392TIP3    H252592   1.834   5.015   5.334 -0.5934  1.1468 -0.2467
10393TIP3   OH252593   5.258   4.301  16.222 -0.3616 -0.1768 -0.2631
10393TIP3    H152594   5.251   4.259  16.136  1.1706 -3.0555  0.8744
10393TIP3    H252595   5.194   4.255  16.276 -0.4107  0.7152  0.4532
10394TIP3   OH252596   4.890   3.462  14.540 -0.3160  0.1420 -0.3051
10394TIP3    H152597   4.813   3.481  14.486 -1.8650  1.0651  2.0153
10394TIP3    H252598   4.853   3.428  14.622  1.7470  0.5157  0.8543
10395TIP3   OH252599   6.705   6.531  14.980  0.5313 -0.6348  0.1686
10395TIP3    H152600   6.714   6.519  14.885 -0.5300 -0.9056  0.0918
10395TIP3    H252601   6.727   6.446  15.017  2.2780 -0.1857  0.2926
10396TIP3   OH252602   5.367   0.062  12.049 -0.1106 -0.4543  0.3147
10396TIP3    H152603   5.312   0.023  11.981 -0.9855 -2.1810  1.9337
10396TIP3    H252604   5.451   0.018  12.039 -0.0637 -0.3073  0.0330
10397TIP3   OH252605   0.876   4.337  17.132  0.3984  0.2100 -0.4949
10397TIP3    H152606   0.870   4.346  17.037  0.2525 -1.0844 -0.6184
10397TIP3    H252607   0.970   4.333  17.150  0.4093 -0.1779 -0.6447
10398TIP3   OH252608   4.069   5.174  11.134  0.3933 -0.8112  0.7082
10398TIP3    H152609   4.139   5.180  11.069 -1.2216 -1.1850 -1.1622
10398TIP3    H252610   4.036   5.263  11.142  0.3463 -0.8318  0.7447
10399TIP3   OH252611   5.202   6.459   5.099  0.3012 -0.5521  1.0948
10399TIP3    H152612   5.171   6.438   5.187  0.0682 -2.5327  0.5751
10399TIP3    H252613   5.281   6.406   5.088  0.3310 -0.3238  0.1145
10400TIP3   OH252614   6.351   2.298  13.095 -0.0073 -0.3292 -0.1503
10400TIP3    H152615   6.328   2.357  13.024  0.7348  0.0830 -0.0575
10400TIP3    H252616   6.361   2.213  13.054  0.6351 -0.0513 -0.5820
10401TIP3   OH252617   1.763   1.539  13.662  0.2300 -0.4431 -0.2468
10401TIP3    H152618   1.684   1.539  13.716 -0.0042  2.0448 -0.4963
10401TIP3    H252619   1.735   1.575  13.578  1.9015  2.2089  0.2139
10402TIP3   OH252620   3.293   5.180   4.155 -0.6175  0.1612 -0.2055
10402TIP3    H152621   3.372   5.132   4.181  0.5850  1.3376 -1.5333
10402TIP3    H252622   3.287   5.167   4.061 -2.8730 -1.0773  0.0288
10403TIP3   OH252623   4.378   5.784  11.683  0.2372 -0.5869 -0.3688
10403TIP3    H152624   4.360   5.862  11.630  0.7070  0.9057  1.5334
10403TIP3    H252625   4.471   5.790  11.703 -0.2282 -0.1081  1.9891
10404TIP3   OH252626   5.891   4.606  14.012  0.4157 -0.5469  0.0096
10404TIP3    H152627   5.876   4.521  14.052 -0.6350 -0.1773  0.4182
10404TIP3    H252628   5.842   4.604  13.931 -0.3407 -0.0195  0.4434
10405TIP3   OH252629   1.079   5.252  16.874  0.4509 -0.4021 -0.4006
10405TIP3    H152630   1.076   5.177  16.814  0.2993 -0.7864  0.0848
10405TIP3    H252631   1.135   5.223  16.946 -0.5035 -0.4704  0.3436
10406TIP3   OH252632   3.030   4.812  12.425 -0.0730  0.4988 -0.3179
10406TIP3    H152633   3.026   4.833  12.332 -0.1237 -1.0522 -0.6933
10406TIP3    H252634   2.998   4.891  12.469 -1.1621  0.8466 -1.6640
10407TIP3   OH252635   1.208   2.464  13.470  0.2426 -0.3125 -0.6505
10407TIP3    H152636   1.143   2.527  13.499  1.9027  0.8321  0.8300
10407TIP3    H252637   1.214   2.477  13.375 -2.3455 -1.1982 -1.0136
10408TIP3   OH252638   1.652   4.909  15.989 -0.0469  0.6201  0.0913
10408TIP3    H152639   1.643   4.904  16.084 -1.4848  0.3577 -0.0354
10408TIP3    H252640   1.739   4.873  15.970  0.1728  0.5063  1.2881
10409TIP3   OH252641   6.742   1.113  12.943  0.3431 -0.5542 -0.0670
10409TIP3    H152642   6.775   1.202  12.933  0.3421 -0.4894  0.4847
10409TIP3    H252643   6.691   1.097  12.863 -0.0965  0.1342  0.0666
10410TIP3   OH252644   5.272   0.451  10.646 -0.0765  0.4406  0.1738
10410TIP3    H152645   5.184   0.413  10.655  0.2392 -0.6649 -1.0949
10410TIP3    H252646   5.259   0.529  10.592 -0.1315 -0.4916 -1.2215
10411TIP3   OH252647   6.150   1.658   3.337 -0.2818  0.3892 -0.1459
10411TIP3    H152648   6.058   1.671   3.314 -0.4957  0.1481  0.5469
10411TIP3    H252649   6.196   1.728   3.291 -0.3779 -1.3884 -3.2061
10412TIP3   OH252650   4.849   1.449  13.110  0.3350 -1.2649  0.0740
10412TIP3    H152651   4.825   1.469  13.201 -1.0680 -1.6684 -0.1926
10412TIP3    H252652   4.888   1.531  13.078 -1.8220 -0.1317  0.1766
10413TIP3   OH252653   0.366   2.696   1.167  0.3970  0.2440 -0.2585
10413TIP3    H152654   0.304   2.659   1.230  1.1296 -0.5905 -0.0011
10413TIP3    H252655   0.377   2.787   1.195  0.0359  0.1234  0.2876
10414TIP3   OH252656   3.203   3.623  15.003 -0.3736 -0.3398  0.1759
10414TIP3    H152657   3.215   3.652  15.093  0.8437 -0.2743  0.0064
10414TIP3    H252658   3.258   3.682  14.951  1.0101 -1.9899 -0.3163
10415TIP3   OH252659   2.561   6.453   1.870  0.1892 -0.9031  0.3656
10415TIP3    H152660   2.598   6.474   1.784 -1.1786  0.5844  0.0961
10415TIP3    H252661   2.476   6.497   1.871  0.0982 -1.0203  2.4176
10416TIP3   OH252662   3.927   3.433   6.326  0.0685 -0.4573  0.2594
10416TIP3    H152663   3.890   3.381   6.254  1.3001 -2.4680  1.0004
10416TIP3    H252664   3.949   3.369   6.393 -0.0456  1.2528  2.0349
10417TIP3   OH252665   1.796   5.977  14.026  0.7738  0.7913 -0.0629
10417TIP3    H152666   1.884   6.013  14.013  1.8564 -2.1682 -1.8798
10417TIP3    H252667   1.808   5.906  14.089 -0.2313  0.0610 -0.6729
10418TIP3   OH252668   5.091   5.547   5.544 -0.0814 -0.1975 -0.0596
10418TIP3    H152669   5.140   5.525   5.465 -1.2639  0.8628 -1.1504
10418TIP3    H252670   5.017   5.486   5.544  0.1973 -0.5381  0.5210
10419TIP3   OH252671   4.777   3.635   4.745  0.1123  0.1800  0.3318
10419TIP3    H152672   4.841   3.681   4.690 -0.3285  0.9716  0.4587
10419TIP3    H252673   4.694   3.679   4.727 -0.8451 -2.0937 -1.3264
10420TIP3   OH252674   5.058   5.910   2.358  0.1660 -0.1401  0.2236
10420TIP3    H152675   5.038   5.907   2.451 -1.6616 -1.4240 -0.1501
10420TIP3    H252676   5.072   5.818   2.334  0.1108  0.1219 -0.8611
10421TIP3   OH252677   2.292   4.868   5.220 -0.0507 -0.1067  0.1510
10421TIP3    H152678   2.385   4.883   5.231 -0.2071  0.5440  0.6193
10421TIP3    H252679   2.254   4.885   5.306 -0.6440 -0.0149 -0.1215
10422TIP3   OH252680   2.684   2.756   0.313  0.0531  0.4359  0.3467
10422TIP3    H152681   2.602   2.707   0.319 -0.0710  0.7459  1.3417
10422TIP3    H252682   2.702   2.762   0.219 -0.9031  0.1003  0.1354
10423TIP3   OH252683   6.382   5.130   0.903 -0.3972  0.2220  0.2523
10423TIP3    H152684   6.321   5.056   0.898 -1.9513  1.4914 -0.2186
10423TIP3    H252685   6.371   5.165   0.991  0.0361  0.1561  0.3356
10424TIP3   OH252686   5.259   3.677  14.203  0.2802 -0.0484 -0.0275
10424TIP3    H152687   5.286   3.640  14.287 -1.0250  0.4682  0.6264
10424TIP3    H252688   5.342   3.705  14.163  0.7979  1.1163  1.7447
10425TIP3   OH252689   4.429   1.211   2.795  0.6438 -0.5682 -0.6363
10425TIP3    H152690   4.418   1.152   2.720  3.7332 -2.6972  0.3835
10425TIP3    H252691   4.480   1.160   2.859  1.0951  2.3028  1.5158
10426TIP3   OH252692   2.944   6.358   4.219 -0.0559  0.0799  0.4835
10426TIP3    H152693   2.898   6.322   4.143  0.4870  1.1003 -0.3490
10426TIP3    H252694   3.035   6.331   4.207  0.6240  2.6441 -0.8091
10427TIP3   OH252695   0.853   6.052  11.752 -0.1892  0.1325  0.1959
10427TIP3    H152696   0.923   5.989  11.767 -0.4844  0.1469  1.7205
10427TIP3    H252697   0.800   6.012  11.682 -0.1323 -1.1183  0.8516
10428TIP3   OH252698   3.270   2.307   1.750  0.2999 -0.4866  0.2199
10428TIP3    H152699   3.289   2.398   1.773  2.3700 -0.9795  0.6387
10428TIP3    H252700   3.303   2.297   1.660  0.9200 -1.0414  0.4984
10429TIP3   OH252701   5.380   0.068  15.237 -0.1985  0.1966 -0.3245
10429TIP3    H152702   5.390  -0.027  15.231  0.0102  0.0428  1.6785
10429TIP3    H252703   5.469   0.102  15.230 -0.2684  0.2367 -0.9987
10430TIP3   OH252704   3.422   0.964  11.701 -0.3236  0.0025 -0.2464
10430TIP3    H152705   3.500   0.940  11.750 -0.7918  0.1594  0.5814
10430TIP3    H252706   3.448   0.955  11.609  0.9899  1.0925 -0.0036
10431TIP3   OH252707   3.225   0.091  15.058 -0.1775  0.3275  0.1874
10431TIP3    H152708   3.293   0.042  15.013 -1.2675 -1.4101  0.3551
10431TIP3    H252709   3.201   0.160  14.996  1.0374  0.3650 -0.2693
10432TIP3   OH252710   2.110   6.606  16.618 -0.6594 -0.0185 -0.2564
10432TIP3    H152711   2.163   6.528  16.631 -0.0792  0.5998  1.3689
10432TIP3    H252712   2.064   6.618  16.702 -1.5971  0.7583 -0.8575
10433TIP3   OH252713   2.292   3.166   6.151  0.1433 -0.0237 -0.0392
10433TIP3    H152714   2.318   3.139   6.239 -2.3403 -0.7242  0.5694
10433TIP3    H252715   2.197   3.176   6.156  0.2507  3.1582 -1.8179
10434TIP3   OH252716   5.264   6.748  14.680 -0.4171  0.2870 -0.2411
10434TIP3    H152717   5.197   6.705  14.734  0.6131  0.5443  1.3086
10434TIP3    H252718   5.245   6.842  14.689  1.8134  0.5966  2.6763
10435TIP3   OH252719   0.166   2.432  16.900  0.0461  0.4224 -0.6298
10435TIP3    H152720   0.152   2.462  16.990  1.2446 -0.0934 -0.2491
10435TIP3    H252721   0.136   2.504  16.845 -2.1346  0.1600  0.1275
10436TIP3   OH252722   1.662   2.738  13.607 -0.0631  0.1372  0.5706
10436TIP3    H152723   1.731   2.704  13.550 -0.5087  1.5571 -0.8875
10436TIP3    H252724   1.581   2.710  13.565 -0.3955  0.1777  1.1801
10437TIP3   OH252725   0.830   0.801   0.615  0.3933 -0.5681 -0.1951
10437TIP3    H152726   0.762   0.824   0.552  0.8152  0.4022 -0.3183
10437TIP3    H252727   0.911   0.831   0.575  0.9973 -2.2963 -0.3412
10438TIP3   OH252728   6.005   3.704   1.002  0.5884  0.3086 -0.1175
10438TIP3    H152729   6.056   3.629   0.974  0.7196  0.2757  0.2058
10438TIP3    H252730   5.993   3.691   1.097  0.1711  0.4258 -0.1492
10439TIP3   OH252731   4.040   1.903   1.409  0.0574 -0.6414  0.2419
10439TIP3    H152732   4.032   1.914   1.314 -0.1265 -2.9243 -0.0743
10439TIP3    H252733   3.951   1.882   1.438  0.0977  0.1214  0.9600
10440TIP3   OH252734   2.996   1.522   1.950  0.2927  0.5004 -0.4095
10440TIP3    H152735   2.976   1.429   1.954 -1.2494  0.8158 -0.2912
10440TIP3    H252736   2.946   1.555   1.875  0.2842  1.3526 -0.0464
10441TIP3   OH252737   3.370   0.607  10.739  0.2235 -0.1291  0.2732
10441TIP3    H152738   3.353   0.636  10.650 -0.9347 -0.5570  0.3368
10441TIP3    H252739   3.363   0.511  10.735 -0.6096 -0.1089  0.9563
10442TIP3   OH252740   2.849   5.052  13.063 -0.4868 -0.3201  0.4240
10442TIP3    H152741   2.826   4.959  13.066 -1.0017 -0.4661 -3.4357
10442TIP3    H252742   2.944   5.054  13.068 -0.5232 -0.9025  1.7622
10443TIP3   OH252743   2.142   4.309  13.577 -0.5272  0.0854 -0.0641
10443TIP3    H152744   2.080   4.256  13.526 -0.5664 -0.6866  0.7582
10443TIP3    H252745   2.203   4.344  13.511 -0.6446 -0.7884 -0.6638
10444TIP3   OH252746   6.076   5.143  16.656 -0.4328 -0.3706  0.5837
10444TIP3    H152747   6.045   5.228  16.689  0.2749 -0.2608  0.9747
10444TIP3    H252748   6.020   5.079  16.701 -1.7673 -0.0839 -0.5901
10445TIP3   OH252749   5.906   5.659   2.086  0.2940 -0.1669 -0.0023
10445TIP3    H152750   5.839   5.707   2.037 -0.7366  0.7745  2.1617
10445TIP3    H252751   5.913   5.575   2.041 -0.1290  0.8262 -2.0655
10446TIP3   OH252752   0.982   5.879   2.120 -0.5832  0.1983  0.2646
10446TIP3    H152753   0.919   5.893   2.191  0.0121  1.3021  0.5906
10446TIP3    H252754   1.036   5.806   2.150 -0.4826  0.5076  0.8589
10447TIP3   OH252755   5.032   3.330   1.429  0.2050 -0.2186  0.2775
10447TIP3    H152756   5.023   3.238   1.402  1.1926 -1.0068  2.4250
10447TIP3    H252757   4.971   3.377   1.373  2.4156 -1.5596 -3.7125
10448TIP3   OH252758   1.752   0.730   5.160  0.5763 -0.1768 -0.5669
10448TIP3    H152759   1.755   0.816   5.117 -1.6381  1.4973  2.2483
10448TIP3    H252760   1.688   0.680   5.109  0.0713  0.7598 -0.8789
10449TIP3   OH252761   4.286   1.153  17.058 -0.1892 -0.6630 -0.4763
10449TIP3    H152762   4.235   1.143  16.977 -1.5168 -0.8728  0.3449
10449TIP3    H252763   4.313   1.064  17.080 -0.4443 -0.7081 -0.3286
10450TIP3   OH252764   6.667   2.821  14.020  0.2918  0.2824 -0.1935
10450TIP3    H152765   6.683   2.906  13.979  0.7086  0.1578 -0.2825
10450TIP3    H252766   6.726   2.819  14.095  0.2995  0.0589 -0.2059
10451TIP3   OH252767   4.896   3.332   2.319  0.2761 -0.2894  0.3236
10451TIP3    H152768   4.908   3.253   2.372  0.8381 -0.7134 -0.4104
10451TIP3    H252769   4.810   3.322   2.280 -0.0085 -0.1263  0.8974
10452TIP3   OH252770   6.440   3.292   4.732  0.1381 -0.3941  0.4018
10452TIP3    H152771   6.414   3.379   4.760 -0.1239 -0.4410  0.2992
10452TIP3    H252772   6.383   3.233   4.781 -0.8228 -0.4636 -0.7576
10453TIP3   OH252773   2.333   2.771  15.885 -0.2527  0.0171  0.1412
10453TIP3    H152774   2.337   2.770  15.981  1.2549 -0.3289  0.1155
10453TIP3    H252775   2.382   2.849  15.860 -1.0376  0.3586 -0.3504
10454TIP3   OH252776   0.684   2.802   5.060 -0.1087  0.6639 -0.2989
10454TIP3    H152777   0.777   2.801   5.085 -0.3598  0.3282  0.6835
10454TIP3    H252778   0.671   2.719   5.014 -0.6388 -0.9223  2.4910
10455TIP3   OH252779   0.118   0.047   2.974 -0.0944  0.2131 -0.5508
10455TIP3    H152780   0.078   0.121   3.018 -1.1670  0.4253 -1.8373
10455TIP3    H252781   0.106  -0.027   3.034 -0.6145  0.7035 -0.0505
10456TIP3   OH252782   4.441   0.586  15.411  0.2891  0.2088 -0.1103
10456TIP3    H152783   4.519   0.534  15.398 -0.0552 -0.0514 -1.2842
10456TIP3    H252784   4.375   0.544  15.355 -0.8002  0.1823  1.1565
10457TIP3   OH252785   4.846   3.746   5.230 -0.1967  0.0589  0.2325
10457TIP3    H152786   4.882   3.721   5.145 -1.2023  0.5599 -0.3526
10457TIP3    H252787   4.910   3.713   5.293  0.8192  0.1226 -0.7328
10458TIP3   OH252788   2.464   0.820   0.430  0.2340  0.2917  0.0963
10458TIP3    H152789   2.559   0.818   0.436  0.2039 -0.7446  0.3875
10458TIP3    H252790   2.442   0.758   0.360 -0.2338  0.3645  0.1718
10459TIP3   OH252791   5.465   5.874  12.068 -0.0676 -0.2956 -0.1439
10459TIP3    H152792   5.483   5.814  12.140  1.8828 -0.9696 -1.1316
10459TIP3    H252793   5.513   5.837  11.994 -1.4462  0.7546 -1.6267
10460TIP3   OH252794   2.441   2.733  12.215  0.0839  0.1906  0.0124
10460TIP3    H152795   2.457   2.649  12.258 -1.1820 -0.9684 -1.6490
10460TIP3    H252796   2.374   2.775  12.269  0.1901 -0.1888  0.4491
10461TIP3   OH252797   2.981   1.568   2.520  0.6098 -0.4222 -0.4787
10461TIP3    H152798   2.992   1.510   2.445 -0.7126 -0.2312 -0.8483
10461TIP3    H252799   2.886   1.581   2.526  0.8651  2.2889 -0.8990
10462TIP3   OH252800   6.535   0.634  11.552  0.9082  0.1587  0.2494
10462TIP3    H152801   6.507   0.547  11.524  1.4529  0.2689 -0.6611
10462TIP3    H252802   6.621   0.619  11.592 -0.1520 -0.1097  2.6065
10463TIP3   OH252803   1.696   5.556  13.167 -0.6099 -0.4411 -0.2248
10463TIP3    H152804   1.648   5.635  13.190 -0.5591  0.0644 -1.7272
10463TIP3    H252805   1.671   5.492  13.234 -1.7597  0.4268  0.2006
10464TIP3   OH252806   0.398   1.436  15.147 -0.0274  0.6465 -0.5612
10464TIP3    H152807   0.348   1.397  15.075 -0.2453 -0.9306  0.3895
10464TIP3    H252808   0.441   1.362  15.189 -0.7135  1.3644  1.5487
10465TIP3   OH252809   2.670   0.395  13.781  0.8898 -0.1971  0.0520
10465TIP3    H152810   2.710   0.432  13.860 -0.5588  0.9393  0.3005
10465TIP3    H252811   2.627   0.469  13.739 -0.4614 -1.2385 -0.4851
10466TIP3   OH252812   5.689   2.186  10.803 -0.0446 -0.5697  0.4280
10466TIP3    H152813   5.702   2.145  10.889  2.6126 -0.3060  0.2356
10466TIP3    H252814   5.717   2.119  10.741 -2.0317 -0.7932 -0.3111
10467TIP3   OH252815   6.458   3.045   1.847  0.1684  0.3692 -0.1113
10467TIP3    H152816   6.512   3.066   1.924  0.2881  1.0110 -0.3627
10467TIP3    H252817   6.385   3.107   1.853 -0.1459  0.0004 -0.1763
10468TIP3   OH252818   0.330   6.467  17.227  0.2409 -0.0998  0.2521
10468TIP3    H152819   0.371   6.500  17.307  0.0611  2.3256 -0.5666
10468TIP3    H252820   0.396   6.480  17.158 -0.1695 -0.6988 -0.2713
10469TIP3   OH252821   5.164   4.669  16.291 -0.4827 -0.5045 -0.2111
10469TIP3    H152822   5.100   4.737  16.313 -1.4348 -1.4098 -0.1375
10469TIP3    H252823   5.115   4.587  16.295  0.5832 -1.1809 -0.5800
10470TIP3   OH252824   5.853   6.561  16.247  0.2667 -0.1508  0.4913
10470TIP3    H152825   5.852   6.546  16.341  1.2797  1.4961  0.7821
10470TIP3    H252826   5.789   6.630  16.233  0.8305  0.3014  0.1079
10471TIP3   OH252827   0.056   1.587  13.523 -0.5844  0.2151  0.2923
10471TIP3    H152828  -0.010   1.657  13.524 -0.4755  0.4112 -1.8141
10471TIP3    H252829   0.062   1.561  13.431  1.9454 -0.1163  0.4861
10472TIP3   OH252830   0.318   5.750   3.949 -0.2727  0.0300 -0.1583
10472TIP3    H152831   0.255   5.821   3.965  0.6770  1.2660 -1.6606
10472TIP3    H252832   0.378   5.754   4.024  1.0184  2.2812 -1.2054
10473TIP3   OH252833   6.255   2.834  14.857  0.4341  0.4259 -1.0115
10473TIP3    H152834   6.233   2.878  14.939  0.9165 -1.1820  0.0248
10473TIP3    H252835   6.341   2.794  14.873 -0.3589 -1.6361 -1.5449
10474TIP3   OH252836   4.910   5.360  14.166 -0.0709 -0.2734 -0.1421
10474TIP3    H152837   4.964   5.438  14.155 -1.8042  0.8449 -1.2949
10474TIP3    H252838   4.947   5.315  14.242  2.4192  0.4087 -0.8665
10475TIP3   OH252839   0.298   0.827   6.024  0.3109 -0.1468 -0.1512
10475TIP3    H152840   0.365   0.761   6.039 -0.3573 -1.3557 -2.0965
10475TIP3    H252841   0.346   0.906   5.999  1.0739 -0.1907  1.1140
10476TIP3   OH252842   1.669   6.142   1.082  0.2700  0.2418 -0.0056
10476TIP3    H152843   1.588   6.169   1.038  0.2736 -0.8547 -0.7441
10476TIP3    H252844   1.719   6.223   1.092  0.4769  0.5136 -2.5077
10477TIP3   OH252845   4.366   3.801  14.758  0.2302  0.5835 -0.9210
10477TIP3    H152846   4.449   3.822  14.801 -0.3314  1.9513 -0.4424
10477TIP3    H252847   4.391   3.748  14.682  1.4534  0.2371 -0.3054
10478TIP3   OH252848   3.439   3.051  14.476 -0.0622  0.5632 -0.0150
10478TIP3    H152849   3.410   3.001  14.400  0.5679 -0.1808  0.2146
10478TIP3    H252850   3.507   3.109  14.442  0.6329 -0.1788  0.0590
10479TIP3   OH252851   5.996   5.461   0.345 -0.5117 -0.7824  0.2118
10479TIP3    H152852   5.918   5.507   0.377  1.2477  0.8480  2.4798
10479TIP3    H252853   6.051   5.450   0.423  2.3018 -0.2401 -1.5574
10480TIP3   OH252854   0.013   3.067  13.877 -0.2421  0.3608  0.7104
10480TIP3    H152855   0.056   3.016  13.809 -1.1658 -1.2309  1.2697
10480TIP3    H252856  -0.035   3.135  13.829  0.8575  0.6266 -0.0553
10481TIP3   OH252857   3.824   2.230   0.356  0.1463  0.3161  0.1436
10481TIP3    H152858   3.768   2.221   0.279 -0.9167  1.0651  0.7950
10481TIP3    H252859   3.913   2.225   0.322 -0.2713  2.0296 -1.3320
10482TIP3   OH252860   5.942   5.884   4.326  0.0559 -0.2107  0.4003
10482TIP3    H152861   5.875   5.953   4.327  0.2777  0.0804 -1.5329
10482TIP3    H252862   5.979   5.885   4.415 -1.6142  0.4844  1.1161
10483TIP3   OH252863   4.187   4.653   6.069  0.2399 -0.4825  0.7073
10483TIP3    H152864   4.132   4.679   6.143 -0.8805 -0.9433  0.0659
10483TIP3    H252865   4.273   4.637   6.107  0.3690  1.7519  1.5009
10484TIP3   OH252866   1.866   2.043   5.249 -0.1855 -0.1710  0.0444
10484TIP3    H152867   1.874   1.956   5.287  0.4382  0.2824  0.9931
10484TIP3    H252868   1.790   2.081   5.294  1.1586  0.7348  1.6367
10485TIP3   OH252869   4.983   3.209  14.486 -0.0752 -0.4979  0.3024
10485TIP3    H152870   4.918   3.158  14.438  2.4570 -0.7108 -3.3311
10485TIP3    H252871   4.951   3.299  14.480 -0.8757 -0.7825  0.1375
10486TIP3   OH252872   4.541   1.420  12.085  0.1185 -0.3879 -0.7591
10486TIP3    H152873   4.506   1.358  12.149  0.5513 -0.9039 -1.0197
10486TIP3    H252874   4.619   1.377  12.049 -0.3603 -0.2946 -1.9484
10487TIP3   OH252875   5.562   5.855  12.574 -0.2935  0.1187 -0.2932
10487TIP3    H152876   5.595   5.832  12.662  0.7121  0.9176 -0.4431
10487TIP3    H252877   5.638   5.893  12.530 -1.1505  0.9684 -1.0587
10488TIP3   OH252878   1.489   0.935   2.876  0.1026 -0.0538  0.5116
10488TIP3    H152879   1.398   0.929   2.906  0.2125  2.0132  1.3543
10488TIP3    H252880   1.487   0.896   2.788 -1.9006  1.1426 -0.0501
10489TIP3   OH252881   0.144   3.398   0.916  0.6986  0.3479  0.0332
10489TIP3    H152882   0.176   3.442   0.994 -0.1722 -0.2285  0.7442
10489TIP3    H252883   0.125   3.309   0.946  1.6141 -0.2734 -1.1609
10490TIP3   OH252884   5.227   3.238   4.157  0.6374  0.1096 -0.5012
10490TIP3    H152885   5.266   3.323   4.178  1.0672 -0.1062 -0.4300
10490TIP3    H252886   5.299   3.185   4.125  0.3935 -0.2751 -0.4194
10491TIP3   OH252887   6.392   2.279   3.523  0.1039 -0.0457 -0.0027
10491TIP3    H152888   6.440   2.280   3.606  0.5663 -0.9973 -0.2519
10491TIP3    H252889   6.420   2.199   3.479 -3.2400 -1.8203  0.7181
10492TIP3   OH252890   4.743   4.224  14.126 -0.1170 -0.2385  0.2429
10492TIP3    H152891   4.695   4.176  14.058  0.4303  1.7002 -1.6068
10492TIP3    H252892   4.679   4.237  14.196 -1.5273 -0.0299 -1.0310
10493TIP3   OH252893   2.719   1.493   2.423 -0.2861  0.0889 -0.4703
10493TIP3    H152894   2.757   1.481   2.337  1.1708  0.4293  0.1044
10493TIP3    H252895   2.667   1.414   2.438 -1.9253  0.7530 -2.3075
10494TIP3   OH252896   6.366   5.320   4.246 -0.0271  0.5818  0.2584
10494TIP3    H152897   6.430   5.391   4.234  1.1881 -0.1541  1.9425
10494TIP3    H252898   6.337   5.330   4.336 -3.8070  2.0128 -0.9304
10495TIP3   OH252899   4.636   5.975   0.265  0.7162  0.2368 -0.0379
10495TIP3    H152900   4.727   5.961   0.292  0.4556 -2.6542 -0.3373
10495TIP3    H252901   4.643   5.995   0.171  1.0895  1.3409  0.2112
10496TIP3   OH252902   1.654   3.107  12.028 -0.1733  0.2932  0.3997
10496TIP3    H152903   1.729   3.078  12.080  1.0714 -1.0503 -1.9619
10496TIP3    H252904   1.582   3.051  12.057  1.2392 -2.6600 -1.2892
10497TIP3   OH252905   1.773   4.388   5.006  0.4944 -0.4986  0.3202
10497TIP3    H152906   1.838   4.449   5.040 -0.2975 -0.5947  2.1031
10497TIP3    H252907   1.711   4.442   4.958  1.1653 -0.2436 -0.2729
10498TIP3   OH252908   3.529   5.820   0.856 -0.1390 -0.7401 -0.2510
10498TIP3    H152909   3.445   5.774   0.856 -0.7335  0.2965 -1.2275
10498TIP3    H252910   3.536   5.858   0.768  0.9967 -0.1710  0.0619
10499TIP3   OH252911   1.894   5.708  15.084 -0.4097  0.0670 -0.2179
10499TIP3    H152912   1.833   5.672  15.020  0.9274 -0.1701 -1.4090
10499TIP3    H252913   1.840   5.724  15.162 -2.5313  2.0381 -1.9041
10500TIP3   OH252914   5.379   6.314   5.487 -0.5394  0.6810  0.6294
10500TIP3    H152915   5.470   6.290   5.500 -0.3122  1.0937 -0.1659
10500TIP3    H252916   5.348   6.337   5.575  0.1742  0.7382  0.8735
10501TIP3   OH252917   0.207   3.663   2.426 -0.0159  0.7608 -0.2061
10501TIP3    H152918   0.158   3.665   2.508  0.5770  2.4528  0.1633
10501TIP3    H252919   0.239   3.753   2.415  2.9537 -0.2168 -0.4521
10502TIP3   OH252920   4.903   3.031  16.702 -0.6129  0.1600 -0.3255
10502TIP3    H152921   4.953   3.112  16.690 -1.6658  0.8593 -0.1146
10502TIP3    H252922   4.873   3.035  16.793 -0.2759 -0.7128 -0.1667
10503TIP3   OH252923   2.694   3.547  13.416 -0.1159  0.4577 -0.2018
10503TIP3    H152924   2.713   3.610  13.346 -1.3328  0.7290 -0.3094
10503TIP3    H252925   2.634   3.593  13.474 -1.2895 -0.6917 -0.4573
10504TIP3   OH252926   6.031   3.296   7.158 -0.4155  0.2557  0.1585
10504TIP3    H152927   6.012   3.313   7.066 -2.5166 -0.2949  0.4379
10504TIP3    H252928   6.010   3.378   7.203  0.3639  0.4451  0.1886
10505TIP3   OH252929   2.659   4.585  15.032 -0.0608  0.2989  0.3454
10505TIP3    H152930   2.694   4.522  14.969  0.2302 -0.1430  0.9406
10505TIP3    H252931   2.566   4.563  15.039  0.0076  0.0333  0.4323
10506TIP3   OH252932   4.333   1.462  15.556 -0.0714 -0.0751  0.0138
10506TIP3    H152933   4.424   1.440  15.573 -0.2409 -0.6311  0.2228
10506TIP3    H252934   4.324   1.457  15.461 -0.4063 -2.2132  0.0968
10507TIP3   OH252935   1.225   6.015  16.866  0.0220 -0.1426 -0.2612
10507TIP3    H152936   1.180   5.941  16.907  0.4089 -0.2476 -0.0223
10507TIP3    H252937   1.155   6.075  16.841 -0.3224 -0.7518 -0.7898
10508TIP3   OH252938   6.013   1.600  13.048 -0.3184 -0.4008 -0.2384
10508TIP3    H152939   6.007   1.510  13.017  0.0714 -0.7633  0.7099
10508TIP3    H252940   5.946   1.607  13.115  1.1846 -0.6981  1.3532
10509TIP3   OH252941   1.891   2.964  11.377 -0.1517 -0.4050 -0.2021
10509TIP3    H152942   1.807   2.924  11.355  0.6006 -2.0035 -0.3178
10509TIP3    H252943   1.869   3.035  11.437 -1.5145 -1.5034  0.6565
10510TIP3   OH252944   0.193   3.967  11.362 -0.6638 -0.1127 -0.3355
10510TIP3    H152945   0.184   3.872  11.365  1.1838 -0.3089  0.4529
10510TIP3    H252946   0.108   4.000  11.391 -0.9022 -1.5544  0.7310
10511TIP3   OH252947   2.553   2.625  11.378  0.1835  0.3894 -0.2332
10511TIP3    H152948   2.490   2.620  11.451 -0.1767  0.4746 -0.5339
10511TIP3    H252949   2.570   2.718  11.368 -1.4194  0.5840 -1.6375
10512TIP3   OH252950   5.643   2.468   1.775 -0.6739  0.1137 -0.1616
10512TIP3    H152951   5.697   2.434   1.704 -1.5508  0.5371 -1.0597
10512TIP3    H252952   5.578   2.399   1.792 -1.1722  0.4748 -0.5673
10513TIP3   OH252953   5.257   0.030   4.746  0.5685  0.4450  0.4838
10513TIP3    H152954   5.339   0.028   4.696  1.0012  1.1817  1.1303
10513TIP3    H252955   5.271  -0.031   4.818  0.7468  0.9322  0.8702
10514TIP3   OH252956   5.760   4.389   5.270  0.7451  0.1353 -0.3020
10514TIP3    H152957   5.674   4.430   5.262  0.6219  0.2278  1.3489
10514TIP3    H252958   5.769   4.340   5.188 -1.9741 -1.8833  0.4230
10515TIP3   OH252959   1.340   4.242  11.706  0.1184  0.2622  0.2942
10515TIP3    H152960   1.315   4.161  11.661  1.2120 -1.4285  2.5404
10515TIP3    H252961   1.397   4.287  11.644 -1.9205  0.2971 -1.7185
10516TIP3   OH252962   0.756   0.546   6.288 -0.1991 -0.4892  0.9920
10516TIP3    H152963   0.665   0.527   6.310 -0.4461 -1.3892 -0.6502
10516TIP3    H252964   0.753   0.629   6.242  0.1317  0.6189  2.8553
10517TIP3   OH252965   6.241   3.151  16.909  0.2671  0.4618  0.6469
10517TIP3    H152966   6.283   3.143  16.995 -1.0468 -2.2459  1.1351
10517TIP3    H252967   6.313   3.169  16.849  1.2704  1.9976  2.2118
10518TIP3   OH252968   0.155   1.843   0.389 -0.1944 -0.0372  0.8681
10518TIP3    H152969   0.199   1.759   0.375  0.0166  0.2241 -0.1624
10518TIP3    H252970   0.073   1.835   0.340  0.7008  1.0269 -0.9261
10519TIP3   OH252971   4.497   0.585  14.888 -0.4476 -0.1733  0.3383
10519TIP3    H152972   4.431   0.619  14.949 -0.9013  0.8459 -0.6948
10519TIP3    H252973   4.481   0.632  14.806  0.2046 -1.4643 -0.5550
10520TIP3   OH252974   1.583   4.575   3.247 -0.0159  0.3472 -0.2218
10520TIP3    H152975   1.628   4.520   3.312  0.3327 -0.3263 -1.0139
10520TIP3    H252976   1.574   4.660   3.291 -0.1238 -0.1897  0.8433
10521TIP3   OH252977   3.183   0.821  11.985  0.5918 -0.0295  0.5139
10521TIP3    H152978   3.124   0.781  12.048  1.5726 -2.3663  0.0562
10521TIP3    H252979   3.270   0.792  12.011  1.4593  2.1311  0.3058
10522TIP3   OH252980   4.220   5.097  17.396  0.1886 -0.6235 -0.3112
10522TIP3    H152981   4.173   5.155  17.456  0.6428 -0.0491 -0.4963
10522TIP3    H252982   4.154   5.072  17.331 -0.0186 -0.3105 -0.2291
10523TIP3   OH252983   1.511   0.839  13.496 -0.3477 -0.6328 -0.1002
10523TIP3    H152984   1.583   0.844  13.434 -0.5402  0.2173 -0.2721
10523TIP3    H252985   1.509   0.925  13.537 -2.1440 -0.1527 -1.1074
10524TIP3   OH252986   3.485   1.301  12.138  0.0373  0.0024  0.0293
10524TIP3    H152987   3.541   1.230  12.108  0.6277  0.9122 -1.1281
10524TIP3    H252988   3.438   1.265  12.213  0.9362 -1.3223 -0.0100
10525TIP3   OH252989   6.553   2.028   0.481 -0.3046  0.0329  0.1452
10525TIP3    H152990   6.557   1.935   0.460 -0.3169 -0.0702  0.5914
10525TIP3    H252991   6.461   2.045   0.501 -0.3577  0.2110 -0.2496
10526TIP3   OH252992   2.479   4.079  15.420  0.0121 -0.3900 -0.0580
10526TIP3    H152993   2.456   3.991  15.389 -0.0518  0.0352 -1.2821
10526TIP3    H252994   2.499   4.128  15.340 -2.2585  1.3789  0.3563
10527TIP3   OH252995   4.858   5.234   2.169 -0.2388  0.5205 -0.1068
10527TIP3    H152996   4.802   5.277   2.104 -2.7188 -0.6220  1.1359
10527TIP3    H252997   4.910   5.171   2.119 -0.9469  0.7479 -1.1612
10528TIP3   OH252998   4.364   4.675  14.187  0.0048  0.1106 -0.1924
10528TIP3    H152999   4.280   4.712  14.163  0.0501  0.8295  0.7119
10528TIP3    H253000   4.419   4.686  14.109  0.1125  2.2487  0.1223
10529TIP3   OH253001   4.625   5.851  11.600 -0.9256  0.1308  0.0915
10529TIP3    H153002   4.703   5.798  11.582 -0.8544  0.6044 -1.0341
10529TIP3    H253003   4.636   5.929  11.547 -2.5673 -0.1566 -0.7361
10530TIP3   OH253004   2.721   5.321  12.624 -0.4031  0.5268  0.3207
10530TIP3    H153005   2.733   5.335  12.530  2.4577 -2.1922  0.1143
10530TIP3    H253006   2.806   5.343  12.662  0.3208 -3.3277  1.4166
10531TIP3   OH253007   4.219   4.905   1.894 -0.1863  0.4532  0.0047
10531TIP3    H153008   4.267   4.931   1.973  1.0806 -0.9485 -0.2402
10531TIP3    H253009   4.176   4.985   1.864  2.4337  1.9551 -0.0336
10532TIP3   OH253010   6.062   1.354  14.412 -0.0861  0.0894 -0.1715
10532TIP3    H153011   6.138   1.361  14.353  0.5813 -0.3920  0.6050
10532TIP3    H253012   6.099   1.365  14.499 -0.7496 -1.1895  0.2895
10533TIP3   OH253013   1.655   0.086   6.371  0.1603 -0.3176 -0.5940
10533TIP3    H153014   1.601   0.047   6.439  0.3517 -0.9118 -0.7776
10533TIP3    H253015   1.601   0.157   6.335  0.3253  0.4329  0.6092
10534TIP3   OH253016   4.868   6.528  14.833  0.0682 -0.0373  0.3915
10534TIP3    H153017   4.870   6.454  14.893  1.5196 -0.0285  0.4051
10534TIP3    H253018   4.874   6.489  14.746 -2.1235 -0.0553  0.2018
10535TIP3   OH253019   3.220   0.389  13.408  0.0441 -0.4403 -0.0686
10535TIP3    H153020   3.295   0.383  13.349 -0.3854 -0.4386 -0.6290
10535TIP3    H253021   3.240   0.329  13.479  0.3320 -0.8468 -0.4896
10536TIP3   OH253022   0.934   5.478  12.430  0.0072  0.5209 -0.3833
10536TIP3    H153023   0.876   5.416  12.476 -2.1496  1.5727 -1.5221
10536TIP3    H253024   0.946   5.439  12.343  0.8113  0.4524 -0.2467
10537TIP3   OH253025   0.900   6.410   5.533 -0.0820 -0.1372  0.1674
10537TIP3    H153026   0.971   6.442   5.588 -0.4597  0.8687  0.0853
10537TIP3    H253027   0.935   6.331   5.492  1.1004  0.5284 -0.1300
10538TIP3   OH253028   5.455   3.344  16.310 -0.4520  0.2921  0.0428
10538TIP3    H153029   5.476   3.287  16.237  1.5256 -0.0623  0.8234
10538TIP3    H253030   5.401   3.290  16.368 -0.5006 -0.0144 -0.2806
10539TIP3   OH253031   5.214   2.130  12.620 -0.8290 -0.5150 -0.1344
10539TIP3    H153032   5.232   2.183  12.542  0.4608 -0.6090  0.0632
10539TIP3    H253033   5.125   2.098  12.608 -1.1094  0.5220 -0.9483
10540TIP3   OH253034   4.708   0.970   6.372 -0.3945  0.2484 -0.1383
10540TIP3    H153035   4.655   0.892   6.359  0.1287 -0.1156 -0.1373
10540TIP3    H253036   4.699   0.989   6.466 -1.0907  0.6080 -0.2793
10541TIP3   OH253037   4.329   6.469  11.869  0.2560 -0.0735  0.0605
10541TIP3    H153038   4.330   6.512  11.783 -0.6274 -1.2449 -0.5600
10541TIP3    H253039   4.277   6.527  11.924  0.2640  0.3587 -0.3735
10542TIP3   OH253040   1.220   2.256   2.642 -0.0264 -0.1406 -0.8133
10542TIP3    H153041   1.219   2.176   2.590  0.4839  0.3693 -1.6303
10542TIP3    H253042   1.291   2.244   2.705  1.5820  0.5356 -2.3922
10543TIP3   OH253043   4.171   0.472   4.940 -0.1678  0.5794 -0.4748
10543TIP3    H153044   4.090   0.433   4.972  0.0481  0.3481 -0.2064
10543TIP3    H253045   4.147   0.561   4.915 -0.6926  0.2539 -1.1870
10544TIP3   OH253046   1.766   0.113   4.135  0.4964  0.5089 -0.0259
10544TIP3    H153047   1.798   0.114   4.225 -0.8824 -0.2798  0.4901
10544TIP3    H253048   1.750   0.021   4.115 -0.9784  0.8251 -0.4203
10545TIP3   OH253049   2.622   4.978   5.645  0.1392 -0.6152  0.4744
10545TIP3    H153050   2.649   5.065   5.613  0.9696 -1.2413 -0.6259
10545TIP3    H253051   2.705   4.934   5.666  0.0001 -2.1835 -1.8479
10546TIP3   OH253052   6.121   3.041   1.420 -0.1279  0.1652  0.1782
10546TIP3    H153053   6.143   3.087   1.339 -1.2572 -0.3559 -0.4402
10546TIP3    H253054   6.196   3.057   1.477  0.9352  0.0968 -1.1461
10547TIP3   OH253055   6.261   2.172   2.564 -0.1696 -0.0222 -0.2405
10547TIP3    H153056   6.175   2.214   2.571 -0.7288 -1.1390 -0.0754
10547TIP3    H253057   6.247   2.099   2.504  0.0769 -1.6038  1.5342
10548TIP3   OH253058   3.031   1.262  13.744 -0.1023  0.1751  0.0397
10548TIP3    H153059   3.030   1.342  13.797 -1.1375  0.3455 -0.2034
10548TIP3    H253060   3.046   1.192  13.807  1.1708  0.5845  0.2068
10549TIP3   OH253061   6.691   4.531  14.419 -0.0086 -0.1658 -0.3217
10549TIP3    H153062   6.693   4.544  14.514 -0.6772  0.7201 -0.4161
10549TIP3    H253063   6.601   4.552  14.394 -0.3202 -2.0646 -0.9412
10550TIP3   OH253064   6.654   4.295   4.134  0.1834  0.0339  0.1045
10550TIP3    H153065   6.657   4.382   4.175  0.9517  0.0004  0.1384
10550TIP3    H253066   6.576   4.297   4.078  0.4777  0.9205 -0.2840
10551TIP3   OH253067   6.443   5.141  17.065 -0.1744 -0.2414  0.6219
10551TIP3    H153068   6.466   5.201  16.995  1.9853 -0.0051  1.4498
10551TIP3    H253069   6.434   5.056  17.021  1.1135 -0.0947  0.0075
10552TIP3   OH253070   2.323   0.076   6.359 -0.0888  0.4645  0.0181
10552TIP3    H153071   2.245   0.132   6.353  0.2004  1.1086  1.7134
10552TIP3    H253072   2.317   0.036   6.446  0.7799 -0.5697 -0.3711
10553TIP3   OH253073   4.915   2.071  16.436  0.4014 -0.1315 -0.0317
10553TIP3    H153074   4.856   2.116  16.377  0.2897 -0.6654 -0.3283
10553TIP3    H253075   4.891   1.978  16.429  0.0137 -0.1495  1.2581
10554TIP3   OH253076   5.744   0.433  15.519 -0.0984  0.3517 -0.1673
10554TIP3    H153077   5.723   0.376  15.446 -1.8675 -0.8678  1.2082
10554TIP3    H253078   5.709   0.519  15.494  0.1655  0.1863 -1.1264
10555TIP3   OH253079   1.806   1.549   2.961 -0.2457  0.8543 -0.1536
10555TIP3    H153080   1.853   1.632   2.970  0.4840  0.3572  0.8181
10555TIP3    H253081   1.874   1.482   2.969 -0.8977  0.1490 -0.3742
10556TIP3   OH253082   3.461   6.363  10.768 -0.2007  0.3318 -0.0195
10556TIP3    H153083   3.547   6.402  10.784  0.2196 -0.5729 -0.0486
10556TIP3    H253084   3.405   6.438  10.746  0.6930  0.8698 -0.5164
10557TIP3   OH253085   3.746   2.246  11.223  0.8357  0.2228  0.1160
10557TIP3    H153086   3.659   2.243  11.183  0.7020  1.0112  0.3167
10557TIP3    H253087   3.786   2.325  11.187  0.9410  0.6144  1.0533
10558TIP3   OH253088   1.647   0.488  13.388  0.1991 -0.0233  0.3888
10558TIP3    H153089   1.607   0.558  13.439  0.7273 -0.1669  1.0162
10558TIP3    H253090   1.736   0.518  13.372 -0.0701  0.1916 -0.7948
10559TIP3   OH253091   5.442   3.915  15.965  0.6494  0.4755  0.1830
10559TIP3    H153092   5.485   3.949  16.044  0.7911  1.1678 -0.1755
10559TIP3    H253093   5.456   3.984  15.900  0.2317  0.0655 -0.3459
10560TIP3   OH253094   2.355   4.278  15.590  0.1096  0.5673  0.7477
10560TIP3    H153095   2.411   4.352  15.566  1.5229  0.1574  2.5689
10560TIP3    H253096   2.392   4.204  15.543 -0.4026  0.7332  0.0730
10561TIP3   OH253097   5.033   0.970   5.353  0.8004 -1.0501 -0.1713
10561TIP3    H153098   5.039   0.885   5.309  1.6118  0.0375 -2.2893
10561TIP3    H253099   4.976   1.022   5.297  0.5187 -0.0928  0.9675
10562TIP3   OH253100   3.171   1.262   2.143 -0.2842 -0.7819  0.4545
10562TIP3    H153101   3.162   1.249   2.048 -0.1594 -1.2316  0.5008
10562TIP3    H253102   3.263   1.284   2.155 -0.2283 -1.0409  0.5044
10563TIP3   OH253103   0.696   1.525  14.628  0.1733 -0.2908 -0.8352
10563TIP3    H153104   0.762   1.540  14.695  0.5013 -1.3529 -0.8928
10563TIP3    H253105   0.625   1.585  14.649  0.3985 -0.4055  0.2988
10564TIP3   OH253106   1.543   6.081   3.562  0.0204 -0.0370 -0.5106
10564TIP3    H153107   1.509   6.026   3.491  2.6447 -0.8073 -1.2686
10564TIP3    H253108   1.547   6.169   3.524 -1.6253  0.2131 -0.1876
10565TIP3   OH253109   4.700   4.508  15.503 -0.4199  0.7252 -0.8340
10565TIP3    H153110   4.789   4.478  15.487 -0.7917 -1.0287  0.1927
10565TIP3    H253111   4.644   4.441  15.465 -1.3486  1.9929 -1.8151
10566TIP3   OH253112   0.472   0.215  12.812 -0.4704  0.8567  0.2037
10566TIP3    H153113   0.474   0.120  12.813 -1.0987  0.7205  4.1593
10566TIP3    H253114   0.476   0.238  12.719  0.6403 -2.9381 -0.8627
10567TIP3   OH253115   5.330   0.838  11.270  0.3934 -0.1751 -0.0413
10567TIP3    H153116   5.402   0.881  11.316  0.1795  0.9836 -0.7665
10567TIP3    H253117   5.316   0.891  11.192 -1.5833 -0.1103  0.3186
10568TIP3   OH253118   5.649   3.762   5.371  0.1492  0.4866  0.7536
10568TIP3    H153119   5.705   3.758   5.294  1.8838 -1.8463  1.9887
10568TIP3    H253120   5.562   3.736   5.339  0.5614  0.6673 -0.5784
10569TIP3   OH253121   6.112   1.658   5.273 -0.1936  0.7450  0.3538
10569TIP3    H153122   6.154   1.730   5.225  0.3075  0.9546  1.0776
10569TIP3    H253123   6.045   1.625   5.214  1.1729  0.2186 -0.9681
10570TIP3   OH253124   0.089   0.365   3.910  0.4807  0.9721  0.5973
10570TIP3    H153125   0.039   0.389   3.988 -1.0688 -1.4771  0.4517
10570TIP3    H253126   0.023   0.357   3.841  1.3921 -0.1065 -0.1795
10571TIP3   OH253127   2.393   6.509   2.441  0.0279  0.1273  0.3360
10571TIP3    H153128   2.392   6.414   2.434  3.7306  0.0276 -2.0019
10571TIP3    H253129   2.351   6.539   2.360 -1.0543  0.5214  1.0266
10572TIP3   OH253130   4.515   2.747   4.719  0.2012 -0.2173 -0.5963
10572TIP3    H153131   4.479   2.684   4.781  1.6241  0.5470  1.0829
10572TIP3    H253132   4.604   2.715   4.702  0.1393  0.0918 -1.5342
10573TIP3   OH253133   4.402   5.717  15.172 -0.2588  0.0819 -0.2243
10573TIP3    H153134   4.451   5.634  15.167 -1.6792 -0.8727  0.9551
10573TIP3    H253135   4.310   5.690  15.172 -0.7391  1.6144  1.1124
10574TIP3   OH253136   5.939   5.709  16.797  0.2599  0.1654 -0.2763
10574TIP3    H153137   5.858   5.702  16.748  0.7248 -0.0841 -1.0206
10574TIP3    H253138   5.936   5.796  16.836 -1.4610 -0.6878  1.6921
10575TIP3   OH253139   2.754   6.675  12.804 -0.3867 -0.7739  0.6181
10575TIP3    H153140   2.715   6.630  12.878 -1.1641 -1.5175 -0.2238
10575TIP3    H253141   2.831   6.623  12.782 -1.2343 -1.6950 -0.2978
10576TIP3   OH253142   4.211   0.564   3.933  0.1912 -0.4994  0.3786
10576TIP3    H153143   4.238   0.651   3.964  1.7889 -0.5518 -0.7399
10576TIP3    H253144   4.117   0.571   3.921  0.2226  0.9347  0.7459
10577TIP3   OH253145   3.567   2.066  16.221  0.2048  0.2154  0.1845
10577TIP3    H153146   3.576   2.136  16.157 -2.4108  1.0375  0.6060
10577TIP3    H253147   3.657   2.050  16.251  1.0704  2.2984 -1.0302
10578TIP3   OH253148   2.497   5.856   3.504 -0.3497 -0.4904  0.3595
10578TIP3    H153149   2.507   5.816   3.418  0.3227  0.0203  0.1875
10578TIP3    H253150   2.519   5.948   3.490  1.1160 -0.6647  1.3428
10579TIP3   OH253151   4.345   0.599   0.402  0.3142 -0.4052  0.1132
10579TIP3    H153152   4.349   0.643   0.486 -0.0281 -1.7218  0.8458
10579TIP3    H253153   4.436   0.577   0.382  0.4676  0.4496 -0.1782
10580TIP3   OH253154   4.708   4.111  14.591 -0.2360 -0.1585 -0.2140
10580TIP3    H153155   4.783   4.055  14.573 -0.4834 -0.2743 -0.8950
10580TIP3    H253156   4.676   4.137  14.505 -0.0203  1.1692  0.0870
10581TIP3   OH253157   5.767   0.589  16.647 -0.4458 -0.0098  0.7040
10581TIP3    H153158   5.839   0.582  16.585  1.0299  0.7123  2.2378
10581TIP3    H253159   5.754   0.500  16.679  0.2699 -0.0365  0.9359
10582TIP3   OH253160   5.850   3.072   0.582  0.5046  0.0019  0.9418
10582TIP3    H153161   5.926   3.064   0.640  0.3984  3.8724  1.9100
10582TIP3    H253162   5.864   3.154   0.535 -3.2067  1.1299  1.4814
10583TIP3   OH253163   1.905   0.722   4.469 -0.1505 -0.2167 -0.2255
10583TIP3    H153164   1.880   0.660   4.401 -0.5799 -0.3346  0.0326
10583TIP3    H253165   1.890   0.808   4.430 -0.3781 -0.2839 -0.2898
10584TIP3   OH253166   4.291   3.517  13.692 -0.5169 -0.6528 -0.1888
10584TIP3    H153167   4.230   3.516  13.619 -1.9221  1.5015  0.8642
10584TIP3    H253168   4.368   3.564  13.659 -0.1853 -1.6810 -0.9300
10585TIP3   OH253169   6.074   0.278  12.601 -0.3489 -0.2446  0.9938
10585TIP3    H153170   6.118   0.353  12.641  1.0293 -0.2065 -0.5099
10585TIP3    H253171   6.103   0.203  12.652  1.8090 -0.2673 -0.1453
10586TIP3   OH253172   3.204   4.482  12.147  0.3935  0.0401 -0.1150
10586TIP3    H153173   3.239   4.511  12.232 -1.3087  0.6997  0.4045
10586TIP3    H253174   3.262   4.411  12.121  2.6920  1.6739  0.2071
10587TIP3   OH253175   6.474   0.059   3.918  0.3796 -0.2079 -0.2773
10587TIP3    H153176   6.509   0.034   4.003 -0.5875 -1.1535 -0.1299
10587TIP3    H253177   6.431   0.143   3.933  0.7448 -0.0720  0.0193
10588TIP3   OH253178   6.477   4.455  13.190 -0.2187  0.3333  0.0745
10588TIP3    H153179   6.400   4.403  13.168  0.9275 -1.3641 -0.0932
10588TIP3    H253180   6.496   4.432  13.281 -0.6720  1.7752  0.5619
10589TIP3   OH253181   6.546   0.608  13.932  0.2032 -0.0425 -0.4968
10589TIP3    H153182   6.498   0.622  13.850 -0.1688 -0.6945 -0.4046
10589TIP3    H253183   6.621   0.667  13.927  0.8768 -0.9558 -1.8794
10590TIP3   OH253184   2.108   2.971  14.565  0.0514 -0.4344 -0.5962
10590TIP3    H153185   2.109   3.036  14.635 -3.9800 -1.4665  0.6832
10590TIP3    H253186   2.173   2.906  14.592  1.9513  1.4389 -0.3537
10591TIP3   OH253187   1.394   2.924   6.510  0.5778  0.4430 -0.5181
10591TIP3    H153188   1.434   2.991   6.566  1.6856 -0.3054 -0.3727
10591TIP3    H253189   1.469   2.875   6.476 -0.0983  0.5654 -2.2771
10592TIP3   OH253190   2.893   3.030  11.317 -0.0571 -0.1749 -0.1465
10592TIP3    H153191   2.955   3.099  11.296 -0.0188  0.3184  1.4438
10592TIP3    H253192   2.825   3.074  11.369 -1.5959 -0.7601 -1.5527
10593TIP3   OH253193   2.362   5.923  11.793 -0.0286 -0.2881 -0.1110
10593TIP3    H153194   2.267   5.922  11.797 -0.0697 -3.3241  0.2466
10593TIP3    H253195   2.391   5.869  11.866  1.9788  0.1038 -0.5321
10594TIP3   OH253196   3.307   5.977   2.722  0.0752 -0.0784 -0.2185
10594TIP3    H153197   3.319   5.899   2.668 -2.2027  0.1946 -1.2349
10594TIP3    H253198   3.371   5.968   2.792  1.7713 -1.4498 -1.8341
10595TIP3   OH253199   3.094   1.062  13.063 -0.0712 -0.2662 -0.2516
10595TIP3    H153200   3.151   1.014  13.123 -0.5363 -1.1910 -0.5382
10595TIP3    H253201   3.019   1.087  13.116 -0.0688 -0.3107 -0.2275
10596TIP3   OH253202   2.839   0.639  13.454  0.0044  0.1475  0.0714
10596TIP3    H153203   2.821   0.545  13.453 -0.6914  0.2630 -1.3032
10596TIP3    H253204   2.928   0.647  13.487  1.1522 -1.2346 -2.4625
10597TIP3   OH253205   4.415   3.887   1.672  0.1141  0.0210 -0.2211
10597TIP3    H153206   4.391   3.867   1.581 -2.2480 -0.4992  0.4429
10597TIP3    H253207   4.429   3.801   1.712  1.4074  0.2579 -0.1075
10598TIP3   OH253208   2.305   2.960   0.849 -0.0176  0.5150  0.2222
10598TIP3    H153209   2.225   2.910   0.841 -0.9755  1.8573  0.9593
10598TIP3    H253210   2.284   3.029   0.912  0.9722  2.3311 -1.3245
10599TIP3   OH253211   0.196   0.682   1.874 -0.3455  0.2362  0.0551
10599TIP3    H153212   0.117   0.637   1.903 -1.7212  0.6571 -2.7373
10599TIP3    H253213   0.248   0.614   1.832  0.7534  0.0155  1.6589
10600TIP3   OH253214   4.100   3.966  17.085  0.1117  0.1732  0.4139
10600TIP3    H153215   4.084   3.916  17.165 -1.0003 -1.1287 -0.5730
10600TIP3    H253216   4.078   3.906  17.015 -1.9857  2.2677 -0.8423
10601TIP3   OH253217   1.228   3.897   2.589 -0.1709 -0.2494 -0.0286
10601TIP3    H153218   1.183   3.982   2.592 -2.8473 -1.5750  0.4064
10601TIP3    H253219   1.237   3.873   2.682 -0.7157 -1.0449 -0.1764
10602TIP3   OH253220   3.802   6.489   5.250  0.3597 -0.0616 -0.4605
10602TIP3    H153221   3.781   6.454   5.336 -1.1889 -1.5224 -1.3459
10602TIP3    H253222   3.754   6.432   5.189  1.6069  0.7511 -2.3021
10603TIP3   OH253223   0.666   4.591   2.681 -0.5613  0.4904  0.1306
10603TIP3    H153224   0.648   4.507   2.639 -2.9877  0.8438  0.3049
10603TIP3    H253225   0.636   4.657   2.618  0.9263  1.2297  0.1655
10604TIP3   OH253226   5.410   1.777  16.018  0.5855 -0.1974 -0.4336
10604TIP3    H153227   5.402   1.689  16.053 -0.2993 -0.7418 -1.8812
10604TIP3    H253228   5.341   1.782  15.951  0.5808  1.6070 -0.3481
10605TIP3   OH253229   1.892   4.587   2.550 -0.0218 -0.1671 -0.1005
10605TIP3    H153230   1.964   4.648   2.566  0.3776 -0.7028  0.1815
10605TIP3    H253231   1.930   4.501   2.564 -0.0947 -0.6145 -2.2949
10606TIP3   OH253232   4.765   5.874  16.031  0.0683  1.0346  0.1909
10606TIP3    H153233   4.702   5.810  16.065 -0.1269  0.6897 -0.7875
10606TIP3    H253234   4.742   5.955  16.076 -2.0937  1.2815 -1.2365
10607TIP3   OH253235   4.425   5.499   0.239  0.3368 -0.5965  0.4017
10607TIP3    H153236   4.479   5.483   0.161 -0.4605 -0.4230 -0.2005
10607TIP3    H253237   4.467   5.573   0.283  0.3407 -0.1676 -0.3054
10608TIP3   OH253238   2.562   2.358   3.703  0.1886  0.3854  0.2323
10608TIP3    H153239   2.519   2.346   3.788  0.2334 -0.3637  0.1521
10608TIP3    H253240   2.490   2.382   3.644  0.2287  1.4068  0.5759
10609TIP3   OH253241   0.986   3.869   0.361 -0.2044 -0.1662 -0.8204
10609TIP3    H153242   0.966   3.952   0.404  0.5338 -0.6411  0.4686
10609TIP3    H253243   0.955   3.881   0.271 -1.2956  1.0326 -0.3112
10610TIP3   OH253244   5.501   2.492   0.448 -0.1755  0.1453  0.3868
10610TIP3    H153245   5.499   2.554   0.521  0.4018 -0.6310  1.0793
10610TIP3    H253246   5.409   2.478   0.426 -0.3115  2.5308 -0.9378
10611TIP3   OH253247   0.431   3.242   3.213 -0.8732 -0.5309 -0.1945
10611TIP3    H153248   0.505   3.302   3.208 -0.5997 -0.7848  0.5980
10611TIP3    H253249   0.456   3.167   3.160 -0.4395 -0.7338  0.2868
10612TIP3   OH253250   3.154   2.129   1.010  0.1423 -0.2751  0.0856
10612TIP3    H153251   3.072   2.173   0.987 -0.1921 -0.7585  0.3265
10612TIP3    H253252   3.179   2.168   1.094  0.5701  0.4203 -0.3598
10613TIP3   OH253253   0.055   2.254   0.789 -0.3573 -0.5337  0.4699
10613TIP3    H153254   0.138   2.287   0.821  0.0745 -1.0828 -0.0496
10613TIP3    H253255   0.068   2.243   0.694 -1.5875  1.0469  0.0750
10614TIP3   OH253256   2.682   2.517   5.851 -0.0703 -0.2309  0.0305
10614TIP3    H153257   2.728   2.474   5.779 -0.2683 -0.6133  0.1273
10614TIP3    H253258   2.751   2.558   5.902  0.0050  0.7413 -0.8223
10615TIP3   OH253259   1.280   6.252   1.483 -0.3069  0.0452 -0.1065
10615TIP3    H153260   1.345   6.193   1.444  1.8864 -0.4266  3.8086
10615TIP3    H253261   1.222   6.195   1.532 -1.9221  0.7647 -1.0893
10616TIP3   OH253262   4.465   4.042   0.075 -0.4721 -0.5386 -0.0239
10616TIP3    H153263   4.433   4.131   0.093  0.0053 -0.0297 -1.5683
10616TIP3    H253264   4.421   4.016  -0.005  1.1660 -0.7485 -0.8994
10617TIP3   OH253265   6.481   4.993   5.887 -0.5141  0.4279 -0.3118
10617TIP3    H153266   6.400   5.019   5.842 -1.5503 -1.7065  0.2249
10617TIP3    H253267   6.485   5.050   5.964 -1.8944  0.1002  0.0312
10618TIP3   OH253268   0.005   5.401  14.935  0.1305  0.1446 -0.1368
10618TIP3    H153269  -0.087   5.428  14.935  0.3301  1.1156  2.2821
10618TIP3    H253270   0.037   5.421  14.847 -1.9756 -0.3366 -1.0553
10619TIP3   OH253271   1.558   4.378  12.938 -0.1511  0.8469 -0.0334
10619TIP3    H153272   1.582   4.307  12.999 -2.3989 -1.5559 -1.7313
10619TIP3    H253273   1.642   4.408  12.902  0.8698 -1.8888 -0.1850
10620TIP3   OH253274   3.638   6.738   2.892 -0.5719 -0.0289 -0.4873
10620TIP3    H153275   3.662   6.655   2.932  0.0052 -1.2822 -3.2301
10620TIP3    H253276   3.712   6.761   2.836  0.3103  3.5642  1.7759
10621TIP3   OH253277   2.083   3.393  14.961 -0.5865 -0.3405 -0.1896
10621TIP3    H153278   2.061   3.421  14.872 -1.3441  1.3267  0.4864
10621TIP3    H253279   1.998   3.379  15.004 -0.2795  0.6474  0.7911
10622TIP3   OH253280   2.693   5.538   4.321 -0.1351 -0.2414  0.2385
10622TIP3    H153281   2.607   5.500   4.339  0.0599 -0.1639  1.4902
10622TIP3    H253282   2.749   5.504   4.391  0.5682  0.6177  0.1179
10623TIP3   OH253283   1.170   4.067  12.070  0.2315  0.1651  0.5443
10623TIP3    H153284   1.238   4.019  12.021 -1.4853 -0.7554 -1.0953
10623TIP3    H253285   1.196   4.059  12.161  1.5957 -1.3752  0.0732
10624TIP3   OH253286   6.198   2.146  12.386 -0.2860  0.0643  0.2255
10624TIP3    H153287   6.166   2.233  12.366 -1.1885  0.5036  3.1094
10624TIP3    H253288   6.138   2.112  12.452  0.0670 -2.7583 -0.7380
10625TIP3   OH253289   2.751   5.251  16.760 -0.6632  0.3000 -0.1389
10625TIP3    H153290   2.656   5.249  16.748 -0.7466 -2.9296  0.1863
10625TIP3    H253291   2.762   5.238  16.854  0.0698 -1.7127 -0.4753
10626TIP3   OH253292   1.814   6.509   3.462 -0.0141 -0.3535 -0.4530
10626TIP3    H153293   1.886   6.482   3.520 -0.6835 -3.1397 -0.7991
10626TIP3    H253294   1.762   6.569   3.516 -0.3939 -2.5330  1.8186
10627TIP3   OH253295   3.213   2.931   5.754 -0.2186  0.0891 -0.4714
10627TIP3    H153296   3.251   3.017   5.735  1.0020 -0.0570  1.0219
10627TIP3    H253297   3.158   2.946   5.831  3.2174 -1.0212  2.5407
10628TIP3   OH253298   4.329   3.599   6.514  0.5281 -0.3263 -0.1092
10628TIP3    H153299   4.360   3.508   6.519 -0.3082 -0.6483 -0.5559
10628TIP3    H253300   4.269   3.599   6.439  1.2334  0.8209 -0.6877
10629TIP3   OH253301   4.909   1.699  16.930  0.4440 -0.2831 -0.2144
10629TIP3    H153302   4.987   1.747  16.902  0.7452  0.3817  1.6156
10629TIP3    H253303   4.858   1.763  16.978  1.3112 -1.8942  3.1495
10630TIP3   OH253304   2.269   5.340   2.652  0.6457  0.1959  0.1865
10630TIP3    H153305   2.356   5.349   2.613 -0.2070  0.5392 -1.7803
10630TIP3    H253306   2.219   5.292   2.586 -0.8612  0.6666  0.9475
10631TIP3   OH253307   2.235   6.645   3.844 -0.7131 -0.3194 -0.0998
10631TIP3    H153308   2.236   6.585   3.770 -1.9813 -0.8244  0.2647
10631TIP3    H253309   2.148   6.635   3.882  0.0229 -0.3742  1.6908
10632TIP3   OH253310   4.304   4.224  14.341 -0.0784 -0.0974 -0.1736
10632TIP3    H153311   4.255   4.195  14.418 -0.7913  0.6106 -0.3444
10632TIP3    H253312   4.272   4.167  14.270  0.5209 -0.6969  0.0299
10633TIP3   OH253313   5.808   2.225   0.933 -0.3430 -0.7194 -0.4371
10633TIP3    H153314   5.746   2.180   0.991 -0.1516 -0.5191 -0.0743
10633TIP3    H253315   5.753   2.266   0.866 -0.7165  0.4295  0.5344
10634TIP3   OH253316   0.573   3.119   4.946 -0.2872  0.4055 -0.4088
10634TIP3    H153317   0.573   3.199   4.998 -3.6933  0.7468 -0.7102
10634TIP3    H253318   0.602   3.050   5.006 -1.0979  1.2756  1.0307
10635TIP3   OH253319   2.769   0.454  15.488  0.4918  0.2435  0.2533
10635TIP3    H153320   2.808   0.421  15.407 -1.9200  1.2790 -1.4816
10635TIP3    H253321   2.690   0.499  15.459 -1.3302 -0.6487  3.3648
10636TIP3   OH253322   4.899   4.547   1.293 -0.4259 -0.0720  0.7457
10636TIP3    H153323   4.842   4.619   1.318  1.3354  1.4875  0.4752
10636TIP3    H253324   4.978   4.559   1.347  0.1551 -1.4415  0.2553
10637TIP3   OH253325   4.296   4.903   1.586 -0.2104  0.3558 -0.5988
10637TIP3    H153326   4.326   4.994   1.582  1.8331 -0.2818 -0.7537
10637TIP3    H253327   4.269   4.891   1.678  2.5140  0.2662  0.2647
10638TIP3   OH253328   5.330   6.476   0.700  0.2364 -0.2580  0.1919
10638TIP3    H153329   5.361   6.503   0.613 -0.3123 -0.1137  0.0387
10638TIP3    H253330   5.410   6.466   0.752  0.5830 -0.5304 -0.3834
10639TIP3   OH253331   4.352   0.000  13.900 -0.0739  0.0083  0.1800
10639TIP3    H153332   4.344  -0.021  13.807  2.7723 -1.0367  0.0674
10639TIP3    H253333   4.263  -0.007  13.934 -0.9900 -0.8748 -2.1992
10640TIP3   OH253334   0.267   5.670  10.785 -0.1152  0.1596 -0.1209
10640TIP3    H153335   0.351   5.703  10.753 -0.0526  0.0359 -0.0853
10640TIP3    H253336   0.263   5.580  10.753 -0.0514  0.0350  0.2252
10641TIP3   OH253337   2.281   0.536  16.197 -0.3780  0.3749 -0.2494
10641TIP3    H153338   2.217   0.538  16.269 -2.4220 -0.6241 -1.9365
10641TIP3    H253339   2.270   0.620  16.153 -2.0788 -0.5230 -1.7059
10642TIP3   OH253340   2.641   2.053   2.908  0.0045 -0.6850 -0.1523
10642TIP3    H153341   2.636   2.131   2.854 -2.1803 -0.6451  0.0217
10642TIP3    H253342   2.598   1.985   2.856  4.5313 -2.7962 -1.7201
10643TIP3   OH253343   4.380   1.249   5.500 -0.0398  0.7163 -0.2677
10643TIP3    H153344   4.345   1.216   5.583 -2.6374  1.2126 -1.0602
10643TIP3    H253345   4.393   1.342   5.515  2.5436  0.3129  0.4636
10644TIP3   OH253346   5.233   4.659  14.807  0.6628  0.0742  0.2465
10644TIP3    H153347   5.164   4.593  14.814  0.6093  0.0553 -0.3439
10644TIP3    H253348   5.300   4.618  14.751  1.3174 -0.0386  1.0891
10645TIP3   OH253349   1.268   4.285  16.529  0.1412 -0.6005 -0.3220
10645TIP3    H153350   1.269   4.263  16.436  2.3876  0.7267 -0.7097
10645TIP3    H253351   1.282   4.380  16.531 -0.8908 -0.4437  1.3752
10646TIP3   OH253352   3.984   1.575   0.289  1.0930 -0.0117  0.4205
10646TIP3    H153353   3.991   1.598   0.382  1.3476  2.1496 -0.0828
10646TIP3    H253354   3.894   1.544   0.278  1.6139 -2.2668  1.7217
10647TIP3   OH253355   6.737   6.276  15.112 -0.0189 -0.2657  0.2494
10647TIP3    H153356   6.659   6.227  15.136 -0.6439  1.1622  1.2443
10647TIP3    H253357   6.798   6.261  15.184  0.5456 -1.1494 -0.3916
10648TIP3   OH253358   5.023   2.319  16.630 -0.3722  0.0602  0.2276
10648TIP3    H153359   5.038   2.225  16.641  2.0699  0.5590  1.9238
10648TIP3    H253360   5.108   2.355  16.608 -1.4318  1.8252 -1.2584
10649TIP3   OH253361   5.100   0.134   2.273  0.0403  0.3286 -0.6427
10649TIP3    H153362   5.102   0.202   2.206 -2.9442  1.1088 -0.0843
10649TIP3    H253363   5.007   0.127   2.297  0.3566 -3.2694  0.0337
10650TIP3   OH253364   3.405   5.378  12.587 -0.2619 -0.3520 -0.5674
10650TIP3    H153365   3.465   5.354  12.516 -0.1794 -1.6075 -0.0944
10650TIP3    H253366   3.330   5.319  12.576 -1.1089  0.7355 -0.7404
10651TIP3   OH253367   3.569   0.465   0.786  0.0639  0.0103 -0.1614
10651TIP3    H153368   3.539   0.554   0.770 -0.1548 -0.1167 -0.4766
10651TIP3    H253369   3.586   0.462   0.880  0.6170  0.5446 -0.2396
10652TIP3   OH253370   3.998   2.647   0.811 -0.0508 -0.0533  0.0778
10652TIP3    H153371   3.955   2.733   0.808  0.5789  0.2750  0.3515
10652TIP3    H253372   4.047   2.643   0.729 -0.4474 -0.3492 -0.1473
10653TIP3   OH253373   2.296   6.341   4.230 -0.1641  0.6827  0.0664
10653TIP3    H153374   2.280   6.394   4.308  0.0898 -1.2811  1.5241
10653TIP3    H253375   2.208   6.314   4.202 -0.1896  0.4005  0.4081
10654TIP3   OH253376   0.734   3.608  17.031 -0.3540  0.2508  0.3896
10654TIP3    H153377   0.771   3.680  16.980 -1.4993  0.5301 -0.0794
10654TIP3    H253378   0.639   3.618  17.022 -0.5473 -1.7916 -0.3688
10655TIP3   OH253379   1.322   0.191  12.380  0.1985  0.1981  0.4012
10655TIP3    H153380   1.231   0.198  12.352  0.3240  0.2326 -0.0137
10655TIP3    H253381   1.318   0.153  12.468 -0.2137  0.2141  0.3904
10656TIP3   OH253382   1.437   4.033  13.061 -0.2911 -0.3981 -0.1048
10656TIP3    H153383   1.388   4.096  13.008  0.2630  0.4296  0.3373
10656TIP3    H253384   1.380   3.957  13.067 -0.6208 -0.2837 -1.3758
10657TIP3   OH253385   5.455   3.669   3.176 -0.1221  0.2503  1.0233
10657TIP3    H153386   5.365   3.636   3.182  0.7384 -1.9398  3.9883
10657TIP3    H253387   5.495   3.616   3.107 -0.1975 -1.3248  2.1451
10658TIP3   OH253388   6.401   1.412   5.091  0.3344  0.3454 -0.3294
10658TIP3    H153389   6.429   1.368   5.171  0.3500  1.2186  0.1556
10658TIP3    H253390   6.385   1.502   5.118 -2.1601  0.0866 -0.7384
10659TIP3   OH253391   3.795   6.218  15.124 -0.3681 -0.1533  0.0928
10659TIP3    H153392   3.886   6.230  15.096 -0.6682 -1.3881 -1.5629
10659TIP3    H253393   3.798   6.144  15.185 -0.0435  1.0251  1.5720
10660TIP3   OH253394   0.593   3.006   0.499 -0.4788 -0.3181  0.2898
10660TIP3    H153395   0.639   2.985   0.580  0.7205  0.1862 -0.2476
10660TIP3    H253396   0.542   2.927   0.479  1.5070 -1.5975 -0.0337
10661TIP3   OH253397   1.057   2.225  11.232  0.2950  0.6431  0.0541
10661TIP3    H153398   1.078   2.143  11.279  0.7054  1.0657  0.6232
10661TIP3    H253399   0.970   2.210  11.195  1.0447 -0.6971 -1.2990
10662TIP3   OH253400   2.677   3.545  12.364  0.3048 -0.6311 -0.2056
10662TIP3    H153401   2.624   3.614  12.324 -0.3055 -2.2485 -2.3985
10662TIP3    H253402   2.762   3.585  12.379 -0.8387  1.4020  1.3562
10663TIP3   OH253403   2.112   5.046   3.042 -0.5789  0.4072  0.4933
10663TIP3    H153404   2.202   5.070   3.019 -0.2722 -1.5312 -0.6135
10663TIP3    H253405   2.057   5.108   2.995  0.1821  0.3237 -0.5541
10664TIP3   OH253406   2.124   1.252  14.945  0.2518  0.2866 -0.2710
10664TIP3    H153407   2.187   1.317  14.977 -1.0380  1.6155 -0.3358
10664TIP3    H253408   2.090   1.212  15.025  0.6176  0.1086 -0.2020
10665TIP3   OH253409   3.806   2.961   4.113 -0.3352 -0.1768  0.0473
10665TIP3    H153410   3.773   2.921   4.193  0.5033 -2.1892 -0.5273
10665TIP3    H253411   3.895   2.988   4.134 -0.8664  1.3647  0.4026
10666TIP3   OH253412   4.628   5.319   0.817 -0.0115 -0.6693 -0.3701
10666TIP3    H153413   4.616   5.356   0.905  0.6901 -0.1995 -0.4613
10666TIP3    H253414   4.665   5.232   0.833  0.4527 -0.4461 -0.2021
10667TIP3   OH253415   3.855   5.797  17.020  0.1857 -0.2856 -0.4859
10667TIP3    H153416   3.882   5.829  17.106 -2.5051  3.4584 -0.7935
10667TIP3    H253417   3.760   5.802  17.021  0.0235 -1.1977 -3.3070
10668TIP3   OH253418   6.459   3.796  11.435 -0.0207  0.0927 -0.3909
10668TIP3    H153419   6.385   3.838  11.393 -0.9302  0.2920  1.2885
10668TIP3    H253420   6.444   3.702  11.423 -0.5692  0.1342 -0.0672
10669TIP3   OH253421   4.314   0.399  14.121 -0.0822  0.6402 -0.2033
10669TIP3    H153422   4.315   0.330  14.188 -1.4622  0.2910 -0.5188
10669TIP3    H253423   4.259   0.468  14.159 -1.4060  0.1718 -1.2097
10670TIP3   OH253424   2.581   4.202   3.476  0.4725 -0.4438  0.0928
10670TIP3    H153425   2.495   4.220   3.514  0.9972 -1.6644  1.9951
10670TIP3    H253426   2.565   4.134   3.411 -0.2142  0.5231 -0.7772
10671TIP3   OH253427   3.972   5.053   4.023 -0.7126  0.4346  1.0040
10671TIP3    H153428   4.040   5.109   4.060 -0.8792  1.1083  0.3143
10671TIP3    H253429   4.019   4.979   3.986 -0.3640  0.8179  0.6733
10672TIP3   OH253430   1.910   2.058   5.658 -0.5274 -0.1574  0.3711
10672TIP3    H153431   1.917   2.142   5.613  1.1224  1.1616  2.8486
10672TIP3    H253432   1.991   2.012   5.635 -0.2987 -0.0308  0.9047
10673TIP3   OH253433   6.659   4.456   3.289  0.0524 -0.0177 -0.2464
10673TIP3    H153434   6.604   4.497   3.223 -1.4801 -1.2718  0.2014
10673TIP3    H253435   6.598   4.418   3.352  1.4469  0.5780  1.5863
10674TIP3   OH253436   5.361   5.504   3.742 -0.0648 -0.8986 -0.1666
10674TIP3    H153437   5.419   5.553   3.683 -1.2380  0.0200 -0.6026
10674TIP3    H253438   5.366   5.551   3.825  0.0062 -0.9633 -0.1348
10675TIP3   OH253439   1.053   3.053   0.370  0.1385 -0.0512  0.2246
10675TIP3    H153440   1.024   2.996   0.299 -1.5670  0.2728  0.6168
10675TIP3    H253441   1.082   3.133   0.326  0.7903 -0.5062 -0.2020
10676TIP3   OH253442   2.616   4.565   1.343 -0.4284  0.0294  0.0834
10676TIP3    H153443   2.537   4.515   1.323 -2.0104  2.9905 -1.7249
10676TIP3    H253444   2.634   4.545   1.435 -3.6033 -0.3927  0.7337
10677TIP3   OH253445   3.053   4.261  16.652 -0.0706 -0.6393  0.0204
10677TIP3    H153446   3.111   4.246  16.577  1.3224  1.3638  0.6347
10677TIP3    H253447   2.965   4.248  16.616  0.6056 -0.8961 -1.6567
10678TIP3   OH253448   5.501   3.890  17.278 -0.3217  0.6482  0.0953
10678TIP3    H153449   5.453   3.898  17.195  0.4742 -2.7704 -0.8786
10678TIP3    H253450   5.578   3.945  17.266  0.4067 -0.7005 -2.0513
10679TIP3   OH253451   6.462   0.324  16.189  0.6657 -0.2567  0.3784
10679TIP3    H153452   6.451   0.406  16.140  1.2601  0.3396  1.2106
10679TIP3    H253453   6.555   0.321  16.210  0.3639 -0.2796  1.8156
10680TIP3   OH253454   2.464   1.238   3.374 -0.5621 -0.2871  1.2698
10680TIP3    H153455   2.408   1.248   3.297 -0.2578 -0.8476  0.9664
10680TIP3    H253456   2.405   1.207   3.443 -0.9633  0.8430  1.4579
10681TIP3   OH253457   6.011   1.445  15.724 -0.6603  0.4495  0.0610
10681TIP3    H153458   6.068   1.452  15.647 -0.5469  0.2714  0.1260
10681TIP3    H253459   5.960   1.366  15.708  2.0914 -1.9253  1.9140
10682TIP3   OH253460   2.036   4.320   3.560  0.0171 -0.1745 -0.3388
10682TIP3    H153461   1.985   4.308   3.640  0.0179  0.7485 -0.1887
10682TIP3    H253462   1.972   4.348   3.495  0.1268 -0.2710 -0.4894
10683TIP3   OH253463   0.712   1.639  13.389  0.4235 -0.6992  0.9524
10683TIP3    H153464   0.704   1.722  13.341  0.8850 -0.1175  1.8542
10683TIP3    H253465   0.804   1.633  13.413  0.6133 -2.0077  0.0060
10684TIP3   OH253466   5.836   1.118   5.204 -0.0422  0.0061 -0.2890
10684TIP3    H153467   5.820   1.172   5.281 -0.5854 -1.0980  0.3880
10684TIP3    H253468   5.789   1.037   5.221 -2.1066  0.5517 -2.7745
10685TIP3   OH253469   3.764   0.964   2.636  0.1785 -0.4843 -0.3828
10685TIP3    H153470   3.709   1.033   2.673 -0.3286 -0.8146 -0.5214
10685TIP3    H253471   3.715   0.883   2.651  1.3842 -1.0089  1.0537
10686TIP3   OH253472   0.186   0.925  14.337 -0.5386 -0.5474  0.6825
10686TIP3    H153473   0.164   0.968  14.420 -2.8043 -2.2392  1.0405
10686TIP3    H253474   0.131   0.970  14.273  0.8517  0.4286  0.1333
10687TIP3   OH253475   3.691   3.428   0.655 -0.0439  0.2061  0.4386
10687TIP3    H153476   3.631   3.493   0.690  0.5969  0.2036  1.5771
10687TIP3    H253477   3.761   3.479   0.613 -1.6968  0.2351 -2.5947
10688TIP3   OH253478   6.244   0.769   5.402 -0.1376 -0.2674 -0.3705
10688TIP3    H153479   6.198   0.833   5.347  0.5487  1.1249  0.6033
10688TIP3    H253480   6.195   0.688   5.391 -1.4639  0.5933 -1.1117
10689TIP3   OH253481   5.066   2.512   4.556  0.3818  0.8110 -0.2912
10689TIP3    H153482   5.049   2.474   4.469  1.6246 -1.2422  0.2941
10689TIP3    H253483   5.000   2.472   4.612  0.0020  1.6365 -0.1267
10690TIP3   OH253484   2.411   4.954  11.424 -0.1902  0.0082  0.8868
10690TIP3    H153485   2.505   4.953  11.401 -0.2276  0.8748  0.6574
10690TIP3    H253486   2.375   4.879  11.377 -0.3089  1.8416 -2.2864
10691TIP3   OH253487   0.037   0.726   6.005  0.1398 -0.6549  0.1729
10691TIP3    H153488   0.116   0.779   6.009  0.1417 -0.5776 -0.6777
10691TIP3    H253489   0.006   0.735   5.915 -1.5577  0.3545  0.8079
10692TIP3   OH253490   4.546   0.869  13.391  0.4486  0.4043 -0.5761
10692TIP3    H153491   4.451   0.873  13.405  0.4784  0.8609 -0.4763
10692TIP3    H253492   4.563   0.938  13.327  0.9853  1.7691  0.9792
10693TIP3   OH253493   0.029   0.567  15.185 -0.0408 -0.1319 -0.3167
10693TIP3    H153494   0.109   0.514  15.183  0.0898  0.0445  0.1770
10693TIP3    H253495   0.060   0.657  15.190 -0.2674 -0.0168 -0.8771
10694TIP3   OH253496   6.252   0.821   5.668 -0.3120  0.6880 -0.5326
10694TIP3    H153497   6.266   0.813   5.573  0.5670 -0.2953 -0.3352
10694TIP3    H253498   6.248   0.731   5.699  1.0642  0.9815  0.5914
10695TIP3   OH253499   5.897   4.116  12.549  0.3067  0.6494 -0.5343
10695TIP3    H153500   5.882   4.128  12.455  1.4446  0.4672 -0.7491
10695TIP3    H253501   5.914   4.022  12.559 -0.1785  0.6053 -0.0868
10696TIP3   OH253502   3.567   4.219  15.458 -0.5550  0.0402 -0.3747
10696TIP3    H153503   3.555   4.188  15.548 -1.1300 -1.3716 -0.9006
10696TIP3    H253504   3.650   4.179  15.430  0.2945  1.5190 -0.0811
10697TIP3   OH253505   0.915   5.088   3.724 -0.0745  0.7778 -0.1004
10697TIP3    H153506   0.965   5.051   3.652 -0.1479 -1.4806  0.9026
10697TIP3    H253507   0.981   5.108   3.791 -0.2503 -0.1280  0.3723
10698TIP3   OH253508   6.727   2.086  11.767 -0.9540 -0.5344  0.3191
10698TIP3    H153509   6.696   2.067  11.678 -0.3294 -0.0982  0.0027
10698TIP3    H253510   6.653   2.063  11.823 -1.8838  0.5339 -0.4241
10699TIP3   OH253511   5.673   3.782  12.617  0.5546 -0.0388  0.4668
10699TIP3    H153512   5.745   3.819  12.668  0.7686  0.8076 -0.4268
10699TIP3    H253513   5.715   3.724  12.554  0.3770 -0.2526  0.5421
10700TIP3   OH253514   5.700   0.742  16.879 -0.1208 -0.2517 -0.7452
10700TIP3    H153515   5.635   0.686  16.922  1.0473  0.6150  2.5079
10700TIP3    H253516   5.702   0.712  16.789 -0.2295 -4.8369  0.5328
10701TIP3   OH253517   4.889   4.819   3.141 -0.3770  0.0785 -0.4391
10701TIP3    H153518   4.934   4.772   3.211 -0.5713 -0.3433 -0.5943
10701TIP3    H253519   4.838   4.751   3.096 -0.1658  0.3266 -1.0523
10702TIP3   OH253520   0.842   0.930  12.570 -0.1488  1.0936  0.1167
10702TIP3    H153521   0.750   0.929  12.596  0.1502 -0.5945  1.2597
10702TIP3    H253522   0.884   0.988  12.635 -0.4184  2.1185 -0.5929
10703TIP3   OH253523   6.565   5.096   0.700 -0.1360 -0.4875 -0.1176
10703TIP3    H153524   6.511   5.095   0.621  0.3837  2.5048 -0.6240
10703TIP3    H253525   6.503   5.104   0.772 -0.5178 -0.6391 -0.4284
10704TIP3   OH253526   4.812   4.332  13.763  0.1873  0.1143  0.5292
10704TIP3    H153527   4.810   4.358  13.855 -0.8522  0.7188  0.3511
10704TIP3    H253528   4.725   4.354  13.730 -0.4347 -2.6307  0.0812
10705TIP3   OH253529   1.855   2.283   6.110  0.8088 -0.7861 -0.3417
10705TIP3    H153530   1.858   2.211   6.173  1.6329 -0.3900  0.0845
10705TIP3    H253531   1.871   2.241   6.026 -0.1735 -1.3021 -0.2841
10706TIP3   OH253532   6.560   3.616   1.919 -0.0915 -0.0360  0.2484
10706TIP3    H153533   6.623   3.655   1.980 -1.0376 -0.0321  1.2575
10706TIP3    H253534   6.559   3.674   1.844  0.4122  0.4773  0.6361
10707TIP3   OH253535   0.315   4.346   2.439 -0.4129 -0.1780 -0.0083
10707TIP3    H153536   0.357   4.381   2.518 -0.0237  1.2280 -0.8200
10707TIP3    H253537   0.387   4.309   2.388 -0.2375  1.4546 -0.9961
10708TIP3   OH253538   2.734   5.454   4.678 -0.8736 -0.0941 -0.0231
10708TIP3    H153539   2.729   5.550   4.682  1.3076  0.0128  1.5002
10708TIP3    H253540   2.785   5.436   4.599 -1.3116 -0.0342 -0.3282
10709TIP3   OH253541   5.601   3.281   4.566  0.1243  0.1671  0.4635
10709TIP3    H153542   5.507   3.276   4.582  0.0419  0.0796 -0.0442
10709TIP3    H253543   5.615   3.234   4.484  0.6838 -0.2695  0.8007
10710TIP3   OH253544   3.219   1.492   5.992 -0.7281 -0.7957  0.0519
10710TIP3    H153545   3.145   1.460   5.941  0.3955 -1.3787 -1.2675
10710TIP3    H253546   3.179   1.551   6.057 -2.7461 -3.6519  1.6587
10711TIP3   OH253547   1.730   4.421  14.401 -0.1206  0.5206  0.3058
10711TIP3    H153548   1.747   4.376  14.483 -2.6889  3.3901  2.6347
10711TIP3    H253549   1.653   4.376  14.364  0.3258 -0.0400  0.0483
10712TIP3   OH253550   5.044   5.607  16.876 -0.5043 -0.1009  0.5638
10712TIP3    H153551   5.110   5.671  16.849  1.2252 -2.3605 -0.8748
10712TIP3    H253552   5.068   5.586  16.967  0.0196 -0.0611  0.4369
10713TIP3   OH253553   5.464   6.109  12.443 -0.9170 -0.5207 -0.2887
10713TIP3    H153554   5.489   6.021  12.469  0.6370  0.5495  2.3381
10713TIP3    H253555   5.369   6.107  12.436 -0.8779 -2.4755 -0.6513
10714TIP3   OH253556   1.539   3.024   6.249 -0.4900  1.0964 -0.0584
10714TIP3    H153557   1.578   2.947   6.291 -2.7912 -1.0310 -1.5276
10714TIP3    H253558   1.522   3.085   6.321 -0.6157 -0.7187  1.5430
10715TIP3   OH253559   5.406   5.111   5.535  0.5206  0.1354 -0.0433
10715TIP3    H153560   5.475   5.086   5.473  0.1863 -0.6071 -0.1183
10715TIP3    H253561   5.450   5.115   5.620  0.6846 -0.2079 -0.1117
10716TIP3   OH253562   3.241   0.579   5.775  0.1825 -0.2479 -0.1798
10716TIP3    H153563   3.171   0.523   5.741  1.0089 -2.7661  1.9458
10716TIP3    H253564   3.197   0.635   5.839 -0.5293  1.2128 -1.8422
10717TIP3   OH253565   5.104   2.413  15.091  0.3126  0.0507  0.4491
10717TIP3    H153566   5.071   2.392  15.178  0.1400 -0.3468  0.2935
10717TIP3    H253567   5.068   2.499  15.071 -0.8290 -0.4628  0.1992
10718TIP3   OH253568   3.687   0.911   2.995 -0.1983 -0.0137  0.6704
10718TIP3    H153569   3.639   0.866   2.925 -2.7191  0.5330  1.9374
10718TIP3    H253570   3.779   0.905   2.968 -1.0396  0.3256 -2.7562
10719TIP3   OH253571   6.066   0.774   1.681  0.3982 -0.3149  0.3095
10719TIP3    H153572   6.049   0.846   1.619  0.3225  0.0990  0.8022
10719TIP3    H253573   5.989   0.773   1.738  0.7963 -0.2066  0.8555
10720TIP3   OH253574   0.064   4.918  11.707 -0.2485  0.5752  0.0524
10720TIP3    H153575   0.110   5.001  11.694 -1.9129  1.5874  0.2916
10720TIP3    H253576  -0.029   4.942  11.709 -0.7705 -1.2840  0.2821
10721TIP3   OH253577   4.657   3.771  13.037  0.1270 -0.5258  0.0861
10721TIP3    H153578   4.567   3.789  13.065  0.5773  1.4054  0.4679
10721TIP3    H253579   4.650   3.749  12.945 -0.7342 -0.1028  0.0408
10722TIP3   OH253580   5.395   5.537   0.746 -0.3408  0.1935 -0.3767
10722TIP3    H153581   5.471   5.490   0.712 -1.4154 -2.4344  0.5604
10722TIP3    H253582   5.430   5.622   0.773  1.9880 -0.4267 -1.1563
10723TIP3   OH253583   4.770   3.053   6.377 -0.1459  0.0458  0.3535
10723TIP3    H153584   4.856   3.012   6.365  0.0325  0.9050 -1.7391
10723TIP3    H253585   4.786   3.122   6.441  0.2525 -1.0854  1.5093
10724TIP3   OH253586   4.333   5.359  14.608 -0.2177 -0.0622 -0.3931
10724TIP3    H153587   4.369   5.298  14.673  0.2297  0.6555  0.0532
10724TIP3    H253588   4.242   5.371  14.634 -0.1755 -0.1670 -0.1942
10725TIP3   OH253589   0.758   2.753  16.521 -0.2558 -0.2901 -0.2120
10725TIP3    H153590   0.768   2.659  16.537  1.5894 -0.0003  0.5963
10725TIP3    H253591   0.717   2.787  16.600 -0.5649 -0.3541 -0.3440
10726TIP3   OH253592   1.296   4.018   6.876  0.1277  0.3074  0.7400
10726TIP3    H153593   1.289   4.107   6.841  1.0748 -0.8646 -2.8201
10726TIP3    H253594   1.219   3.973   6.842  1.3009 -1.0117 -0.2963
10727TIP3   OH253595   2.202   2.406   2.022  0.0150  0.7207  0.1966
10727TIP3    H153596   2.188   2.461   2.099 -1.0675  1.2203 -0.3253
10727TIP3    H253597   2.163   2.322   2.045  2.4839 -0.1948  1.3415
10728TIP3   OH253598   5.308   1.767  14.295 -0.2914 -0.4349 -0.1439
10728TIP3    H153599   5.261   1.774  14.212 -0.7193  1.3721  0.2059
10728TIP3    H253600   5.296   1.852  14.336 -0.3678 -1.3974  1.9428
10729TIP3   OH253601   4.298   3.132   6.470 -0.1496 -0.3380  0.5167
10729TIP3    H153602   4.296   3.039   6.491 -0.0273 -0.9404 -1.8773
10729TIP3    H253603   4.358   3.170   6.535  0.4685 -2.0695  1.0101
10730TIP3   OH253604   6.061   6.313   6.150 -0.1013 -0.2324 -0.3115
10730TIP3    H153605   6.141   6.294   6.200 -0.7983 -0.1958  0.8554
10730TIP3    H253606   5.990   6.286   6.208 -0.9787  0.9221 -0.8116
10731TIP3   OH253607   0.724   0.229   6.434 -0.1688 -0.2337  0.0772
10731TIP3    H153608   0.791   0.297   6.441 -1.3819  0.8783  1.8076
10731TIP3    H253609   0.692   0.237   6.344 -1.0112  2.3175  0.4987
10732TIP3   OH253610   4.371   2.635  13.949 -0.0574 -0.1458  0.0140
10732TIP3    H153611   4.384   2.691  13.873 -1.4671  0.7679  0.4041
10732TIP3    H253612   4.457   2.632  13.992  0.8613 -1.0090 -1.7994
10733TIP3   OH253613   2.925   4.687  15.508 -0.2397  0.6480 -0.6416
10733TIP3    H153614   2.927   4.659  15.416  1.8960 -0.8992 -0.1937
10733TIP3    H253615   2.854   4.637  15.547 -0.9819  1.1133 -1.3691
10734TIP3   OH253616   0.441   5.274   6.037 -0.2034  0.6959 -0.1960
10734TIP3    H153617   0.454   5.334   6.110 -0.7066  1.3091 -0.5932
10734TIP3    H253618   0.348   5.251   6.042 -0.2407  0.7407 -0.6306
10735TIP3   OH253619   6.134   2.812  14.377  0.5278 -0.6149  0.4162
10735TIP3    H153620   6.140   2.737  14.437 -2.1380 -0.3545  1.1466
10735TIP3    H253621   6.180   2.882  14.422 -0.5397 -0.7137  1.7443
10736TIP3   OH253622   4.676   5.835   5.605 -0.4316  0.6042 -0.6451
10736TIP3    H153623   4.653   5.767   5.669 -0.7880  0.9325 -0.4190
10736TIP3    H253624   4.678   5.916   5.655 -0.5159  0.8369 -1.0123
10737TIP3   OH253625   3.255   1.842   5.160  0.3697 -0.7598 -0.2439
10737TIP3    H153626   3.253   1.937   5.148  2.8100 -0.7124 -0.8068
10737TIP3    H253627   3.288   1.807   5.077 -1.6902 -2.2529 -0.5071
10738TIP3   OH253628   1.073   2.234   1.443 -0.3489 -0.2880 -0.3226
10738TIP3    H153629   1.006   2.225   1.511 -0.1415 -1.3204 -0.2337
10738TIP3    H253630   1.065   2.324   1.413  0.2992  0.5834  1.8736
10739TIP3   OH253631   0.839   4.649   5.388  0.5630 -0.2924 -0.1437
10739TIP3    H153632   0.832   4.729   5.440  0.1499 -0.4108 -0.0113
10739TIP3    H253633   0.818   4.579   5.450 -1.2058 -0.3443 -0.7513
10740TIP3   OH253634   3.190   3.898   4.871  0.3777  1.0155  0.1669
10740TIP3    H153635   3.184   3.817   4.820  0.7698  1.9218 -1.3792
10740TIP3    H253636   3.164   3.872   4.959 -1.0097 -0.4884 -0.6198
10741TIP3   OH253637   3.810   3.537   2.955  0.1110  0.3259 -0.1309
10741TIP3    H153638   3.903   3.528   2.977  0.4705  0.8568 -1.3842
10741TIP3    H253639   3.772   3.580   3.032  0.9276  0.2120  0.3461
10742TIP3   OH253640   3.835   1.424   3.497 -0.1448 -0.3310 -0.4855
10742TIP3    H153641   3.806   1.448   3.585  0.4153  1.8661 -0.8503
10742TIP3    H253642   3.864   1.333   3.505 -0.8026 -0.4052  1.4193
10743TIP3   OH253643   2.828   3.655  13.706 -0.0716 -0.5162 -0.3518
10743TIP3    H153644   2.911   3.666  13.753 -0.4805  2.6750 -0.2210
10743TIP3    H253645   2.791   3.574  13.742  0.6102  0.6555  3.3633
10744TIP3   OH253646   5.793   2.203  15.950  0.2035  0.2213 -0.7807
10744TIP3    H153647   5.826   2.189  15.861 -2.0460 -0.7097 -1.5665
10744TIP3    H253648   5.810   2.120  15.995 -0.4131 -0.0206 -0.9814
10745TIP3   OH253649   0.651   1.513   2.274 -0.2507 -0.3123  0.1940
10745TIP3    H153650   0.614   1.458   2.206 -0.0358 -0.2396  0.0196
10745TIP3    H253651   0.661   1.455   2.350  0.3892 -0.6165 -0.1236
10746TIP3   OH253652   2.946   6.423  12.823 -0.1313  0.1174 -0.3419
10746TIP3    H153653   3.032   6.426  12.782 -0.2013  2.1152 -0.4659
10746TIP3    H253654   2.886   6.400  12.752  0.2043 -0.4192 -0.4513
10747TIP3   OH253655   2.415   5.324   4.163 -0.7297 -0.3473 -0.0154
10747TIP3    H153656   2.437   5.416   4.146 -0.6103  0.0658  2.0617
10747TIP3    H253657   2.436   5.279   4.081 -0.5623  1.4269 -1.0072
10748TIP3   OH253658   1.964   3.918  16.161  0.0699 -0.3873 -0.2607
10748TIP3    H153659   2.004   4.003  16.177 -1.4378  0.0704  1.3761
10748TIP3    H253660   1.966   3.874  16.246 -1.8050 -0.7922 -0.3844
10749TIP3   OH253661   4.833   0.105  13.785  0.1705 -0.4308 -0.7799
10749TIP3    H153662   4.757   0.160  13.768  0.1092 -0.5165 -0.7883
10749TIP3    H253663   4.830   0.087  13.879  1.4193  1.3727 -0.3513
10750TIP3   OH253664   0.087   3.690   3.898  1.1670  0.0179 -0.3079
10750TIP3    H153665   0.095   3.610   3.949  1.3025  0.8813  1.0925
10750TIP3    H253666   0.081   3.760   3.964  1.8207  1.2315 -1.4754
10751TIP3   OH253667   5.410   1.286   3.676  0.2871  0.4185 -0.5520
10751TIP3    H153668   5.405   1.276   3.771  0.3149 -1.5292 -0.7061
10751TIP3    H253669   5.320   1.272   3.646  0.5702 -0.7805 -0.9103
10752TIP3   OH253670   5.456   0.484  15.423  0.3411 -0.0803  0.4775
10752TIP3    H153671   5.448   0.395  15.458 -1.0474 -0.3784 -0.4973
10752TIP3    H253672   5.484   0.471  15.332 -0.7008  0.4109  0.0739
10753TIP3   OH253673   3.590   4.836   1.614 -0.1121  0.1114  0.3360
10753TIP3    H153674   3.669   4.783   1.603  0.1540  0.5090  0.2699
10753TIP3    H253675   3.519   4.781   1.583  0.0265 -0.5823  1.2442
10754TIP3   OH253676   0.794   5.353   3.679 -0.1170  0.5369 -0.4145
10754TIP3    H153677   0.803   5.268   3.723 -0.1266  0.6821 -0.1276
10754TIP3    H253678   0.727   5.399   3.729 -1.4728  0.0164 -1.6680
10755TIP3   OH253679   4.005   0.932  12.508  0.3821  0.4908 -0.7031
10755TIP3    H153680   3.974   1.013  12.548 -2.6855 -0.4194 -1.0451
10755TIP3    H253681   4.071   0.899  12.570 -0.2237  1.9195  0.7819
10756TIP3   OH253682   6.059   0.612  17.263  0.4620 -0.2285 -0.2514
10756TIP3    H153683   5.972   0.613  17.303  1.5692 -1.6171  2.5121
10756TIP3    H253684   6.065   0.695  17.215 -2.0318  0.2846  0.1828
10757TIP3   OH253685   3.085   2.902  14.313 -0.0788 -0.2650 -0.5913
10757TIP3    H153686   3.061   2.871  14.400 -0.4325  1.0324 -0.1969
10757TIP3    H253687   3.179   2.917  14.318  0.1904 -1.6954 -0.9445
10758TIP3   OH253688   0.047   3.574   5.616 -0.6373 -0.1974  0.2471
10758TIP3    H153689  -0.043   3.545   5.629 -1.1100 -0.0583 -2.1756
10758TIP3    H253690   0.044   3.668   5.634 -1.1227 -0.0864 -0.3900
10759TIP3   OH253691   4.758   4.863  15.856 -0.6110  0.3244 -0.0318
10759TIP3    H153692   4.707   4.822  15.925 -1.0465  0.9375  0.0209
10759TIP3    H253693   4.737   4.957  15.863  1.1190  0.7213  0.5077
10760TIP3   OH253694   1.498   5.101   1.479  0.8089 -0.2509  0.3172
10760TIP3    H153695   1.468   5.033   1.540  1.7983 -1.0056 -0.0230
10760TIP3    H253696   1.463   5.074   1.394 -4.0567  2.8221  0.9083
10761TIP3   OH253697   5.705   0.765   1.174 -0.2314 -0.2414 -0.3949
10761TIP3    H153698   5.780   0.820   1.198 -1.9650  2.8803 -1.5395
10761TIP3    H253699   5.734   0.721   1.093  2.2015 -3.4858  1.9811
10762TIP3   OH253700   2.298   3.884  14.865 -0.4728  0.0280 -0.1372
10762TIP3    H153701   2.281   3.929  14.782  0.0468  0.8058  0.1711
10762TIP3    H253702   2.224   3.824  14.875 -1.2906  0.9609 -0.4487
10763TIP3   OH253703   5.314   4.296  15.451  0.4781  0.1885  0.2273
10763TIP3    H153704   5.305   4.357  15.377 -0.0685 -1.1259 -0.8282
10763TIP3    H253705   5.291   4.210  15.414 -1.7094 -0.2523  2.3858
10764TIP3   OH253706   0.458   0.915  11.413 -0.0914  1.2590 -0.1761
10764TIP3    H153707   0.485   0.977  11.482  2.1396 -0.9366  1.1142
10764TIP3    H253708   0.515   0.936  11.339  0.6235  0.8565  0.2404
10765TIP3   OH253709   2.862   4.809  16.843  0.0575 -0.3537 -0.1754
10765TIP3    H153710   2.923   4.835  16.912  0.5193  1.2650 -1.1342
10765TIP3    H253711   2.775   4.830  16.878  0.0895 -1.7356  0.8020
10766TIP3   OH253712   4.577   2.862  11.790 -0.6725  0.3842 -0.1621
10766TIP3    H153713   4.556   2.802  11.719 -1.0471  1.1709 -0.7269
10766TIP3    H253714   4.547   2.817  11.869  1.1827 -1.1988 -0.2892
10767TIP3   OH253715   5.862   2.968  10.889  0.1335 -0.8276 -0.1749
10767TIP3    H153716   5.842   2.951  10.981  0.3698 -0.5947 -0.0806
10767TIP3    H253717   5.953   2.997  10.889 -0.2827  0.5548 -0.3134
10768TIP3   OH253718   4.244   2.385   5.291  0.2065 -0.3285 -0.0967
10768TIP3    H153719   4.200   2.301   5.280  0.3381 -0.6958  1.7777
10768TIP3    H253720   4.180   2.450   5.264 -0.7006 -0.9523  0.5012
10769TIP3   OH253721   4.570   3.342  14.486 -0.1359 -0.5603  0.4387
10769TIP3    H153722   4.624   3.318  14.562  0.2639  1.1858  0.7527
10769TIP3    H253723   4.493   3.384  14.524  0.2677  0.7152 -0.0857
10770TIP3   OH253724   0.738   2.883  15.195  0.3891 -0.2803 -0.0466
10770TIP3    H153725   0.824   2.843  15.210 -0.3848 -1.7846  0.5416
10770TIP3    H253726   0.687   2.816  15.150 -0.5448  0.5341 -0.2565
10771TIP3   OH253727   1.930   1.403   4.141  0.8300 -0.4375 -0.3768
10771TIP3    H153728   1.972   1.486   4.164  2.5548 -1.1892 -0.6535
10771TIP3    H253729   1.926   1.354   4.223  0.5590 -0.4135 -0.3725
10772TIP3   OH253730   5.441   5.890  17.034  0.2074 -0.0393  0.2796
10772TIP3    H153731   5.388   5.838  17.093  0.7879 -0.1136  0.7483
10772TIP3    H253732   5.420   5.981  17.055 -0.5682 -0.0719 -0.3187
10773TIP3   OH253733   3.934   6.073   4.066  0.4470 -0.2911 -0.6310
10773TIP3    H153734   3.928   6.168   4.054  2.8400 -0.2404 -2.1517
10773TIP3    H253735   3.852   6.039   4.030 -0.5889  1.1861  0.2228
10774TIP3   OH253736   5.246   2.617   1.236 -0.1291 -0.1188  0.1954
10774TIP3    H153737   5.256   2.555   1.308  1.6830  1.0416  1.0203
10774TIP3    H253738   5.314   2.592   1.173 -1.0586 -0.5214 -0.6584
10775TIP3   OH253739   1.416   1.794  16.458  0.1948 -0.0407 -0.3538
10775TIP3    H153740   1.401   1.713  16.409 -1.0530  0.1779 -0.3584
10775TIP3    H253741   1.401   1.863  16.394  0.6884  0.2155 -0.1993
10776TIP3   OH253742   4.581   2.142  14.587 -0.0936  0.3311 -0.2421
10776TIP3    H153743   4.657   2.186  14.550 -0.3417 -0.6984 -2.1769
10776TIP3    H253744   4.556   2.194  14.663  1.6948  1.4651 -0.3840
10777TIP3   OH253745   2.756   0.594  14.996 -0.2581  0.0918  0.2939
10777TIP3    H153746   2.677   0.556  14.957 -0.0368 -0.7077  0.6096
10777TIP3    H253747   2.789   0.654  14.929 -0.8582  0.0554 -0.0405
10778TIP3   OH253748   5.866   5.050   0.130  0.0298  0.1467 -0.2245
10778TIP3    H153749   5.951   5.005   0.132 -0.5521 -0.9604  0.2209
10778TIP3    H253750   5.856   5.086   0.218 -0.1405 -0.0483 -0.1655
10779TIP3   OH253751   5.891   6.591   0.173  0.3509 -0.1554  0.4035
10779TIP3    H153752   5.838   6.626   0.102  0.2120 -0.1021  0.5316
10779TIP3    H253753   5.855   6.504   0.189  0.3863 -0.1703  0.4020
10780TIP3   OH253754   0.228   2.947  15.638 -0.1810 -0.8118  0.4012
10780TIP3    H153755   0.157   2.981  15.584  0.0594 -2.8759 -1.3424
10780TIP3    H253756   0.201   2.966  15.728 -1.7315  0.6120 -0.3044
10781TIP3   OH253757   0.322   3.794   5.840  0.2758  0.1971  0.1375
10781TIP3    H153758   0.362   3.871   5.799  0.1252  1.2722  1.9387
10781TIP3    H253759   0.264   3.829   5.907 -0.2698 -1.4774  0.5917
10782TIP3   OH253760   5.832   0.044   5.505 -0.2915 -0.2713 -0.1511
10782TIP3    H153761   5.817  -0.012   5.582 -1.3193 -2.1877 -1.6666
10782TIP3    H253762   5.806   0.131   5.534  1.6447 -0.4112  2.3943
10783TIP3   OH253763   2.534   0.654  12.724  0.8527 -0.4639 -0.9416
10783TIP3    H153764   2.441   0.668  12.708  0.5866  2.1930  2.0337
10783TIP3    H253765   2.578   0.712  12.662  0.5363 -1.0565 -1.7409
10784TIP3   OH253766   0.744   0.810  15.161 -0.0319 -0.0200 -0.4796
10784TIP3    H153767   0.654   0.838  15.145 -0.7895 -2.2935 -0.5425
10784TIP3    H253768   0.742   0.777  15.251  0.1872 -1.9494 -1.1436
10785TIP3   OH253769   5.110   6.344  14.929 -0.3297 -0.2283 -0.2742
10785TIP3    H153770   5.124   6.381  15.016 -1.9752  0.3475 -0.2181
10785TIP3    H253771   5.069   6.259  14.945 -0.6135 -0.1317 -0.4720
10786TIP3   OH253772   5.060   5.752   0.653  0.0415  0.1011 -0.5539
10786TIP3    H153773   5.100   5.831   0.618  0.4870 -0.0005 -0.2710
10786TIP3    H253774   5.025   5.707   0.575  0.7730  0.0218 -0.8461
10787TIP3   OH253775   0.479   6.645  15.856  0.2164 -0.2007  0.4764
10787TIP3    H153776   0.404   6.704  15.850  0.6675  0.3081 -0.5698
10787TIP3    H253777   0.537   6.686  15.920 -0.5438 -0.7780  1.5420
10788TIP3   OH253778   2.689   1.422  11.526 -0.3849  0.3952  0.1216
10788TIP3    H153779   2.672   1.359  11.596  1.0245  0.6492  0.7247
10788TIP3    H253780   2.749   1.376  11.467  1.8358  1.5824  1.3139
10789TIP3   OH253781   3.434   1.481  16.555 -0.7838  0.0912  0.5496
10789TIP3    H153782   3.418   1.557  16.499 -2.3712  1.6773  2.9416
10789TIP3    H253783   3.376   1.413  16.520  0.8064 -0.2162 -1.7503
10790TIP3   OH253784   0.732   4.982   5.495  0.5102  0.0895 -0.0988
10790TIP3    H153785   0.686   4.925   5.558 -0.2263  1.7105  0.8974
10790TIP3    H253786   0.822   4.949   5.495  0.3587 -0.4053  1.2819
10791TIP3   OH253787   5.260   0.868  13.309  0.0441  0.1179  0.3223
10791TIP3    H153788   5.317   0.902  13.241 -0.9113 -0.7268 -0.9446
10791TIP3    H253789   5.174   0.859  13.267 -0.5911 -0.3541  1.6548
10792TIP3   OH253790   3.453   4.012   2.443 -0.0033 -0.0989  0.2097
10792TIP3    H153791   3.463   3.968   2.358 -5.3136 -1.3695 -0.1209
10792TIP3    H253792   3.445   4.105   2.421 -0.8616 -0.3675 -0.7232
10793TIP3   OH253793   1.076   0.114  12.269 -0.0607 -0.2286 -0.4584
10793TIP3    H153794   0.992   0.150  12.239 -0.1153 -0.0206 -0.0614
10793TIP3    H253795   1.110   0.066  12.193  0.4009  1.3416 -1.3074
10794TIP3   OH253796   3.715   5.854   2.594 -0.5945 -0.2187 -0.5243
10794TIP3    H153797   3.808   5.840   2.611 -0.3887 -0.2492 -1.5794
10794TIP3    H253798   3.695   5.794   2.522 -1.4328 -0.2208 -0.2918
10795TIP3   OH253799   1.811   2.176  15.604  0.0582 -0.0096  0.3379
10795TIP3    H153800   1.904   2.194  15.594 -0.3349  1.2026 -1.4461
10795TIP3    H253801   1.789   2.119  15.530 -0.5123 -0.8104  1.1000
10796TIP3   OH253802   5.223   2.077   3.740 -0.0938 -0.2170  0.2200
10796TIP3    H153803   5.192   2.034   3.820  1.1386  1.0718  1.4344
10796TIP3    H253804   5.268   2.007   3.692  0.2012 -0.7507  1.2296
10797TIP3   OH253805   6.586   1.735  11.950 -0.0557 -0.3477  0.0827
10797TIP3    H153806   6.590   1.827  11.976  1.4552 -0.4550  0.3030
10797TIP3    H253807   6.514   1.731  11.887  1.1521  1.3948 -1.4834
10798TIP3   OH253808   1.159   1.531  12.259 -0.1941 -0.3493  0.2630
10798TIP3    H153809   1.178   1.438  12.267  0.4506 -0.0974  1.9656
10798TIP3    H253810   1.069   1.540  12.292 -0.7820 -0.5362 -1.2084
10799TIP3   OH253811   1.218   2.796   2.403  0.3924  0.6761 -0.1435
10799TIP3    H153812   1.252   2.726   2.459  2.8898  2.6547  1.0121
10799TIP3    H253813   1.124   2.799   2.421  0.4904 -1.3239  0.9245
10800TIP3   OH253814   1.559   6.419  16.292 -0.4864 -0.7708 -0.0809
10800TIP3    H153815   1.493   6.488  16.291 -0.1833 -0.4323  1.0976
10800TIP3    H253816   1.628   6.450  16.233 -0.6033 -0.3175  0.0174
10801TIP3   OH253817   4.860   1.369   0.162 -1.1257 -0.7750  0.2707
10801TIP3    H153818   4.783   1.425   0.154 -0.5366  0.4602  2.4728
10801TIP3    H253819   4.909   1.384   0.081  0.3446  4.1069  1.6974
10802TIP3   OH253820   2.733   1.545   2.960  0.5110 -0.3711  0.5964
10802TIP3    H153821   2.722   1.550   3.055  1.8358  0.7816  0.7259
10802TIP3    H253822   2.775   1.628   2.937 -1.6892  0.2882 -1.3028
10803TIP3   OH253823   5.910   5.403   3.089  0.1680 -0.0566  0.4102
10803TIP3    H153824   5.908   5.308   3.104 -1.7987 -0.0320  0.5266
10803TIP3    H253825   5.874   5.414   3.001  2.4687  0.4829 -0.5522
10804TIP3   OH253826   0.007   3.484   6.474  0.2153 -0.6746  0.3508
10804TIP3    H153827   0.094   3.445   6.474  0.3274 -0.4341  1.0760
10804TIP3    H253828   0.008   3.547   6.546  0.1368  0.8786 -0.9324
10805TIP3   OH253829   0.328   3.551   3.764  0.1234 -0.2466  0.2614
10805TIP3    H153830   0.379   3.587   3.838 -1.5449  0.6157  1.0456
10805TIP3    H253831   0.303   3.463   3.793 -2.5165  0.8992  1.8608
10806TIP3   OH253832   4.685   5.423   2.005  0.0585 -0.0092 -0.2182
10806TIP3    H153833   4.739   5.502   2.009  2.2014 -1.3629 -0.8720
10806TIP3    H253834   4.626   5.431   2.079  2.5302  0.6175  1.8159
10807TIP3   OH253835   5.583   6.000   4.958 -0.0710  0.3273  0.1798
10807TIP3    H153836   5.549   6.054   4.886  2.6036  3.5958  1.1007
10807TIP3    H253837   5.657   5.954   4.921  0.3834  0.8353  0.4428
10808TIP3   OH253838   2.173   6.720  15.807  0.0491 -0.5089  0.6124
10808TIP3    H153839   2.108   6.761  15.749  0.5473  1.0039  1.0575
10808TIP3    H253840   2.177   6.779  15.882  1.6629 -0.7782  0.7584
10809TIP3   OH253841   1.838   5.214  15.803 -0.2398  0.1119 -1.0101
10809TIP3    H153842   1.925   5.195  15.767 -0.5859 -0.6361 -1.4866
10809TIP3    H253843   1.791   5.256  15.730  0.0697  1.5539 -0.3995
10810TIP3   OH253844   3.463   5.398  11.303  0.1339  0.1921  0.1590
10810TIP3    H153845   3.454   5.305  11.282 -0.8695  0.6884 -1.7772
10810TIP3    H253846   3.548   5.423  11.266  0.2098  0.1659  0.3107
10811TIP3   OH253847   2.852   2.406  17.269 -0.5794  0.1373  0.0630
10811TIP3    H153848   2.776   2.381  17.323 -0.2140 -0.8446  0.1561
10811TIP3    H253849   2.833   2.495  17.240 -2.2517 -0.4372 -0.7477
10812TIP3   OH253850   5.801   3.041  14.152 -0.3474 -0.1754  0.1571
10812TIP3    H153851   5.844   3.126  14.164 -2.2222  0.8865 -0.2183
10812TIP3    H253852   5.821   2.993  14.232 -0.2287  1.0736  0.9120
10813TIP3   OH253853   1.762   3.468  12.046 -0.8558 -0.2683 -0.0034
10813TIP3    H153854   1.750   3.536  12.112  0.9152  0.7276 -0.6549
10813TIP3    H253855   1.777   3.516  11.965 -0.2382 -1.4428 -0.6117
10814TIP3   OH253856   3.170   2.732   0.454 -0.1411  0.1502 -0.2201
10814TIP3    H153857   3.102   2.707   0.517  2.2278 -0.2013  2.4398
10814TIP3    H253858   3.160   2.827   0.445 -1.3127  0.0294 -0.3309
10815TIP3   OH253859   1.269   1.225   0.733 -0.4798 -0.1058 -0.4323
10815TIP3    H153860   1.223   1.289   0.679 -0.1441  1.7596  1.3527
10815TIP3    H253861   1.345   1.199   0.681  0.0092  1.8804 -0.7752
10816TIP3   OH253862   5.100   6.305  13.696 -0.4160 -0.1442  0.3520
10816TIP3    H153863   5.020   6.265  13.662 -0.3018 -1.0164  1.0587
10816TIP3    H253864   5.076   6.333  13.785  0.2305 -1.0134  0.8161
10817TIP3   OH253865   4.306   4.861   2.796 -0.0267  0.1220  0.8526
10817TIP3    H153866   4.329   4.807   2.721  0.9460  0.8973  0.5648
10817TIP3    H253867   4.353   4.944   2.782  0.5743  0.1260  2.5366
10818TIP3   OH253868   4.464   0.565   3.297  0.5345  0.3078 -0.1955
10818TIP3    H153869   4.380   0.568   3.343  1.1410  0.2399  0.9570
10818TIP3    H253870   4.530   0.575   3.366  1.5528 -1.4954 -0.8259
10819TIP3   OH253871   2.487   6.356  15.204  0.0336 -0.0348 -0.2417
10819TIP3    H153872   2.553   6.293  15.173  0.3822 -0.9782  2.2426
10819TIP3    H253873   2.404   6.321  15.173  0.4352 -0.2445 -1.1472
10820TIP3   OH253874   6.163   6.129  13.544  0.7918 -0.1745  0.5718
10820TIP3    H153875   6.206   6.056  13.588  0.4085  0.0301  1.2967
10820TIP3    H253876   6.217   6.146  13.466  1.7150 -0.2702  1.1769
10821TIP3   OH253877   1.216   2.367  14.659  1.0816  0.3266  0.1355
10821TIP3    H153878   1.159   2.422  14.605  0.4892 -1.5850 -1.2801
10821TIP3    H253879   1.299   2.364  14.610  1.4242  0.7174  0.6876
10822TIP3   OH253880   2.063   0.532  14.028 -0.3666  0.4825 -0.4746
10822TIP3    H153881   2.082   0.509  14.119  1.9159  1.4756 -0.6305
10822TIP3    H253882   1.977   0.493  14.011 -0.0965 -1.1899  1.5686
10823TIP3   OH253883   4.194   6.386   3.805  0.3962  0.3326 -0.1858
10823TIP3    H153884   4.217   6.461   3.861  0.9021  0.5663 -0.7032
10823TIP3    H253885   4.218   6.310   3.858 -2.6115  0.3865  1.5000
10824TIP3   OH253886   1.043   1.744   3.730 -0.4318 -0.0715 -0.2374
10824TIP3    H153887   0.948   1.759   3.727 -0.2360  1.2102 -0.6755
10824TIP3    H253888   1.054   1.654   3.698 -1.5143 -0.3404  0.1062
10825TIP3   OH253889   5.087   0.181  16.654 -0.0068 -0.0488 -0.3573
10825TIP3    H153890   4.993   0.198  16.642 -0.1551 -1.2847 -1.0766
10825TIP3    H253891   5.094   0.147  16.743 -0.4368 -1.1536 -0.7281
10826TIP3   OH253892   5.424   3.751   2.315 -0.1475  0.0896  0.6923
10826TIP3    H153893   5.507   3.726   2.274  0.4760  1.6989  0.9139
10826TIP3    H253894   5.431   3.720   2.405 -0.1804 -0.5793  0.4718
10827TIP3   OH253895   6.200   4.567   2.347 -0.0296 -0.1140 -0.4122
10827TIP3    H153896   6.223   4.658   2.326 -0.0892  0.3411  1.3758
10827TIP3    H253897   6.181   4.568   2.441  0.0296 -1.9982 -0.3500
10828TIP3   OH253898   0.064   0.794  16.519 -0.1926  1.0640  0.3981
10828TIP3    H153899   0.004   0.791  16.445  1.3478  1.1998 -0.9027
10828TIP3    H253900   0.115   0.713  16.512 -0.9733  0.3574  2.1854
10829TIP3   OH253901   6.744   1.657  15.245  0.0618 -0.1967 -0.1470
10829TIP3    H153902   6.652   1.651  15.272 -0.4042 -0.0795 -1.6381
10829TIP3    H253903   6.766   1.569  15.214  0.3204 -0.1161 -0.1912
10830TIP3   OH253904   0.720   2.380  16.958 -0.3637  0.2096 -0.2956
10830TIP3    H153905   0.784   2.336  17.014 -1.1797  0.1305  0.5987
10830TIP3    H253906   0.667   2.309  16.922 -1.2973  0.3726  0.6738
10831TIP3   OH253907   3.118   0.104  17.137  0.0761 -0.0215  0.4504
10831TIP3    H153908   3.090   0.020  17.100 -0.1788  0.1842  0.1740
10831TIP3    H253909   3.157   0.081  17.221 -2.0736 -0.1999  1.4600
10832TIP3   OH253910   1.980   1.384  13.408 -0.0533  0.5815  0.4737
10832TIP3    H153911   1.916   1.372  13.478  0.3381  2.6120  1.2412
10832TIP3    H253912   2.062   1.403  13.453  0.8463 -0.7216 -0.5306
10833TIP3   OH253913   4.740   1.130   0.637  0.1763  0.1064  0.2168
10833TIP3    H153914   4.767   1.080   0.561  1.3688  0.7340  0.2097
10833TIP3    H253915   4.811   1.119   0.701 -0.0642  0.8563  0.6391
10834TIP3   OH253916   6.587   2.245   1.370  0.1980  0.2255 -0.1802
10834TIP3    H153917   6.566   2.282   1.455 -0.1551  0.7973 -0.5138
10834TIP3    H253918   6.630   2.161   1.390  1.6114  1.1079  0.6002
10835TIP3   OH253919   3.721   3.341   5.665 -0.0879  0.3105  0.0300
10835TIP3    H153920   3.692   3.250   5.663  1.9963 -0.4098 -0.1096
10835TIP3    H253921   3.712   3.371   5.574 -0.7072  0.2472  0.0629
10836TIP3   OH253922   4.385   2.130  13.803  0.0789 -1.0780  0.4013
10836TIP3    H153923   4.302   2.176  13.818 -0.1309 -1.3062 -0.0723
10836TIP3    H253924   4.446   2.174  13.862  0.1703  0.6076 -0.8819
10837TIP3   OH253925   6.419   0.947  10.550  0.2514  0.4189 -0.1203
10837TIP3    H153926   6.371   0.866  10.530  0.7799  0.1396 -0.2638
10837TIP3    H253927   6.350   1.013  10.559 -0.0723  0.4186 -2.1190
10838TIP3   OH253928   3.552   0.360   2.547  0.2890  0.3879  0.5519
10838TIP3    H153929   3.593   0.446   2.557 -0.3773  0.6495  1.1063
10838TIP3    H253930   3.532   0.354   2.454 -2.3710  2.1327  0.9066
10839TIP3   OH253931   6.260   2.280  15.053 -0.0777 -0.3424 -0.2221
10839TIP3    H153932   6.227   2.233  15.129  0.3339 -0.1539  0.0811
10839TIP3    H253933   6.193   2.268  14.986 -1.1538  0.6846  0.6166
10840TIP3   OH253934   2.413   4.090   0.065 -0.1477  0.7816 -0.6010
10840TIP3    H153935   2.325   4.122   0.042 -1.2576 -2.0980 -0.6887
10840TIP3    H253936   2.403   3.995   0.072  2.9362  0.3956 -0.3487
10841TIP3   OH253937   0.784   4.428  16.050  0.2626  0.3357 -0.0772
10841TIP3    H153938   0.868   4.384  16.037  2.0895  2.9800  1.8503
10841TIP3    H253939   0.736   4.369  16.108  1.6404 -0.2741  0.4954
10842TIP3   OH253940   1.247   1.716  12.755 -0.1163  0.1316 -0.1641
10842TIP3    H153941   1.225   1.780  12.687 -0.9304 -0.0548 -0.0843
10842TIP3    H253942   1.274   1.638  12.706  0.7091  0.4667 -0.2613
10843TIP3   OH253943   6.118   4.758  14.383  0.8171  0.0832  0.8652
10843TIP3    H153944   6.203   4.801  14.380  0.3758  0.9548 -1.3699
10843TIP3    H253945   6.136   4.670  14.414  2.2933  0.7202  1.9115
10844TIP3   OH253946   5.245   0.772   0.465 -0.1877  0.1324 -0.2867
10844TIP3    H153947   5.340   0.780   0.472 -0.0630 -0.7878 -0.8642
10844TIP3    H253948   5.219   0.845   0.408 -0.1804  2.0854  2.0331
10845TIP3   OH253949   2.781   1.875   5.170 -0.1618 -0.7512 -0.0951
10845TIP3    H153950   2.782   1.964   5.204  3.2701 -0.4308 -0.6948
10845TIP3    H253951   2.859   1.834   5.207 -0.2961 -2.7018 -1.8018
10846TIP3   OH253952   6.731   5.631   2.710  0.0665  0.6040 -0.4037
10846TIP3    H153953   6.684   5.558   2.750  0.8198  0.9635  1.2080
10846TIP3    H253954   6.714   5.705   2.768  2.4796  0.7708  0.1889
10847TIP3   OH253955   1.012   5.656   1.818 -0.2470 -0.3986  0.7441
10847TIP3    H153956   0.977   5.683   1.733 -0.0889  1.3613  1.1980
10847TIP3    H253957   0.971   5.571   1.834  0.4700 -1.2483 -1.5041
10848TIP3   OH253958   1.597   2.997  15.041 -0.2069 -0.4213  0.1717
10848TIP3    H153959   1.573   2.998  14.949  0.5802 -1.5738 -0.0695
10848TIP3    H253960   1.516   2.973  15.086 -0.3523 -0.8644 -0.3147
10849TIP3   OH253961   3.800   1.681   4.456  0.4080  0.0813  0.1414
10849TIP3    H153962   3.741   1.698   4.530  2.1505 -0.1132  1.6454
10849TIP3    H253963   3.847   1.763   4.442 -0.8900  0.5704 -1.7637
10850TIP3   OH253964   1.159   1.505   0.634 -0.2196 -0.4969 -0.0326
10850TIP3    H153965   1.067   1.479   0.623 -0.0615 -0.7176 -0.8919
10850TIP3    H253966   1.172   1.575   0.570 -0.5319  1.5196  1.9606
10851TIP3   OH253967   2.666   1.379  16.952 -0.3005  0.1631  0.2785
10851TIP3    H153968   2.734   1.317  16.925  0.4682  0.1121  2.1704
10851TIP3    H253969   2.704   1.426  17.027 -2.5173 -0.2146  1.7490
10852TIP3   OH253970   0.303   5.869  13.856 -0.2172 -0.9011 -0.1104
10852TIP3    H153971   0.219   5.908  13.879  0.9303  0.9656  1.1570
10852TIP3    H253972   0.336   5.833  13.938  1.2522  0.5399 -0.0059
10853TIP3   OH253973   2.835   1.240  16.569 -0.3273  0.1817  0.5253
10853TIP3    H153974   2.854   1.150  16.595 -0.2899 -0.0971 -0.4286
10853TIP3    H253975   2.742   1.239  16.544 -0.9068  0.9030  2.5172
10854TIP3   OH253976   3.718   5.816   4.819  0.7112  0.2045 -0.3432
10854TIP3    H153977   3.779   5.841   4.749  0.8892 -1.1394 -0.6890
10854TIP3    H253978   3.670   5.897   4.838 -0.3511  0.3365 -3.0420
10855TIP3   OH253979   4.288   2.863   5.454 -0.4477 -0.0063  0.3365
10855TIP3    H153980   4.245   2.783   5.485 -0.9961  0.4163  0.6907
10855TIP3    H253981   4.291   2.853   5.359 -1.6949  0.1109  0.2616
10856TIP3   OH253982   6.321   4.656   2.776 -0.6055 -0.0034 -0.1881
10856TIP3    H153983   6.339   4.633   2.685 -0.0153 -1.4161  0.2579
10856TIP3    H253984   6.372   4.735   2.791  0.4406 -0.5537 -0.7038
10857TIP3   OH253985   4.001   2.454   6.529  0.1622  0.2056 -0.1184
10857TIP3    H153986   4.033   2.538   6.562  0.5081  0.4591 -1.0444
10857TIP3    H253987   4.014   2.393   6.601  2.4312  0.3878 -0.3062
10858TIP3   OH253988   3.521   1.979   4.958 -0.1873 -0.3279 -0.0385
10858TIP3    H153989   3.484   1.892   4.947 -0.5258 -0.5247  2.1894
10858TIP3    H253990   3.450   2.030   4.999  0.3395  0.7148 -0.3814
10859TIP3   OH253991   0.480   6.528   1.232 -0.0451 -0.3083  0.0571
10859TIP3    H153992   0.402   6.518   1.287 -0.2350 -0.8255 -0.2978
10859TIP3    H253993   0.450   6.579   1.157  0.3040  0.7260  0.5997
10860TIP3   OH253994   3.170   0.106  16.464  0.1218  0.2857 -0.2231
10860TIP3    H153995   3.189   0.013  16.475  1.3860  0.5639  0.0155
10860TIP3    H253996   3.194   0.125  16.373 -0.3009  0.3506 -0.3247
10861TIP3   OH253997   6.143   6.039   2.188 -0.4087  0.0855 -0.3386
10861TIP3    H153998   6.117   6.037   2.096 -0.7667  0.3271 -0.2441
10861TIP3    H253999   6.072   6.085   2.232 -0.3609 -0.2511  0.0987
10862TIP3   OH254000   4.919   6.156  13.901 -0.6135 -0.2393 -0.3458
10862TIP3    H154001   4.919   6.075  13.952 -0.0504  0.6293  1.1016
10862TIP3    H254002   4.970   6.217  13.954 -1.7671  1.3300 -0.9752
10863TIP3   OH254003   4.689   3.127  16.273  0.3337 -0.1198  0.0987
10863TIP3    H154004   4.740   3.125  16.192  0.2361 -0.8620  0.0478
10863TIP3    H254005   4.600   3.150  16.245  0.3025 -0.3663 -0.0133
10864TIP3   OH254006   0.858   3.165  11.513  0.1652 -0.9579  0.0366
10864TIP3    H154007   0.913   3.184  11.437  0.0156 -1.9564 -0.3360
10864TIP3    H254008   0.893   3.082  11.548  2.4281  1.0626  3.1079
10865TIP3   OH254009   3.256   5.200  17.372  0.5153  0.1563  0.1372
10865TIP3    H154010   3.314   5.125  17.356  1.2115  0.7714 -0.3405
10865TIP3    H254011   3.274   5.225  17.463  1.8863  1.0395 -0.3343
10866TIP3   OH254012   3.554   3.463  13.549  0.0136  0.0727 -0.0076
10866TIP3    H154013   3.565   3.369  13.563 -0.3274 -0.3822 -2.4223
10866TIP3    H254014   3.593   3.479  13.463 -0.3423  2.0656  0.1641
10867TIP3   OH254015   6.538   1.439   4.237 -0.3510  0.5918 -0.0474
10867TIP3    H154016   6.628   1.469   4.225 -0.1032 -0.4356 -0.9542
10867TIP3    H254017   6.487   1.520   4.245  0.3507  1.2882 -1.9199
10868TIP3   OH254018   3.205   4.987  11.992  0.1364  0.2859 -0.6726
10868TIP3    H154019   3.268   5.057  12.009  0.8200 -0.4681 -0.0084
10868TIP3    H254020   3.231   4.950  11.908  1.2930 -0.7372  0.0999
10869TIP3   OH254021   3.797   2.337   2.807  0.5598  0.8132  0.2059
10869TIP3    H154022   3.747   2.332   2.726  0.9004  0.4280  0.0156
10869TIP3    H254023   3.775   2.422   2.844  0.1194  0.8359 -0.1057
10870TIP3   OH254024   5.265   1.750  11.659  0.4333  0.2177  0.0876
10870TIP3    H154025   5.355   1.777  11.640  0.2464 -0.0361 -1.2515
10870TIP3    H254026   5.272   1.701  11.741  1.3274  1.1802  0.6207
10871TIP3   OH254027   5.288   4.964  11.518  0.1099 -0.5718 -0.0062
10871TIP3    H154028   5.359   4.907  11.487 -0.3173 -1.0860 -0.0407
10871TIP3    H254029   5.210   4.934  11.471 -0.5572 -1.3892  1.5549
10872TIP3   OH254030   4.672   4.640  16.989  0.2273 -0.1278  0.8804
10872TIP3    H154031   4.659   4.642  16.894 -0.6469 -1.4523  0.9445
10872TIP3    H254032   4.739   4.573  17.003 -0.2559 -0.5412  1.2481
10873TIP3   OH254033   5.257   1.565  13.830 -0.2604 -0.4726 -0.2257
10873TIP3    H154034   5.202   1.564  13.909 -1.0386  1.1089 -0.7000
10873TIP3    H254035   5.344   1.590  13.862 -0.4358 -0.4034  0.2071
10874TIP3   OH254036   4.883   5.909  14.093  0.4033 -0.3462  0.3813
10874TIP3    H154037   4.837   5.898  14.009 -0.2108 -0.6919  0.7585
10874TIP3    H254038   4.885   5.821  14.131  2.5830 -0.6283 -0.2241
10875TIP3   OH254039   4.592   3.157  12.593 -0.3468  0.1215  0.1453
10875TIP3    H154040   4.542   3.109  12.526 -1.2233  1.1666  0.0117
10875TIP3    H254041   4.624   3.235  12.547  1.6562 -0.6345  0.1671
10876TIP3   OH254042   6.362   2.754   0.544  0.0218 -0.0164  0.0765
10876TIP3    H154043   6.414   2.834   0.536 -0.2001  0.2689  1.2194
10876TIP3    H254044   6.296   2.762   0.475  1.1368 -0.1344 -1.0389
10877TIP3   OH254045   6.330   2.568  16.637 -0.0893  0.1625  0.0266
10877TIP3    H154046   6.258   2.576  16.700 -0.7471  1.1344 -0.8047
10877TIP3    H254047   6.286   2.558  16.552  0.7624  0.3427 -0.4451
10878TIP3   OH254048   5.227   1.257   3.212 -0.6267 -0.2426 -0.0942
10878TIP3    H154049   5.294   1.222   3.155  1.9794  0.7490  2.1361
10878TIP3    H254050   5.201   1.183   3.267  0.1279 -0.2119  0.3224
10879TIP3   OH254051   1.993   2.147   0.072 -0.8584 -0.0879 -0.0054
10879TIP3    H154052   2.067   2.197   0.038 -0.3625  0.0613  1.2686
10879TIP3    H254053   2.009   2.057   0.040  1.0516 -0.5388  1.9838
10880TIP3   OH254054   6.277   5.440  17.018 -0.0787 -0.4008  0.4756
10880TIP3    H154055   6.218   5.509  16.987 -2.7754 -3.3851 -1.6732
10880TIP3    H254056   6.243   5.416  17.104  0.1860  0.1949  0.7500
10881TIP3   OH254057   6.517   0.139   2.714 -0.3303  0.1258  0.1443
10881TIP3    H154058   6.513   0.220   2.663 -0.7724  1.1626  1.7407
10881TIP3    H254059   6.610   0.128   2.733 -0.2000 -0.0897 -0.5958
10882TIP3   OH254060   2.307   3.433  17.363 -0.4412  0.2149  0.3980
10882TIP3    H154061   2.301   3.525  17.338  0.1896 -0.3301 -2.0022
10882TIP3    H254062   2.353   3.434  17.447  1.3107  2.0004 -0.4867
10883TIP3   OH254063   2.244   4.623  13.637 -0.1556 -0.1238  0.1546
10883TIP3    H154064   2.302   4.547  13.643 -1.7091 -1.6210 -2.1490
10883TIP3    H254065   2.203   4.628  13.723  0.9266 -1.0813  0.7631
10884TIP3   OH254066   2.330   5.196  17.331 -0.2388  0.2643 -0.1081
10884TIP3    H154067   2.263   5.129  17.345 -1.1879  1.1063 -0.5042
10884TIP3    H254068   2.395   5.154  17.274 -0.1672 -0.7189  0.6716
10885TIP3   OH254069   1.586   6.409   6.702  0.8315 -0.0902 -0.0966
10885TIP3    H154070   1.498   6.408   6.740  0.2020 -0.9592 -1.4971
10885TIP3    H254071   1.639   6.357   6.763 -0.0772 -1.1708 -0.1919
10886TIP3   OH254072   4.759   2.220   3.420  0.4978  0.2986  0.1157
10886TIP3    H154073   4.828   2.161   3.453  1.7603  0.5989 -1.8210
10886TIP3    H254074   4.786   2.241   3.331 -2.2452  0.2935 -0.8089
10887TIP3   OH254075   5.877   1.114  11.092  0.5473 -0.0367  0.6357
10887TIP3    H154076   5.810   1.067  11.042  1.9910 -0.6089 -0.9036
10887TIP3    H254077   5.913   1.177  11.030  1.7988 -0.1407  1.2240
10888TIP3   OH254078   1.852   1.284  14.864  0.1387 -0.5473  0.2216
10888TIP3    H154079   1.938   1.243  14.874  0.7448  0.8153  0.7353
10888TIP3    H254080   1.853   1.324  14.777  0.5654  0.6635  0.7659
10889TIP3   OH254081   5.259   2.279   5.242 -0.0280 -0.2620  0.3194
10889TIP3    H154082   5.312   2.358   5.252  0.7121 -0.8033  0.7415
10889TIP3    H254083   5.273   2.251   5.152  1.7157 -1.3076  0.8773
10890TIP3   OH254084   1.675   2.090  16.835 -0.3003  0.1952 -0.1715
10890TIP3    H154085   1.683   2.022  16.902  0.5413 -0.7582 -1.2077
10890TIP3    H254086   1.606   2.059  16.777  1.0667 -0.5341 -1.4703
10891TIP3   OH254087   5.731   2.828  15.199  0.8290 -0.3265  0.1568
10891TIP3    H154088   5.804   2.826  15.261  0.8894  0.6167  0.1230
10891TIP3    H254089   5.671   2.893  15.234  0.0036 -1.0608  0.1604
10892TIP3   OH254090   1.992   1.602  16.493 -0.5422  0.0744  0.1758
10892TIP3    H154091   2.056   1.535  16.470 -0.9734 -0.2287 -0.1361
10892TIP3    H254092   2.023   1.636  16.577 -0.3517 -0.5486  0.3625
10893TIP3   OH254093   6.532   1.166   3.233 -0.3351  0.6596 -0.0341
10893TIP3    H154094   6.620   1.190   3.204 -0.8858  1.9061 -0.7404
10893TIP3    H254095   6.498   1.245   3.275 -0.5304 -0.3173  1.7513
10894TIP3   OH254096   3.494   4.199   1.816  0.1917  0.3623  0.4610
10894TIP3    H154097   3.412   4.244   1.799  0.1773  0.3464  0.4891
10894TIP3    H254098   3.495   4.127   1.753  0.1732  0.3484  0.4767
10895TIP3   OH254099   3.775   0.324  12.565 -0.0971 -0.2150  0.3073
10895TIP3    H154100   3.693   0.369  12.586 -1.2031 -2.1025  0.3568
10895TIP3    H254101   3.828   0.333  12.643 -1.8205 -2.1272  1.8381
10896TIP3   OH254102   5.127   2.033  16.958  0.7192  0.1002 -0.5114
10896TIP3    H154103   5.138   2.018  17.052  1.7367  1.8686 -0.3035
10896TIP3    H254104   5.075   2.113  16.953 -2.4833 -1.8358 -1.5286
10897TIP3   OH254105   4.965   2.846  14.627  0.3845  0.9359 -0.1591
10897TIP3    H154106   5.048   2.887  14.651  0.1028 -0.1923  3.3048
10897TIP3    H254107   4.899   2.895  14.677 -0.5342 -0.5468  0.1363
10898TIP3   OH254108   4.179   5.892   5.488 -0.4528  0.1950 -0.2556
10898TIP3    H154109   4.236   5.882   5.564  0.3705  0.3593 -0.8331
10898TIP3    H254110   4.232   5.860   5.414 -0.6177  1.5817 -1.0048
10899TIP3   OH254111   5.206   3.558   3.163  0.1466 -0.1901  0.0844
10899TIP3    H154112   5.127   3.602   3.194 -0.4237 -0.3301 -1.0788
10899TIP3    H254113   5.191   3.548   3.069  0.6790 -1.9853  0.1531
10900TIP3   OH254114   0.008   3.248  12.646 -0.0257 -0.4091  0.2832
10900TIP3    H154115   0.065   3.196  12.704  1.0859 -0.5596 -0.8968
10900TIP3    H254116  -0.062   3.187  12.623 -1.2131  0.0298  2.4147
10901TIP3   OH254117   0.879   3.825   4.587 -0.0517  0.0634  0.3121
10901TIP3    H154118   0.854   3.852   4.676 -0.0684 -0.6952  0.5478
10901TIP3    H254119   0.834   3.742   4.574  0.9485 -0.4594  0.0707
10902TIP3   OH254120   0.812   2.445   2.411  0.3445 -0.0194  0.3119
10902TIP3    H154121   0.786   2.513   2.473 -1.8698 -2.7811  2.6999
10902TIP3    H254122   0.746   2.448   2.342  1.3779  1.4346 -0.6566
10903TIP3   OH254123   2.302   3.692  17.017  0.3074  0.3762  0.6272
10903TIP3    H154124   2.326   3.777  16.980 -2.1993 -0.0039 -2.2637
10903TIP3    H254125   2.290   3.709  17.111  4.1195  2.1077  0.9614
10904TIP3   OH254126   0.202   0.733   5.055 -0.4178 -0.0452 -0.0041
10904TIP3    H154127   0.294   0.709   5.067 -0.1262 -0.1514 -2.0311
10904TIP3    H254128   0.153   0.655   5.080  0.1160 -0.3966 -0.0319
10905TIP3   OH254129   3.734   5.474   0.530 -0.4783  0.4272 -0.1685
10905TIP3    H154130   3.726   5.530   0.453  0.8521  0.7362 -0.1006
10905TIP3    H254131   3.825   5.443   0.529 -0.4510  0.3810  1.2283
10906TIP3   OH254132   2.164   4.104   2.560 -0.2475 -0.5388  0.0191
10906TIP3    H154133   2.163   4.032   2.496 -0.5009  0.1630 -0.7907
10906TIP3    H254134   2.149   4.062   2.644 -1.6043 -1.2990 -0.5752
10907TIP3   OH254135   3.369   3.144  12.384 -0.1326  0.3042 -0.1592
10907TIP3    H154136   3.348   3.091  12.460  0.0151 -0.6594 -0.7715
10907TIP3    H254137   3.321   3.104  12.312  0.7584  0.3909 -0.8287
10908TIP3   OH254138   4.816   5.175  16.998 -0.1821  0.5105  0.7864
10908TIP3    H154139   4.816   5.126  17.080 -1.0933  0.2616  0.6412
10908TIP3    H254140   4.732   5.156  16.958  1.0205 -1.0593 -1.2005
10909TIP3   OH254141   0.874   6.378  16.378  0.1096  0.3700  0.0020
10909TIP3    H154142   0.902   6.301  16.427 -0.3245  0.2859  0.1235
10909TIP3    H254143   0.788   6.399  16.414  0.7547  1.6836  0.8640
10910TIP3   OH254144   1.704   3.829  16.037 -0.7754  0.0720 -0.0238
10910TIP3    H154145   1.779   3.854  16.091 -0.1103  1.1979 -1.3902
10910TIP3    H254146   1.713   3.735  16.024  1.7058  0.4830 -1.9754
10911TIP3   OH254147   0.419   5.144   0.909  0.5562 -0.3201  0.2337
10911TIP3    H154148   0.338   5.115   0.953  0.3286  0.2240  0.1775
10911TIP3    H254149   0.407   5.119   0.818  0.6451 -0.6423  0.3080
10912TIP3   OH254150   1.420   6.577   5.546  0.1887  0.0806  0.1795
10912TIP3    H154151   1.494   6.523   5.573 -1.2100 -1.0342  2.0581
10912TIP3    H254152   1.438   6.600   5.455  2.4270 -0.8157  0.3441
10913TIP3   OH254153   4.408   2.687   4.464  0.0100 -0.1711  0.8775
10913TIP3    H154154   4.420   2.720   4.553 -1.0494 -2.2556  1.8792
10913TIP3    H254155   4.364   2.603   4.476  2.0750 -1.7411 -1.4740
10914TIP3   OH254156   1.073   4.307   4.340 -0.3088 -0.3291 -0.6245
10914TIP3    H154157   1.077   4.338   4.430  3.1401 -0.0687 -0.7063
10914TIP3    H254158   1.055   4.214   4.346  1.2438 -0.5906  0.4906
10915TIP3   OH254159   4.102   2.741   2.242  0.3178  0.0326 -0.1942
10915TIP3    H154160   4.101   2.648   2.264  2.6188  0.0463  0.1453
10915TIP3    H254161   4.111   2.743   2.147  2.6328 -0.1722 -0.0304
10916TIP3   OH254162   2.632   1.667  17.392  0.1674 -0.0183  0.4340
10916TIP3    H154163   2.554   1.707  17.430  0.0455 -0.0507  0.2197
10916TIP3    H254164   2.686   1.741  17.363 -0.3760 -0.0222 -0.6005
10917TIP3   OH254165   3.114   0.627  13.501 -0.3048 -0.4448 -0.0081
10917TIP3    H154166   3.161   0.547  13.479  1.5655  0.0555  1.9170
10917TIP3    H254167   3.179   0.696  13.492 -1.9543  0.9764 -1.9121
10918TIP3   OH254168   4.251   2.878  14.084  0.2340  0.5309  0.3537
10918TIP3    H154169   4.239   2.854  13.992  2.4360 -0.0553  0.1620
10918TIP3    H254170   4.260   2.973  14.083 -2.3384  0.8447  0.3448
10919TIP3   OH254171   1.664   1.085   0.394 -0.2274  0.5585 -0.1919
10919TIP3    H154172   1.727   1.132   0.449  0.7985 -0.4971 -0.4414
10919TIP3    H254173   1.699   1.094   0.306 -1.2976  1.3196 -0.5615
10920TIP3   OH254174   2.393   0.285  13.447  0.1567  0.4034  0.2642
10920TIP3    H154175   2.483   0.283  13.417 -0.2632 -0.8987 -1.0285
10920TIP3    H254176   2.372   0.378  13.457  1.2742  0.7534 -0.5343
10921TIP3   OH254177   4.635   3.210  15.018  0.5167 -0.3757  0.7362
10921TIP3    H154178   4.663   3.228  14.928 -0.3198  1.2700  0.7677
10921TIP3    H254179   4.711   3.231  15.072 -0.0048  1.9931  0.6502
10922TIP3   OH254180   0.146   6.085  16.481  0.1508  0.0948 -0.4994
10922TIP3    H154181   0.148   6.165  16.430 -0.7690  0.4987  0.0633
10922TIP3    H254182   0.099   6.022  16.426  0.5918  0.0328 -0.8083
10923TIP3   OH254183   0.274   5.850  16.620  0.1578  0.8802 -1.4390
10923TIP3    H154184   0.342   5.790  16.652 -2.6849 -1.4422  0.9302
10923TIP3    H254185   0.245   5.810  16.538 -1.2134 -0.7314 -0.2434
10924TIP3   OH254186   1.269   6.567  14.101  0.1478  0.4863 -0.0188
10924TIP3    H154187   1.261   6.473  14.115 -0.5143  0.7649  1.7958
10924TIP3    H254188   1.354   6.578  14.058  0.5282 -0.8729  0.3298
10925TIP3   OH254189   5.264   1.590   0.667  0.0152 -0.0809 -0.0962
10925TIP3    H154190   5.338   1.537   0.637 -0.5555 -0.5151 -0.7707
10925TIP3    H254191   5.270   1.671   0.615  1.4955  1.0260  1.6618
10926TIP3   OH254192   3.537   6.126  15.232 -0.3981 -0.5829  0.0762
10926TIP3    H154193   3.590   6.181  15.175 -0.7361 -0.4717 -0.1389
10926TIP3    H254194   3.598   6.092  15.297 -0.5336  1.7111  1.4878
10927TIP3   OH254195   4.845   1.007  12.424 -0.0527 -0.8581  0.2596
10927TIP3    H154196   4.911   0.942  12.446  0.2130 -0.8107 -0.3917
10927TIP3    H254197   4.890   1.069  12.367 -0.4043 -0.3050  0.5658
10928TIP3   OH254198   1.507   1.755   1.727  0.6604  0.5100  0.3449
10928TIP3    H154199   1.474   1.667   1.743 -0.6325  0.9711  0.2975
10928TIP3    H254200   1.566   1.745   1.652 -1.1051 -0.0026 -1.0431
10929TIP3   OH254201   0.255   4.787  13.654  0.2194  0.0144 -0.4227
10929TIP3    H154202   0.302   4.750  13.580  1.9461  2.2838 -0.5631
10929TIP3    H254203   0.312   4.774  13.729 -1.0594 -1.3414  0.3707
10930TIP3   OH254204   1.930   3.958  10.660  0.5144 -0.0409  0.0293
10930TIP3    H154205   2.019   3.946  10.627  1.1165  0.4455  1.4115
10930TIP3    H254206   1.874   3.931  10.587  1.7796 -1.1523 -0.5765
10931TIP3   OH254207   0.264   3.869  13.278  0.1247  0.3209  0.4908
10931TIP3    H154208   0.190   3.926  13.258 -0.8992 -0.8087  0.9661
10931TIP3    H254209   0.325   3.882  13.204 -0.5799  1.1956  0.0506
10932TIP3   OH254210   3.065   3.932  16.890  0.1779  0.0065  0.2915
10932TIP3    H154211   2.989   3.885  16.854 -0.3056  0.4376  0.7348
10932TIP3    H254212   3.139   3.875  16.870 -0.3810 -0.9035  0.7172
10933TIP3   OH254213   1.698   1.370  13.066 -0.1223 -0.2979  0.3879
10933TIP3    H154214   1.625   1.402  13.013  1.7731  1.0330 -1.6104
10933TIP3    H254215   1.682   1.276  13.076 -1.6013 -0.2007 -0.8075
10934TIP3   OH254216   3.652   0.958   2.098  0.1344 -0.2243 -0.1762
10934TIP3    H154217   3.748   0.964   2.100  0.1485  0.8100 -1.9330
10934TIP3    H254218   3.624   1.008   2.175  0.9870 -1.9874  1.3699
10935TIP3   OH254219   5.451   5.407  11.142 -0.1097 -0.2102  0.0901
10935TIP3    H154220   5.424   5.346  11.211  2.1367 -0.7519  0.5659
10935TIP3    H254221   5.545   5.393  11.133  0.1568  1.9216 -1.0598
10936TIP3   OH254222   5.084   1.052   3.663  0.0966 -0.1582 -0.7970
10936TIP3    H154223   5.162   1.040   3.608  1.8793 -0.4748  1.6149
10936TIP3    H254224   5.085   0.976   3.722 -1.4457  0.3901 -0.0271
10937TIP3   OH254225   3.347   1.806   3.213  0.1497 -0.1676 -0.2867
10937TIP3    H154226   3.312   1.874   3.155 -0.0786  0.3897  0.4895
10937TIP3    H254227   3.307   1.824   3.298  1.8232  0.1149  0.4861
10938TIP3   OH254228   5.235   5.829   3.297  0.6148 -0.1325 -0.7740
10938TIP3    H154229   5.183   5.855   3.220  0.5491 -1.2468 -1.1234
10938TIP3    H254230   5.325   5.823   3.264  0.8210  0.7726 -0.4127
10939TIP3   OH254231   3.449   2.012  15.883 -0.0500 -0.2654  0.0012
10939TIP3    H154232   3.490   1.935  15.844 -2.2364 -0.8089 -1.4139
10939TIP3    H254233   3.459   2.080  15.817 -1.1046 -0.3215 -0.2312
10940TIP3   OH254234   1.165   3.633   5.475 -0.4184 -0.5258  0.0208
10940TIP3    H154235   1.172   3.546   5.513  0.4518 -0.3593  0.2564
10940TIP3    H254236   1.129   3.618   5.387 -1.0130 -1.0431  0.3463
10941TIP3   OH254237   3.834   1.885  13.778  0.2498 -0.0170  0.0914
10941TIP3    H154238   3.791   1.933  13.707 -2.2344 -2.3011 -0.0900
10941TIP3    H254239   3.796   1.921  13.858  0.4162  0.1354  0.1040
10942TIP3   OH254240   0.582   5.527   5.428  0.6178  0.0204  0.2703
10942TIP3    H154241   0.600   5.620   5.437 -0.0959  0.1617  0.3064
10942TIP3    H254242   0.532   5.504   5.506 -0.1512 -0.1419 -0.2554
10943TIP3   OH254243   5.614   0.638   2.582  0.2861 -0.5269  0.6621
10943TIP3    H154244   5.531   0.684   2.592  1.0909  1.2902 -0.4083
10943TIP3    H254245   5.595   0.564   2.525 -0.4097  0.5515 -0.5605
10944TIP3   OH254246   4.323   1.223   1.025 -0.3664  0.0316 -0.1631
10944TIP3    H154247   4.283   1.195   0.942  1.0787 -0.8735 -0.6020
10944TIP3    H254248   4.286   1.163   1.090 -0.7476  0.0838 -0.3271
10945TIP3   OH254249   5.011   0.471  14.328 -0.1046  0.2147  0.6545
10945TIP3    H154250   5.047   0.525  14.399 -0.5864  2.2673 -0.5846
10945TIP3    H254251   5.035   0.517  14.248 -0.6239 -1.4042 -0.4865
10946TIP3   OH254252   6.559   2.384   5.225  0.7258  0.3099 -0.1559
10946TIP3    H154253   6.653   2.392   5.209  0.9646  0.0944  1.1038
10946TIP3    H254254   6.552   2.342   5.310 -0.5130  0.9029  0.0552
10947TIP3   OH254255   5.814   4.240  16.132 -0.5403 -0.0953  0.2943
10947TIP3    H154256   5.837   4.184  16.059  0.6221  0.9877 -0.2222
10947TIP3    H254257   5.739   4.291  16.101 -1.8666 -1.5756  0.9129
10948TIP3   OH254258   2.992   4.013  15.716  0.3496  0.3540 -0.2527
10948TIP3    H154259   3.021   4.098  15.752  2.1292 -1.4291  2.9835
10948TIP3    H254260   3.063   3.953  15.738 -0.4352 -1.9040 -3.2639
10949TIP3   OH254261   3.172   4.006   0.202 -0.1867  0.3602  0.2104
10949TIP3    H154262   3.164   3.991   0.296 -0.4047 -1.5686 -0.0688
10949TIP3    H254263   3.085   4.036   0.175 -0.3835  0.0509  0.4916
10950TIP3   OH254264   6.139   1.313   2.639 -0.1835 -0.1982  0.1030
10950TIP3    H154265   6.216   1.312   2.696  0.0746 -0.7605 -0.2501
10950TIP3    H254266   6.101   1.400   2.652 -0.6488 -0.6170  1.8175
10951TIP3   OH254267   0.375   4.248  16.699 -0.0126  0.1402 -0.0081
10951TIP3    H154268   0.438   4.273  16.767  0.6002  3.4472 -1.6041
10951TIP3    H254269   0.428   4.212  16.628  0.2937  3.1592 -1.4581
10952TIP3   OH254270   1.701   1.942  13.349  0.1498  0.0860 -0.3106
10952TIP3    H154271   1.709   2.035  13.370  0.8798  0.0465 -0.4121
10952TIP3    H254272   1.607   1.929  13.334  0.2933  1.4472 -3.1416
10953TIP3   OH254273   6.079   3.049   2.219  0.1895 -0.6026  0.5243
10953TIP3    H154274   6.078   2.976   2.281  2.3274 -0.1971  1.1080
10953TIP3    H254275   6.147   3.026   2.156 -1.2987 -0.5619 -1.1766
10954TIP3   OH254276   3.016   3.075   4.211 -0.1610 -0.2357  0.3949
10954TIP3    H154277   3.047   3.057   4.300  0.6016  3.3661  1.0107
10954TIP3    H254278   2.923   3.096   4.222 -0.0681  0.2036  0.3898
10955TIP3   OH254279   5.734   3.558   4.467 -0.3457  0.4771 -0.2130
10955TIP3    H154280   5.654   3.576   4.417 -0.4190  2.8472  0.6262
10955TIP3    H254281   5.722   3.469   4.499 -1.8660  0.1596 -1.5119
10956TIP3   OH254282   3.976   5.240   4.954  0.3793  0.1372 -0.2445
10956TIP3    H154283   3.991   5.205   5.042  1.7462  0.4776 -0.3245
10956TIP3    H254284   4.001   5.332   4.960  0.1664  0.2437 -0.9060
10957TIP3   OH254285   3.966   1.286   5.844 -0.2070  0.8198 -0.1201
10957TIP3    H154286   3.990   1.373   5.875 -0.1177  0.4976  0.7570
10957TIP3    H254287   3.887   1.265   5.894  0.3975 -0.0431  0.5026
10958TIP3   OH254288   3.149   6.260  14.571  0.0256 -0.0959 -0.1702
10958TIP3    H154289   3.207   6.266  14.646 -1.3345  1.6003  0.8478
10958TIP3    H254290   3.096   6.182  14.587 -0.6869  0.5977  1.0156
10959TIP3   OH254291   2.395   6.048  13.524  0.5432 -0.3912 -0.2315
10959TIP3    H154292   2.379   6.138  13.496 -0.6967  0.0314  1.6680
10959TIP3    H254293   2.400   5.998  13.442  0.8471  1.3082 -1.3059
10960TIP3   OH254294   6.135   6.101   1.865 -0.1859  0.2794  0.2684
10960TIP3    H154295   6.126   6.032   1.799  1.8950 -0.4736  0.7163
10960TIP3    H254296   6.087   6.175   1.828 -0.4841 -0.6453 -1.3149
10961TIP3   OH254297   5.126   6.172  11.716 -0.2332 -0.2678 -0.1665
10961TIP3    H154298   5.215   6.192  11.745 -0.5565  1.1299 -0.1148
10961TIP3    H254299   5.086   6.257  11.699 -1.4510 -0.8962 -0.5387
10962TIP3   OH254300   0.965   2.024  13.075 -0.0931 -0.5055 -0.3339
10962TIP3    H154301   1.012   1.963  13.132  0.2152 -0.9668 -1.0570
10962TIP3    H254302   0.929   1.969  13.006  0.1548  0.1234 -0.9824
10963TIP3   OH254303   2.770   0.414   3.829  0.4765 -0.1877  0.2737
10963TIP3    H154304   2.792   0.321   3.835  1.9605  0.1483  0.3871
10963TIP3    H254305   2.833   0.450   3.766  0.2872  0.8492  0.6569
10964TIP3   OH254306   5.651   5.119   3.400  0.7023  0.2330  0.3239
10964TIP3    H154307   5.562   5.085   3.393  0.0770  1.7533  0.5258
10964TIP3    H254308   5.668   5.123   3.494  1.2656 -0.6874  0.2779
10965TIP3   OH254309   0.986   4.678   4.780 -0.1034  0.5585  0.0314
10965TIP3    H154310   0.948   4.591   4.794 -1.2890  0.9936 -0.3549
10965TIP3    H254311   0.926   4.720   4.718  1.7787  0.7631 -1.7812
10966TIP3   OH254312   1.113   3.563   4.716  0.2331  0.1391  0.4872
10966TIP3    H154313   1.107   3.490   4.655  0.3302 -1.5736  2.4331
10966TIP3    H254314   1.033   3.558   4.767 -0.4618  2.3462 -0.2654
10967TIP3   OH254315   2.861   2.087  16.103  0.1233 -0.5534 -0.2029
10967TIP3    H154316   2.889   2.032  16.029  0.2862 -0.3611 -0.2847
10967TIP3    H254317   2.884   2.035  16.181 -0.6804 -1.0638 -0.2915
10968TIP3   OH254318   3.324   6.567  12.021 -0.0309 -0.7089  0.0184
10968TIP3    H154319   3.251   6.583  11.962  1.5668  0.2434 -1.7811
10968TIP3    H254320   3.401   6.565  11.965  1.4715 -0.6983  1.9733
10969TIP3   OH254321   0.641   6.557   2.435  0.4493 -0.1846 -0.3346
10969TIP3    H154322   0.634   6.651   2.423  0.4120 -0.2002 -0.4290
10969TIP3    H254323   0.735   6.539   2.427  0.8400  0.2069  2.2124
10970TIP3   OH254324   6.075   3.928   0.869  0.4263 -0.1580  0.4879
10970TIP3    H154325   6.023   4.008   0.882 -0.0328  0.2655 -2.9753
10970TIP3    H254326   6.041   3.867   0.933  0.5148  2.2204  3.0177
10971TIP3   OH254327   0.853   3.885   1.831 -0.2629 -0.8098 -0.3623
10971TIP3    H154328   0.876   3.948   1.763 -1.3021 -1.6291 -1.5111
10971TIP3    H254329   0.767   3.913   1.862 -0.2801 -1.0767 -0.1651
10972TIP3   OH254330   6.234   6.644   4.591 -0.1745  0.2516  0.5160
10972TIP3    H154331   6.182   6.641   4.510  0.0164 -0.4610  0.4100
10972TIP3    H254332   6.256   6.736   4.602 -0.6085  0.4223  0.0145
10973TIP3   OH254333   1.723   4.037   6.322 -0.7211 -0.6169 -0.0319
10973TIP3    H154334   1.728   3.942   6.314 -0.3947 -0.6371  0.3660
10973TIP3    H254335   1.784   4.058   6.393 -0.5917 -0.0846 -0.2981
10974TIP3   OH254336   0.837   1.161   6.352 -0.1567 -0.2928 -0.5902
10974TIP3    H154337   0.860   1.100   6.282  1.7267  0.6268 -0.8485
10974TIP3    H254338   0.900   1.233   6.343 -0.3607  0.2433  1.5572
10975TIP3   OH254339   0.599   0.346   1.088 -0.0252 -0.3298  0.0552
10975TIP3    H154340   0.609   0.406   1.161  1.6806 -1.2581  0.6454
10975TIP3    H254341   0.574   0.263   1.129 -1.4447 -0.2894 -0.6615
10976TIP3   OH254342   3.868   4.818  14.021 -0.0736  0.3913  0.2591
10976TIP3    H154343   3.824   4.734  14.033  0.9146 -0.1598  0.1500
10976TIP3    H254344   3.800   4.884  14.038 -1.0387 -0.4223 -0.3231
10977TIP3   OH254345   4.904   4.621   5.470 -0.0336  0.0524 -0.2300
10977TIP3    H154346   4.815   4.642   5.441 -0.0003  0.1512 -0.2601
10977TIP3    H254347   4.892   4.556   5.539 -0.0647 -1.1346 -1.3099
10978TIP3   OH254348   2.056   5.347  15.183 -0.3832  0.4673  0.1593
10978TIP3    H154349   1.966   5.323  15.158  0.2222 -0.9751 -0.7385
10978TIP3    H254350   2.048   5.379  15.272 -2.3040  3.5442 -0.9373
10979TIP3   OH254351   0.775   6.382   0.989  0.6898  0.1235 -0.2644
10979TIP3    H154352   0.748   6.471   0.967 -1.1323 -0.7417 -1.8481
10979TIP3    H254353   0.730   6.363   1.071 -0.0712  0.1991 -0.6528
10980TIP3   OH254354   5.468   4.399   0.529  0.2723 -0.0770  0.8413
10980TIP3    H154355   5.476   4.304   0.539  0.1353 -0.4399 -1.7920
10980TIP3    H254356   5.462   4.432   0.619  0.0841 -2.5557  1.8266
10981TIP3   OH254357   6.482   0.673  16.876  0.0416 -0.3535  0.6767
10981TIP3    H154358   6.574   0.697  16.880  0.2881 -1.0693 -0.3349
10981TIP3    H254359   6.468   0.619  16.954  0.5459 -0.4568  0.6971
10982TIP3   OH254360   3.677   3.401  13.291  0.0411  0.0687  0.3602
10982TIP3    H154361   3.748   3.398  13.226 -0.3976  0.1580 -0.1356
10982TIP3    H254362   3.682   3.317  13.336 -1.1055 -1.0067 -1.3973
10983TIP3   OH254363   1.816   5.489  14.194  0.6390 -0.0708 -0.0234
10983TIP3    H154364   1.832   5.397  14.173 -0.2000  0.0150 -1.1328
10983TIP3    H254365   1.764   5.486  14.274  0.7439 -0.5530  0.0314
10984TIP3   OH254366   0.500   6.084  16.403 -0.0313  0.4219  0.6587
10984TIP3    H154367   0.485   6.143  16.329  0.8487 -1.1695 -0.8936
10984TIP3    H254368   0.568   6.024  16.371 -0.2401 -0.8583  2.4757
10985TIP3   OH254369   5.313   0.565  14.702  0.1236 -0.1661  0.4657
10985TIP3    H154370   5.393   0.588  14.653 -1.0778 -1.4266 -2.2679
10985TIP3    H254371   5.346   0.529  14.784  2.3501  0.1295 -0.2091
10986TIP3   OH254372   5.966   5.987  13.004  0.0603 -0.0244  0.2535
10986TIP3    H154373   5.966   6.074  13.044  0.7706 -1.1023  2.7545
10986TIP3    H254374   5.912   5.934  13.062  1.9324 -1.9079  0.3879
10987TIP3   OH254375   6.550   3.523   4.593  1.1716  0.5108  0.6300
10987TIP3    H154376   6.566   3.431   4.613  1.6911  0.5393  0.3788
10987TIP3    H254377   6.455   3.533   4.598  1.0606 -0.1681  0.1209
10988TIP3   OH254378   4.603   1.353   5.804  0.0981  0.4149  0.1378
10988TIP3    H154379   4.640   1.348   5.716  1.3483  1.6660  0.5437
10988TIP3    H254380   4.619   1.444   5.830 -1.3376  0.3912  1.2043
10989TIP3   OH254381   6.131   6.212  11.165  0.3309  0.1342  0.1572
10989TIP3    H154382   6.109   6.303  11.147  0.9306  0.3436  0.4370
10989TIP3    H254383   6.167   6.178  11.083 -1.7805 -0.4759 -0.5809
10990TIP3   OH254384   3.842   5.328   5.763 -0.1995 -0.0912 -0.1860
10990TIP3    H154385   3.751   5.303   5.776  0.1098 -0.6988  0.9699
10990TIP3    H254386   3.838   5.412   5.718 -1.3464  0.6185  1.1772
10991TIP3   OH254387   6.716   0.679   5.721 -0.1741 -0.1164  0.2457
10991TIP3    H154388   6.729   0.653   5.630  1.3918  0.3197  0.3325
10991TIP3    H254389   6.632   0.639   5.745  0.4617 -2.1600 -0.7024
10992TIP3   OH254390   0.947   0.437   4.693  0.0129  0.4513  0.0990
10992TIP3    H154391   0.983   0.354   4.722  1.0849  0.8319 -0.1089
10992TIP3    H254392   1.023   0.490   4.668 -0.7551  0.6371 -2.0906
10993TIP3   OH254393   5.548   4.975   4.779  0.3865 -0.3618 -0.0173
10993TIP3    H154394   5.573   4.993   4.869  0.8027  1.9156 -0.5325
10993TIP3    H254395   5.499   5.053   4.751 -0.1218 -1.2060 -1.6309
10994TIP3   OH254396   6.021   0.369   1.829  0.0853 -0.1031 -0.3920
10994TIP3    H154397   6.069   0.439   1.873  0.0450 -0.0196 -0.4815
10994TIP3    H254398   6.089   0.316   1.788  0.0618  0.4779 -1.2129
10995TIP3   OH254399   2.503   2.413  14.135  0.4475  0.0110 -0.7892
10995TIP3    H154400   2.476   2.464  14.059 -0.8009  2.1321  0.9293
10995TIP3    H254401   2.547   2.477  14.192  1.3643 -1.4968  0.2546
10996TIP3   OH254402   0.183   5.101   1.109  0.5079 -0.1823 -0.2642
10996TIP3    H154403   0.165   5.011   1.138 -1.0364  0.3234  0.4446
10996TIP3    H254404   0.109   5.124   1.054  0.4413  0.9563  0.2735
10997TIP3   OH254405   5.172   5.022  10.679  0.0007 -0.1125 -0.0576
10997TIP3    H154406   5.143   4.936  10.649 -1.3984  0.1046  0.6264
10997TIP3    H254407   5.232   5.003  10.751  0.7713 -0.5321 -0.7892
10998TIP3   OH254408   0.529   6.652   3.227  0.0888  0.8064  0.3604
10998TIP3    H154409   0.473   6.704   3.285  0.3964  0.9656  0.5186
10998TIP3    H254410   0.579   6.597   3.287  0.7884  1.3453  0.2853
10999TIP3   OH254411   1.593   1.398   3.145 -0.4630 -0.0106  0.3749
10999TIP3    H154412   1.544   1.468   3.103  1.4153  0.3921 -1.3091
10999TIP3    H254413   1.541   1.319   3.129 -0.5355  0.3777 -1.4615
11000TIP3   OH254414   3.944   5.359   5.397  0.1243  0.3290 -0.3139
11000TIP3    H154415   3.852   5.383   5.404 -0.3284 -0.6512 -2.1433
11000TIP3    H254416   3.990   5.443   5.389 -0.7341  0.7886 -0.5764
11001TIP3   OH254417   2.307   0.916  12.860  0.0212  0.6785  0.1487
11001TIP3    H154418   2.274   0.977  12.927  0.0690  0.0083  0.7981
11001TIP3    H254419   2.323   0.835  12.908  1.4919  0.6216 -0.3819
11002TIP3   OH254420   2.933   5.687   4.810 -0.0170 -0.1681 -0.1625
11002TIP3    H154421   2.967   5.761   4.860  0.6791 -0.9412  0.5379
11002TIP3    H254422   2.847   5.669   4.848 -0.3460  0.4968 -0.5753
11003TIP3   OH254423   5.209   3.465   6.410 -0.7342  0.1094  0.2531
11003TIP3    H154424   5.208   3.545   6.359 -0.9367 -0.7495 -1.1333
11003TIP3    H254425   5.118   3.436   6.413 -0.6772 -0.0290  0.8171
11004TIP3   OH254426   4.838   2.592  14.252  0.3294 -0.3083  0.1852
11004TIP3    H154427   4.905   2.586  14.321  0.4278 -0.2996  0.0916
11004TIP3    H254428   4.883   2.563  14.173  0.5947  0.9319 -0.1400
11005TIP3   OH254429   1.633   1.703  15.104  0.1047  0.1384  0.1360
11005TIP3    H154430   1.666   1.740  15.186  0.5533  0.8666 -0.3635
11005TIP3    H254431   1.684   1.623  15.092 -1.1607 -0.9476  1.4387
11006TIP3   OH254432   1.041   3.843   4.875  0.1142 -0.0491 -0.3427
11006TIP3    H154433   1.041   3.761   4.924  2.8484  0.7861  1.2809
11006TIP3    H254434   1.068   3.817   4.787 -0.2868 -1.0176 -0.2027
11007TIP3   OH254435   5.655   0.309   3.697  0.8958  0.7357  0.2376
11007TIP3    H154436   5.707   0.381   3.732  0.9694  1.3231 -1.0029
11007TIP3    H254437   5.705   0.279   3.620 -1.3333  2.4749 -2.0679
11008TIP3   OH254438   2.015   1.994  13.877 -0.1838  0.4197 -0.1708
11008TIP3    H154439   2.038   1.973  13.786 -0.3508  0.2637 -0.1759
11008TIP3    H254440   1.986   1.911  13.914  0.3007  0.3866  0.1524
11009TIP3   OH254441   4.012   2.849   3.216  0.0746 -0.5244 -0.5967
11009TIP3    H154442   4.042   2.896   3.138  1.0213 -0.5199 -0.2419
11009TIP3    H254443   3.984   2.918   3.276 -1.6535 -0.5537 -1.2854
11010TIP3   OH254444   0.192   3.351  14.995 -0.3079  0.0498 -0.4230
11010TIP3    H154445   0.176   3.397  15.078 -1.3152 -2.4916  0.9225
11010TIP3    H254446   0.239   3.414  14.941 -0.2652  2.0763  1.8024
11011TIP3   OH254447   3.944   0.776  12.781 -0.1887 -0.4168  0.1422
11011TIP3    H154448   4.024   0.805  12.736  0.9489 -0.9139  1.7620
11011TIP3    H254449   3.916   0.698  12.733 -0.1552  0.1897 -0.9016
11012TIP3   OH254450   1.982   4.155   5.048 -0.3468  0.2819  0.2705
11012TIP3    H154451   1.972   4.139   4.954 -0.2351 -0.9828  0.4480
11012TIP3    H254452   1.905   4.206   5.072 -0.6157  0.2138 -0.4250
11013TIP3   OH254453   0.289   3.636  10.560  0.0128  0.0062 -0.2497
11013TIP3    H154454   0.301   3.692  10.637 -1.5067  1.0562 -0.7250
11013TIP3    H254455   0.213   3.582  10.582 -0.9594  0.8971 -1.2935
11014TIP3   OH254456   1.922   4.947   4.870  0.4515 -0.3710 -0.2737
11014TIP3    H154457   1.916   4.983   4.958 -1.2680 -1.3459  0.0519
11014TIP3    H254458   1.856   4.995   4.820  1.4886  0.2567 -1.1002
11015TIP3   OH254459   5.364   5.328  13.064  0.6063  0.8818 -0.4647
11015TIP3    H154460   5.440   5.302  13.012  0.9156 -0.3379  0.5700
11015TIP3    H254461   5.300   5.259  13.049 -0.0675  1.5558 -0.7859
11016TIP3   OH254462   3.365   6.287  17.013 -0.0926  0.1075 -0.1854
11016TIP3    H154463   3.452   6.277  17.053 -0.0258 -2.7615 -0.8005
11016TIP3    H254464   3.341   6.378  17.030  2.5549  0.6977  0.9522
11017TIP3   OH254465   4.464   0.756   5.271  0.0515 -0.1938 -0.0468
11017TIP3    H154466   4.438   0.712   5.352 -2.3308  0.0263 -0.6307
11017TIP3    H254467   4.526   0.823   5.299  0.0062 -0.7461  1.4621
11018TIP3   OH254468   2.612   0.171   5.548 -0.2068 -0.0104  0.2026
11018TIP3    H154469   2.637   0.089   5.506 -0.7488  0.4806 -1.1334
11018TIP3    H254470   2.675   0.235   5.517 -0.4907  0.3245  0.3068
11019TIP3   OH254471   4.960   2.879   5.030  0.8405 -0.5332 -0.0775
11019TIP3    H154472   5.017   2.842   4.963  2.4119  0.1772  0.8120
11019TIP3    H254473   4.882   2.823   5.028  2.0598 -2.3324 -0.4984
11020TIP3   OH254474   4.613   6.526  13.702  0.1027 -0.3513  0.0469
11020TIP3    H154475   4.709   6.532  13.705  0.0480  0.3210  2.1672
11020TIP3    H254476   4.586   6.604  13.654  0.6066 -0.2723 -0.1197
11021TIP3   OH254477   3.145   6.369  15.046 -0.3358 -0.3254  0.4275
11021TIP3    H154478   3.100   6.416  15.116 -0.4351 -0.9250  0.7718
11021TIP3    H254479   3.227   6.339  15.085 -0.9545 -1.7528  0.6777
11022TIP3   OH254480   4.158   4.227  12.270  0.2020  0.3384 -0.0343
11022TIP3    H154481   4.202   4.145  12.292 -0.0152  0.4560  0.8870
11022TIP3    H254482   4.146   4.223  12.175  2.6133  0.5237 -0.4095
11023TIP3   OH254483   3.123   3.053  15.679 -0.8388  0.4065  0.7964
11023TIP3    H154484   3.113   3.066  15.773 -0.5822 -1.2396  1.0888
11023TIP3    H254485   3.198   3.108  15.654  1.2396 -1.5936  2.2179
11024TIP3   OH254486   3.719   3.914  15.533  0.5470  0.0509 -0.0022
11024TIP3    H154487   3.735   3.820  15.544  0.3096  0.0960  0.7875
11024TIP3    H254488   3.744   3.932  15.442  1.0115 -0.6905 -0.0327
11025TIP3   OH254489   3.961   3.832  16.905  0.2998  0.2178  0.1751
11025TIP3    H154490   4.035   3.831  16.845  1.1511  2.1920  1.0873
11025TIP3    H254491   3.902   3.899  16.870 -1.2577 -1.5174 -0.6928
11026TIP3   OH254492   1.753   4.684  12.482  0.3870 -0.0089  0.2057
11026TIP3    H154493   1.828   4.625  12.469  1.5327  1.0191  1.8420
11026TIP3    H254494   1.781   4.745  12.550 -1.7176  0.8337  0.4024
11027TIP3   OH254495   0.730   4.542   5.797  0.2248  0.4279 -0.1653
11027TIP3    H154496   0.810   4.491   5.789  0.1855  0.0666  1.3942
11027TIP3    H254497   0.682   4.500   5.869 -0.8431  1.3070 -0.3435
11028TIP3   OH254498   3.656   6.537  12.188  0.6064 -0.9101 -0.2943
11028TIP3    H154499   3.608   6.519  12.107 -1.2122  0.6539  0.3503
11028TIP3    H254500   3.698   6.621  12.172 -0.6236 -0.0708  0.6942
11029TIP3   OH254501   1.412   5.378  13.608 -0.8095 -0.8197  0.0797
11029TIP3    H154502   1.356   5.431  13.551 -0.1414 -1.3650 -1.1138
11029TIP3    H254503   1.473   5.441  13.646 -2.3967 -0.1603  1.6708
11030TIP3   OH254504   2.872   1.011   4.456 -0.1445 -0.1113 -0.1527
11030TIP3    H154505   2.785   0.997   4.419  0.4651 -1.7543 -1.0898
11030TIP3    H254506   2.858   1.073   4.527 -1.8689  0.6744 -1.1036
11031TIP3   OH254507   0.185   3.461   1.750  0.0208 -0.8950  0.1501
11031TIP3    H154508   0.138   3.409   1.814 -0.8212  0.5973  0.7856
11031TIP3    H254509   0.204   3.543   1.795 -0.8645  0.3111 -1.5853
11032TIP3   OH254510   5.834   0.729   2.433 -0.0520  0.0992  0.0948
11032TIP3    H154511   5.821   0.823   2.445 -1.9983  0.1527 -1.9169
11032TIP3    H254512   5.767   0.687   2.487  0.8483 -0.1745  1.0360
11033TIP3   OH254513   2.618   5.229   1.822 -0.9698  0.1769 -0.0126
11033TIP3    H154514   2.569   5.198   1.898  0.3270 -0.0083  0.7776
11033TIP3    H254515   2.709   5.230   1.851 -0.4756  0.3566 -1.4828
11034TIP3   OH254516   4.407   6.139  14.661 -0.4565 -0.1864 -0.0243
11034TIP3    H154517   4.456   6.219  14.641 -0.6365  0.1101  0.7093
11034TIP3    H254518   4.407   6.091  14.578  0.9794 -0.1425 -0.0798
11035TIP3   OH254519   0.597   1.322  13.911  0.1365  0.1198 -0.8352
11035TIP3    H154520   0.575   1.236  13.945  2.7055 -0.6122 -0.8061
11035TIP3    H254521   0.620   1.307  13.819  1.3257  0.6101 -0.6374
11036TIP3   OH254522   4.699   5.630   1.573  0.5500  0.4427 -0.2087
11036TIP3    H154523   4.777   5.576   1.584  0.1273  0.0753  1.2193
11036TIP3    H254524   4.642   5.580   1.514  1.0423  0.3250 -0.5847
11037TIP3   OH254525   0.634   2.451   1.224  0.2408 -0.0013 -0.1930
11037TIP3    H154526   0.639   2.458   1.320  0.9229 -0.3793 -0.1951
11037TIP3    H254527   0.700   2.385   1.201 -0.0780 -0.0796 -0.9058
11038TIP3   OH254528   6.172   5.052  17.002  0.1683  0.3550 -0.2275
11038TIP3    H154529   6.231   5.063  16.928 -0.3573 -1.5692 -1.0088
11038TIP3    H254530   6.132   5.138  17.014  0.8519  0.9049 -1.6781
11039TIP3   OH254531   3.126   3.294   2.424 -0.0587  0.5085 -0.1434
11039TIP3    H154532   3.201   3.322   2.477  0.8123  0.8519 -1.5117
11039TIP3    H254533   3.129   3.350   2.347 -0.9782 -0.3375 -0.8204
11040TIP3   OH254534   1.307   3.156  16.689 -0.2081 -0.0057 -0.7093
11040TIP3    H154535   1.273   3.131  16.604 -0.6167  1.8532 -1.1219
11040TIP3    H254536   1.334   3.247  16.679  3.6269 -0.8641 -0.0271
11041TIP3   OH254537   4.808   6.714  14.030 -0.2658  0.4243 -0.6109
11041TIP3    H154538   4.903   6.721  14.019 -0.0103 -0.4299  0.7259
11041TIP3    H254539   4.784   6.638  13.977  0.2903 -1.1194  1.2344
11042TIP3   OH254540   3.180   1.903  11.911 -0.2649 -0.0359 -0.2088
11042TIP3    H154541   3.099   1.932  11.952  0.1459  1.1018 -0.1466
11042TIP3    H254542   3.225   1.853  11.979 -0.3607  0.3866  0.1720
11043TIP3   OH254543   1.661   6.607  15.035  0.7010  0.5732  0.5226
11043TIP3    H154544   1.721   6.532  15.030  0.5762  0.4293  1.0801
11043TIP3    H254545   1.644   6.630  14.944  0.7337 -0.0867  0.3418
11044TIP3   OH254546   2.341   0.731   5.096 -0.1310  0.4692  0.2587
11044TIP3    H154547   2.343   0.826   5.089  0.1950  0.5791  1.4783
11044TIP3    H254548   2.403   0.700   5.031 -0.5581  1.0633 -0.4392
11045TIP3   OH254549   1.043   2.430  10.953 -0.1779 -0.0661  0.1277
11045TIP3    H154550   1.063   2.521  10.930 -2.5055  0.7743  1.1706
11045TIP3    H254551   0.949   2.428  10.966 -0.3232 -2.8761 -0.7070
11046TIP3   OH254552   4.112   5.418   5.680  0.2962  0.2304  0.2693
11046TIP3    H154553   4.023   5.423   5.715 -0.0872  1.7170 -0.8221
11046TIP3    H254554   4.108   5.467   5.598  2.3444  1.1798  0.6823
11047TIP3   OH254555   3.939   4.580   0.319  0.2391 -0.2745 -0.4579
11047TIP3    H154556   4.020   4.606   0.275  0.9525 -0.2663  0.7974
11047TIP3    H254557   3.968   4.535   0.398 -0.9916 -2.3862 -1.1375
11048TIP3   OH254558   1.008   1.826  11.628  0.5468 -0.1911 -0.2172
11048TIP3    H154559   0.942   1.882  11.669 -1.2814 -1.0426 -1.8332
11048TIP3    H254560   1.088   1.844  11.677 -0.3894  2.4067  0.5230
11049TIP3   OH254561   0.219   3.332   2.491  0.4349 -0.5750 -0.0729
11049TIP3    H154562   0.286   3.339   2.423  0.5932 -0.2856  0.1106
11049TIP3    H254563   0.239   3.402   2.552  1.5911 -2.1518  1.4390
11050TIP3   OH254564   3.167   0.831  16.455 -0.5158 -0.1763  0.0322
11050TIP3    H154565   3.125   0.774  16.519 -0.4244  1.3458  1.5094
11050TIP3    H254566   3.256   0.844  16.489  0.0755 -0.6355 -1.2744
11051TIP3   OH254567   3.756   2.503  15.908  0.2955  0.2420 -0.2238
11051TIP3    H154568   3.810   2.575  15.942  1.0201  0.4561 -1.7194
11051TIP3    H254569   3.704   2.543  15.838 -0.7359 -0.2897  0.2214
11052TIP3   OH254570   2.084   1.731  13.297 -0.4221  0.1004  0.0989
11052TIP3    H154571   2.024   1.691  13.234  0.1097  1.5792 -1.4368
11052TIP3    H254572   2.027   1.758  13.369 -1.0198 -1.8105  0.4050
11053TIP3   OH254573   4.710   1.405   1.755  0.9375  0.4830 -0.1302
11053TIP3    H154574   4.741   1.319   1.785  1.9352 -0.1687 -2.6665
11053TIP3    H254575   4.790   1.449   1.724  0.1186  1.2474 -1.2449
11054TIP3   OH254576   4.222   0.162   5.070  0.1799  0.1067  0.9828
11054TIP3    H154577   4.248   0.079   5.112 -0.7855 -1.0720 -0.6537
11054TIP3    H254578   4.301   0.193   5.027  0.3927 -0.2850  1.0890
11055TIP3   OH254579   4.812   6.149   1.135 -0.3417  0.3886 -0.0069
11055TIP3    H154580   4.717   6.158   1.137 -0.2707  1.0283  0.8035
11055TIP3    H254581   4.833   6.090   1.207 -0.2651 -1.4175 -1.4233
11056TIP3   OH254582   5.781   4.339  16.566 -0.1019  0.1508  0.0113
11056TIP3    H154583   5.794   4.430  16.595  0.4081 -0.5192  2.0118
11056TIP3    H254584   5.741   4.295  16.641  1.2358 -1.6646 -0.2790
11057TIP3   OH254585   5.208   4.375   2.599  0.3878 -0.6341 -0.2150
11057TIP3    H154586   5.228   4.396   2.690 -1.5366  0.5844 -0.0092
11057TIP3    H254587   5.286   4.404   2.550  1.3004 -1.0013  0.9895
11058TIP3   OH254588   0.284   5.219   4.326 -0.4220 -0.3108  0.1081
11058TIP3    H154589   0.245   5.198   4.241 -0.4012 -2.2425  0.5271
11058TIP3    H254590   0.249   5.306   4.348 -2.2462 -0.7632 -0.8385
11059TIP3   OH254591   0.204   1.897  11.501  0.0156  0.2533  0.2176
11059TIP3    H154592   0.132   1.840  11.475  0.8671 -0.2825 -1.0497
11059TIP3    H254593   0.244   1.853  11.575 -0.4537  0.1403  0.4074
11060TIP3   OH254594   2.576   3.599  14.320  0.4888 -0.0850 -0.6104
11060TIP3    H154595   2.522   3.529  14.284  0.2990  0.2346 -0.9571
11060TIP3    H254596   2.648   3.554  14.365  1.2315 -0.4925 -2.1362
11061TIP3   OH254597   2.498   4.671  14.725  0.5454  0.0215  0.3465
11061TIP3    H154598   2.425   4.729  14.701 -1.4512 -2.6295 -0.5702
11061TIP3    H254599   2.471   4.632  14.808  0.2692 -1.8669 -0.5764
11062TIP3   OH254600   3.782   4.084  17.088  0.2141  0.2524 -0.3290
11062TIP3    H154601   3.752   4.174  17.074  0.0300  0.3596  0.6894
11062TIP3    H254602   3.781   4.045  17.001 -1.9357  0.5364 -0.4885
11063TIP3   OH254603   2.080   2.854   4.685 -0.4404 -0.3646 -0.1427
11063TIP3    H154604   2.166   2.893   4.704 -0.2674 -0.1323 -1.3377
11063TIP3    H254605   2.097   2.794   4.612 -1.4188  0.2564 -0.9069
11064TIP3   OH254606   5.168   5.392  12.327 -0.0843 -0.1960 -0.2453
11064TIP3    H154607   5.135   5.304  12.341 -2.4560  0.4893 -1.0174
11064TIP3    H254608   5.222   5.385  12.248  0.1018 -1.0133 -0.0532
11065TIP3   OH254609   3.321   5.855  14.127 -0.3581  0.0994 -0.0566
11065TIP3    H154610   3.279   5.920  14.183  0.1280  0.0520  0.3693
11065TIP3    H254611   3.363   5.906  14.057  1.3902  0.4190  1.1429
11066TIP3   OH254612   5.275   3.697   5.907 -0.0213  0.1223  0.4135
11066TIP3    H154613   5.346   3.653   5.954  0.1539 -0.0975 -0.0581
11066TIP3    H254614   5.196   3.659   5.943  0.0929  0.4155  0.9899
11067TIP3   OH254615   2.105   2.888   2.432  0.6635  0.1056 -0.0985
11067TIP3    H154616   2.055   2.829   2.487 -0.3023  0.0691 -0.9821
11067TIP3    H254617   2.185   2.840   2.410  0.1165 -0.6682 -0.4021
11068TIP3   OH254618   0.057   1.222   5.213  0.3646  0.2728 -0.0089
11068TIP3    H154619   0.071   1.242   5.121  0.5883  1.4552  0.2665
11068TIP3    H254620  -0.035   1.244   5.229  0.2405 -0.2194 -0.0099
11069TIP3   OH254621   3.593   3.123  13.237 -0.1539  0.1688 -0.0657
11069TIP3    H154622   3.514   3.073  13.257  0.9940 -0.7171  2.7235
11069TIP3    H254623   3.562   3.199  13.188 -2.3545 -1.4979 -1.4777
11070TIP3   OH254624   0.647   0.292  16.877  0.1749  0.3063 -0.2871
11070TIP3    H154625   0.585   0.361  16.855 -0.1937 -0.0352 -0.3260
11070TIP3    H254626   0.722   0.309  16.820  0.0615  0.6370 -0.3420
11071TIP3   OH254627   3.454   0.307  12.613  0.2301  0.9137  0.0273
11071TIP3    H154628   3.404   0.377  12.656 -1.3880  0.6288 -1.3059
11071TIP3    H254629   3.412   0.226  12.644  1.0183  0.5884  0.2569
11072TIP3   OH254630   6.059   2.245   3.668 -0.1368 -0.6030  0.1049
11072TIP3    H154631   6.047   2.225   3.575  0.8827 -0.7840 -0.0015
11072TIP3    H254632   6.115   2.322   3.668 -0.1510 -0.5905  0.5747
11073TIP3   OH254633   2.786   0.465   2.929 -0.4153  0.3866 -0.0654
11073TIP3    H154634   2.825   0.536   2.980 -0.1871 -0.4384  0.9275
11073TIP3    H254635   2.693   0.486   2.926 -0.2207  1.2478 -0.6431
11074TIP3   OH254636   2.769   3.532   1.910 -0.5732 -0.6196 -0.1699
11074TIP3    H154637   2.830   3.605   1.897  0.0878 -1.1005  0.1647
11074TIP3    H254638   2.800   3.489   1.989 -1.9486 -0.2990  0.5686
11075TIP3   OH254639   2.901   1.925  12.447  0.0627  0.1609 -0.2726
11075TIP3    H154640   2.834   1.872  12.406  1.1643 -1.2886 -0.2774
11075TIP3    H254641   2.929   1.986  12.378 -1.3446  0.9394 -0.2031
11076TIP3   OH254642   5.568   5.983  17.399 -0.0339 -0.0292 -0.0551
11076TIP3    H154643   5.475   5.962  17.406  0.1030 -0.3695  0.9467
11076TIP3    H254644   5.579   6.062  17.451 -0.1828  1.4507 -2.1759
11077TIP3   OH254645   3.545   6.556  11.324 -0.2887  0.4361 -0.3930
11077TIP3    H154646   3.531   6.463  11.306 -0.5935  0.0017  1.8341
11077TIP3    H254647   3.462   6.598  11.299 -0.5948 -0.0707 -0.2369
11078TIP3   OH254648   1.453   2.703  13.426  0.0403  0.1887 -0.0328
11078TIP3    H154649   1.402   2.783  13.438 -1.2626 -0.5899 -0.1462
11078TIP3    H254650   1.396   2.646  13.374  1.5588 -0.2513 -1.3023
11079TIP3   OH254651   0.394   0.097  13.908 -0.0782  0.0160  0.6023
11079TIP3    H154652   0.437   0.027  13.860  0.6458 -0.3784  1.7964
11079TIP3    H254653   0.347   0.053  13.979  0.5023  0.7182  1.4548
11080TIP3   OH254654   2.552   4.020   5.559 -0.1906  0.4022  0.6390
11080TIP3    H154655   2.544   3.993   5.467  0.1120 -2.0334  1.2596
11080TIP3    H254656   2.621   4.086   5.558  0.6204 -0.4053 -0.7718
11081TIP3   OH254657   3.065   4.408  14.932  0.4858 -0.2202 -0.1210
11081TIP3    H154658   3.060   4.458  15.014  1.4357  0.5873 -0.5366
11081TIP3    H254659   3.046   4.472  14.864  1.1117 -0.5614 -0.6235
11082TIP3   OH254660   0.622   3.178   4.202  0.1182 -0.0706  0.5737
11082TIP3    H154661   0.636   3.233   4.125  1.0126  0.4705  1.1136
11082TIP3    H254662   0.561   3.111   4.172 -0.3795  0.7501 -0.3122
11083TIP3   OH254663   5.713   1.674   5.169 -0.4508  0.6155 -0.0734
11083TIP3    H154664   5.792   1.687   5.116  0.0372  0.5604  0.6306
11083TIP3    H254665   5.690   1.582   5.154  1.3249 -0.2559  1.9514
11084TIP3   OH254666   5.370   2.508   2.905 -0.6067  0.2205  0.0050
11084TIP3    H154667   5.417   2.542   2.981  0.9198 -0.9676 -0.3628
11084TIP3    H254668   5.283   2.486   2.938 -0.0540 -0.0065  1.3530
11085TIP3   OH254669   4.887   4.347   3.926  0.0531 -0.0459 -0.0672
11085TIP3    H154670   4.879   4.436   3.893  0.2555 -0.8853 -2.5512
11085TIP3    H254671   4.798   4.321   3.948 -0.2312  0.2500 -0.8351
11086TIP3   OH254672   5.109   5.628  14.678 -0.1232  0.2960  0.3764
11086TIP3    H154673   5.017   5.603  14.680 -0.0186 -0.0431  1.5886
11086TIP3    H254674   5.156   5.551  14.710  0.8970 -0.6584 -2.9876
11087TIP3   OH254675   2.848   6.609   3.928  0.1763  0.6054 -0.3434
11087TIP3    H154676   2.811   6.532   3.972  2.3993 -0.6532 -0.5145
11087TIP3    H254677   2.827   6.597   3.836 -1.4653  1.4411 -0.1103
11088TIP3   OH254678   1.931   2.248  13.176  0.1077  0.1322  0.6956
11088TIP3    H154679   2.023   2.225  13.190 -0.3173 -0.5935  2.5648
11088TIP3    H254680   1.900   2.182  13.114  0.9073  0.5899 -0.2204
11089TIP3   OH254681   5.231   2.767   2.139 -0.6228  0.2303  0.6916
11089TIP3    H154682   5.215   2.725   2.223  1.3618 -1.5665  0.2416
11089TIP3    H254683   5.257   2.696   2.081  0.0264  1.7046 -0.9106
11090TIP3   OH254684   3.827   3.467   4.251  0.0258 -0.3097  0.8183
11090TIP3    H154685   3.773   3.543   4.230  1.4380  0.5818  0.2760
11090TIP3    H254686   3.793   3.398   4.194 -1.1277 -0.0440  1.1534
11091TIP3   OH254687   0.618   2.623   1.011 -0.4558 -0.2591  0.0803
11091TIP3    H154688   0.646   2.561   1.079  0.3173 -0.1495 -0.1335
11091TIP3    H254689   0.554   2.680   1.055  0.0330 -0.1960  0.7190
11092TIP3   OH254690   2.326   4.206   3.986  0.4460 -0.2183 -0.2617
11092TIP3    H154691   2.371   4.245   4.062  0.2035  2.1072 -1.2094
11092TIP3    H254692   2.368   4.246   3.910  0.8946 -2.7399 -1.4233
11093TIP3   OH254693   1.963   0.265  11.781  0.5614 -0.2421 -0.1655
11093TIP3    H154694   1.986   0.281  11.690 -0.2557  2.5984  0.0300
11093TIP3    H254695   2.045   0.238  11.823  1.2983  0.0030 -1.4132
11094TIP3   OH254696   3.893   1.805   1.917  0.2134  0.1747 -0.4077
11094TIP3    H154697   3.805   1.835   1.939  0.2806  0.5266 -0.6145
11094TIP3    H254698   3.906   1.831   1.826  0.3098 -0.4044 -0.5668
11095TIP3   OH254699   6.531   0.360  11.464 -0.2315  0.9121  0.0025
11095TIP3    H154700   6.436   0.367  11.474 -0.3357 -1.8721  2.0821
11095TIP3    H254701   6.543   0.292  11.397  0.1288 -1.3274  2.1980
11096TIP3   OH254702   0.367   6.178  13.252 -0.0678 -0.3391  0.7095
11096TIP3    H154703   0.371   6.124  13.173  1.8579 -0.5408  0.9161
11096TIP3    H254704   0.458   6.200  13.271 -0.5546  0.2530  2.5097
11097TIP3   OH254705   3.396   0.454  15.969  0.2329 -0.2847 -0.2636
11097TIP3    H154706   3.303   0.480  15.967  0.2831  0.1829  1.5429
11097TIP3    H254707   3.412   0.415  15.883 -1.7828 -0.8888 -0.4125
11098TIP3   OH254708   1.200   5.671   0.982  0.3587 -0.2827  0.5368
11098TIP3    H154709   1.265   5.711   1.040 -0.5821  0.1473  1.3170
11098TIP3    H254710   1.138   5.627   1.041 -0.4970 -0.0258 -0.1500
11099TIP3   OH254711   6.431   0.354  14.565 -0.8660  0.5979 -0.2129
11099TIP3    H154712   6.433   0.408  14.643 -2.2444  1.7990 -0.9722
11099TIP3    H254713   6.487   0.401  14.502 -0.7164  0.2548 -0.3415
11100TIP3   OH254714   3.339   0.992   1.622  0.0566  0.1346 -0.2480
11100TIP3    H154715   3.342   1.016   1.529  0.9158 -0.6237 -0.4244
11100TIP3    H254716   3.270   0.926   1.628 -0.9708  1.1754 -0.0865
11101TIP3   OH254717   2.334   1.390   1.675  0.1606  0.0402 -0.6685
11101TIP3    H154718   2.245   1.420   1.661 -0.3657 -0.2270  1.6413
11101TIP3    H254719   2.388   1.444   1.618 -1.2974  1.4729 -0.7412
11102TIP3   OH254720   1.477   6.397  16.865 -0.3047 -0.4252 -0.2357
11102TIP3    H154721   1.553   6.446  16.896 -0.3242  0.0516 -0.9102
11102TIP3    H254722   1.479   6.409  16.770 -1.9728  0.7023 -0.1631
11103TIP3   OH254723   0.324   5.904  15.115  0.2033 -0.1821 -0.2766
11103TIP3    H154724   0.235   5.904  15.079  0.9533  0.7919 -2.3012
11103TIP3    H254725   0.357   5.815  15.098 -0.1517 -0.3452 -0.1197
11104TIP3   OH254726   5.288   4.011   1.349  0.0395 -0.4331 -0.4747
11104TIP3    H154727   5.268   4.051   1.264  1.4389 -0.2865 -0.7662
11104TIP3    H254728   5.382   3.991   1.344 -0.3911 -2.8054  0.0569
11105TIP3   OH254729   1.854   2.628   2.390 -0.1174 -0.0649  0.0716
11105TIP3    H154730   1.770   2.673   2.401 -0.6669 -0.7427 -1.0853
11105TIP3    H254731   1.839   2.568   2.317  0.7107 -1.8193  1.2701
11106TIP3   OH254732   4.991   1.776  12.659 -0.3664  0.7384 -0.5366
11106TIP3    H154733   4.942   1.758  12.739  0.2750  1.7096  0.0882
11106TIP3    H254734   4.925   1.807  12.597 -1.1107 -1.3628 -0.8824
11107TIP3   OH254735   4.458   6.123  16.490 -0.7779  0.0022 -0.0273
11107TIP3    H154736   4.538   6.073  16.498  0.1504  1.3206 -0.6666
11107TIP3    H254737   4.412   6.108  16.573  0.0906 -0.8185  0.3222
11108TIP3   OH254738   3.556   2.906  11.798  0.0723 -0.2034 -0.0461
11108TIP3    H154739   3.508   2.981  11.765 -0.9353  0.0393  1.8208
11108TIP3    H254740   3.508   2.830  11.764 -0.1083  0.0116 -0.2750
11109TIP3   OH254741   3.595   0.835   0.522 -0.2024 -0.0904 -0.6087
11109TIP3    H154742   3.690   0.835   0.532 -0.1369  2.1698 -0.8043
11109TIP3    H254743   3.579   0.785   0.442  0.8738  0.0300 -0.9116
11110TIP3   OH254744   4.421   4.762   5.248 -0.2162  0.6788  0.4022
11110TIP3    H154745   4.414   4.735   5.156  0.1280  0.6019  0.3985
11110TIP3    H254746   4.378   4.692   5.297 -1.5939  1.3495  0.2102
11111TIP3   OH254747   3.943   0.744  12.329  0.0452  0.2368 -0.3357
11111TIP3    H154748   3.913   0.799  12.401 -1.1112 -3.0764  1.9957
11111TIP3    H254749   4.030   0.713  12.357  1.1629  1.6015 -2.1068
11112TIP3   OH254750   1.966   6.492  12.934 -0.0654 -0.4964  0.3538
11112TIP3    H154751   2.056   6.494  12.903 -0.1350  0.1902  0.1757
11112TIP3    H254752   1.960   6.413  12.988  0.1483 -1.5087 -1.0690
11113TIP3   OH254753   2.524   3.924   4.471  0.3754  0.6651  0.2630
11113TIP3    H154754   2.532   3.987   4.543 -4.2375  0.0009  1.6662
11113TIP3    H254755   2.451   3.956   4.419 -1.4019 -2.7650  0.3574
11114TIP3   OH254756   4.360   1.605  16.508  0.0491  0.5866 -0.4204
11114TIP3    H154757   4.327   1.680  16.558  1.2935  2.0457 -1.6557
11114TIP3    H254758   4.311   1.607  16.426  0.6107  0.5440 -0.7696
11115TIP3   OH254759   5.037   5.158   2.482  0.0106 -0.0475 -0.0195
11115TIP3    H154760   5.068   5.086   2.426  0.2265 -0.7290  0.9409
11115TIP3    H254761   5.091   5.151   2.561 -3.5076 -2.3311  2.4765
11116TIP3   OH254762   4.893   5.405  12.344 -0.2270 -0.0305  0.4996
11116TIP3    H154763   4.885   5.316  12.379  0.1847 -0.8932 -1.5075
11116TIP3    H254764   4.987   5.422  12.343 -0.3321  0.7466  1.5387
11117TIP3   OH254765   3.888   6.336   3.333  0.5541 -0.1168 -0.3381
11117TIP3    H154766   3.815   6.394   3.355  0.5898  1.5119 -3.8146
11117TIP3    H254767   3.966   6.386   3.355  0.5818  0.0606 -0.8191
11118TIP3   OH254768   4.679   4.412  15.960  0.1466  0.3227 -0.7352
11118TIP3    H154769   4.718   4.385  15.877  3.5308  1.0240  0.4367
11118TIP3    H254770   4.695   4.338  16.019  1.8784  1.4733  0.3389
11119TIP3   OH254771   5.593   0.764  16.525 -0.3773 -0.5805 -0.5123
11119TIP3    H154772   5.675   0.724  16.556 -1.5043 -1.4030  1.6137
11119TIP3    H254773   5.577   0.721  16.441  0.6399 -1.4878 -0.2779
11120TIP3   OH254774   3.062   2.657  16.016 -0.0639  0.1997 -0.3684
11120TIP3    H154775   2.989   2.718  16.016 -1.1608 -0.9990  1.3812
11120TIP3    H254776   3.059   2.616  16.103  2.2743 -0.3902 -0.4833
11121TIP3   OH254777   4.755   1.980   4.762  0.3160 -0.0571 -0.1074
11121TIP3    H154778   4.774   2.045   4.831 -0.3876  0.2241 -0.1653
11121TIP3    H254779   4.662   1.961   4.773 -0.0399  0.6781 -1.5477
11122TIP3   OH254780   5.549   1.861  14.049 -0.9575 -0.8188 -0.1793
11122TIP3    H154781   5.640   1.849  14.073 -0.2789  1.7811 -1.0857
11122TIP3    H254782   5.500   1.824  14.122  0.7425 -3.1550 -0.1226
11123TIP3   OH254783   2.132   0.005   2.262  0.2432 -0.3395 -0.4391
11123TIP3    H154784   2.079  -0.067   2.296 -1.6778  1.5386  0.8644
11123TIP3    H254785   2.172  -0.030   2.182 -2.9992 -1.9601 -1.5563
11124TIP3   OH254786   2.062   3.693   3.881 -0.2638  0.5244  0.3404
11124TIP3    H154787   2.068   3.719   3.789 -1.7337  0.3711  0.1679
11124TIP3    H254788   2.078   3.599   3.880 -0.6317  0.4608  0.1848
11125TIP3   OH254789   4.253   3.127  11.472 -0.0574 -0.3367 -0.5293
11125TIP3    H154790   4.178   3.182  11.490 -0.7480 -1.2311 -0.5932
11125TIP3    H254791   4.302   3.124  11.554 -1.4739 -1.8095  0.3156
11126TIP3   OH254792   6.475   3.155  12.367  0.2379 -0.2875 -0.0602
11126TIP3    H154793   6.513   3.094  12.304 -1.5425 -1.7121  0.1716
11126TIP3    H254794   6.469   3.238  12.320  1.0620 -0.7233 -0.9711
11127TIP3   OH254795   4.618   6.349  13.205  0.5716  0.0128  0.4187
11127TIP3    H154796   4.540   6.403  13.214 -0.2967 -1.0395 -0.4808
11127TIP3    H254797   4.691   6.407  13.230 -0.4249  1.2114  0.6258
11128TIP3   OH254798   0.069   0.307   2.000  0.1069  0.0374 -0.0426
11128TIP3    H154799   0.140   0.263   2.045  1.0551 -0.9965 -2.3807
11128TIP3    H254800   0.047   0.250   1.927 -2.0407  1.1171 -0.3478
11129TIP3   OH254801   5.007   5.150  16.101  0.2029  0.3525  0.2166
11129TIP3    H154802   5.005   5.123  16.009 -1.1515  0.7073  0.1151
11129TIP3    H254803   5.057   5.081  16.145 -0.5871 -0.7361 -0.5260
11130TIP3   OH254804   4.136   5.637   3.049 -0.1898 -0.0217 -0.1651
11130TIP3    H154805   4.044   5.634   3.074  0.1776  1.2501  1.5350
11130TIP3    H254806   4.147   5.721   3.004  0.5872  1.0142  1.8388
11131TIP3   OH254807   5.305   2.771   3.340 -0.0103  0.0259 -0.6516
11131TIP3    H154808   5.224   2.787   3.388  0.2834 -0.0229 -0.1338
11131TIP3    H254809   5.349   2.856   3.339  0.2411 -0.1002 -0.3513
11132TIP3   OH254810   3.905   5.353  12.640  0.1046 -0.2506 -0.0318
11132TIP3    H154811   3.988   5.353  12.592  0.1218  2.0276 -0.1073
11132TIP3    H254812   3.839   5.364  12.572 -0.4609 -3.3865 -0.1239
11133TIP3   OH254813   1.201   2.730   6.293 -0.2121 -0.4280  0.0708
11133TIP3    H154814   1.199   2.782   6.374 -1.8477 -1.0970  0.5046
11133TIP3    H254815   1.236   2.790   6.227 -0.3234  0.6385  0.9409
11134TIP3   OH254816   3.513   2.090  12.268 -0.0261 -0.1793 -0.2855
11134TIP3    H154817   3.570   2.115  12.342  0.8804 -0.3920 -0.8950
11134TIP3    H254818   3.426   2.081  12.307  0.1194  1.3148  0.4586
11135TIP3   OH254819   4.473   4.633   1.295 -0.6447  0.2548 -0.1179
11135TIP3    H154820   4.524   4.698   1.343 -0.1002  1.0210 -1.6619
11135TIP3    H254821   4.539   4.576   1.254 -1.0292  0.6294 -1.2995
11136TIP3   OH254822   5.179   1.585  13.242  0.0247 -0.2337 -0.4281
11136TIP3    H154823   5.185   1.631  13.326 -2.8786 -0.9160  0.2808
11136TIP3    H254824   5.130   1.646  13.186  0.3824 -0.5068 -1.0343
11137TIP3   OH254825   2.712   0.256   3.523  0.6650  0.1608 -0.0304
11137TIP3    H154826   2.644   0.286   3.464  1.5530  0.4275 -0.9494
11137TIP3    H254827   2.667   0.200   3.586 -0.3015 -0.0950 -0.9332
11138TIP3   OH254828   0.181   2.314  15.056 -0.5237  0.4794 -1.0682
11138TIP3    H154829   0.249   2.252  15.030  0.0893  1.8316 -2.9308
11138TIP3    H254830   0.145   2.278  15.137  1.2224 -1.1785 -0.9598
11139TIP3   OH254831   6.369   4.225  12.288  0.9252  0.5481  0.1578
11139TIP3    H154832   6.442   4.195  12.234  1.6470  2.5137 -0.0269
11139TIP3    H254833   6.404   4.299  12.338 -0.4039  0.2861  1.5445
11140TIP3   OH254834   2.977   2.734  13.579  0.4995 -0.4640 -0.3384
11140TIP3    H154835   2.902   2.792  13.564  0.4273 -0.4943 -0.1050
11140TIP3    H254836   2.946   2.647  13.554  0.3369 -0.5362  0.1040
11141TIP3   OH254837   4.116   2.534  11.093 -0.2548  0.1603 -0.9241
11141TIP3    H154838   4.179   2.591  11.049 -0.5507 -0.2526 -1.9072
11141TIP3    H254839   4.164   2.498  11.167  0.7614 -0.3607 -1.8097
11142TIP3   OH254840   2.617   4.216   1.919  0.0327 -0.0484  0.1615
11142TIP3    H154841   2.599   4.162   1.996  0.1101 -0.3865 -0.0545
11142TIP3    H254842   2.540   4.205   1.863 -0.2682  0.6302  0.4275
11143TIP3   OH254843   0.203   2.982   0.313  0.2166  0.1420  0.9727
11143TIP3    H154844   0.130   2.924   0.336 -0.9708  0.6805 -1.1639
11143TIP3    H254845   0.183   3.065   0.355 -0.2676  0.2008  0.6293
11144TIP3   OH254846   0.809   2.907  14.041  0.3787 -0.4744  0.6787
11144TIP3    H154847   0.746   2.840  14.067  0.5201 -0.7303  0.3535
11144TIP3    H254848   0.844   2.940  14.124 -1.0738  0.5360  0.9377
11145TIP3   OH254849   4.922   5.175  12.489  0.3415 -0.0726 -0.2759
11145TIP3    H154850   4.950   5.085  12.498 -1.5190 -0.5953  0.9857
11145TIP3    H254851   4.830   5.175  12.517  0.1710  2.1359 -0.5895
11146TIP3   OH254852   6.277   1.042   4.044 -0.4334  0.2681 -0.2184
11146TIP3    H154853   6.215   0.991   4.097 -3.1208  3.2606 -0.1811
11146TIP3    H254854   6.303   1.115   4.100  1.2390  0.4344 -1.1381
11147TIP3   OH254855   0.826   3.349   5.009  0.1981  1.2556 -0.2019
11147TIP3    H154856   0.743   3.361   5.055 -1.0028 -0.6874 -1.6654
11147TIP3    H254857   0.801   3.332   4.918  2.2790  1.7190 -0.9285
11148TIP3   OH254858   4.274   5.238   6.360 -0.4916 -0.3529 -0.5641
11148TIP3    H154859   4.304   5.323   6.327 -0.5131 -0.3141 -0.4846
11148TIP3    H254860   4.345   5.210   6.418 -1.2946  0.4595  0.8629
11149TIP3   OH254861   2.487   1.620  11.896  0.0764  1.4181  0.2889
11149TIP3    H154862   2.496   1.525  11.906  0.2397  1.5083  1.0341
11149TIP3    H254863   2.392   1.634  11.885 -0.0136  1.2197  0.7923
11150TIP3   OH254864   5.914   5.703  12.858 -0.2968  0.2886  0.4438
11150TIP3    H154865   5.821   5.683  12.846 -0.6099  1.1565  1.2800
11150TIP3    H254866   5.948   5.629  12.908 -0.1680 -0.7746 -1.1430
11151TIP3   OH254867   2.918   2.260   0.918 -0.0840 -0.0613  0.3348
11151TIP3    H154868   2.839   2.258   0.973 -0.3599 -0.4260 -0.0634
11151TIP3    H254869   2.888   2.228   0.833 -0.2142  2.7372 -0.7604
11152TIP3   OH254870   6.718   5.834   2.889 -0.0387 -0.1121  0.0444
11152TIP3    H154871   6.637   5.862   2.848  0.7976  1.2382 -0.7571
11152TIP3    H254872   6.787   5.883   2.844  1.3252 -1.8192  0.1388
11153TIP3   OH254873   6.040   2.576   5.030  0.2799 -0.0762  0.1049
11153TIP3    H154874   6.102   2.647   5.045  0.3206  0.0005 -0.3985
11153TIP3    H254875   6.029   2.573   4.935 -0.1401 -0.3859  0.1566
11154TIP3   OH254876   6.450   3.325  10.483  0.3405  0.0662  0.4278
11154TIP3    H154877   6.512   3.392  10.453  1.2274 -0.1029  1.7900
11154TIP3    H254878   6.397   3.305  10.406 -1.3382  3.7642  0.3975
11155TIP3   OH254879   0.410   5.594  13.659  0.2289 -0.4422 -0.1541
11155TIP3    H154880   0.464   5.649  13.716 -1.8406  1.7700 -0.1506
11155TIP3    H254881   0.336   5.568  13.714 -0.1054 -1.0865 -0.8954
11156TIP3   OH254882   5.851   6.531  13.216 -0.4317 -0.3779  0.0539
11156TIP3    H154883   5.806   6.607  13.253  0.6846  0.1188  0.4279
11156TIP3    H254884   5.784   6.488  13.162 -1.6011 -0.1473  1.2534
11157TIP3   OH254885   3.207   2.971   2.468 -0.3457  0.2107 -0.2481
11157TIP3    H154886   3.156   3.023   2.530  2.2912  1.8235  0.7474
11157TIP3    H254887   3.200   3.018   2.385 -0.1736  0.6806 -0.0046
11158TIP3   OH254888   0.942   2.422   3.352  0.3445 -0.1029  0.5042
11158TIP3    H154889   1.026   2.467   3.341  0.4014 -0.4645 -0.7219
11158TIP3    H254890   0.953   2.370   3.432  0.7509  0.9972  1.1841
11159TIP3   OH254891   2.429   2.789  14.976 -0.4370 -0.3499  0.3351
11159TIP3    H154892   2.461   2.755  14.892  0.9694  2.1760 -0.2422
11159TIP3    H254893   2.478   2.741  15.042 -1.2847 -2.1029 -0.2343
11160TIP3   OH254894   0.259   2.278   3.811 -0.2654  0.5594  0.7251
11160TIP3    H154895   0.199   2.207   3.834  1.9008 -2.0034 -0.8376
11160TIP3    H254896   0.218   2.320   3.736 -0.3196 -0.9802 -0.1563
11161TIP3   OH254897   2.830   4.184  16.503  0.1742  0.1680 -0.1021
11161TIP3    H154898   2.749   4.132  16.504 -1.0686  1.9703  2.0647
11161TIP3    H254899   2.878   4.152  16.426 -1.0293 -3.2891  0.3848
11162TIP3   OH254900   0.925   6.686   3.431 -0.3255 -0.1586  0.0868
11162TIP3    H154901   1.003   6.659   3.479 -0.6778 -0.6989  0.3591
11162TIP3    H254902   0.904   6.772   3.466 -0.2737 -0.3226  0.5253
11163TIP3   OH254903   5.556   0.037  11.274 -0.3572  0.2657 -0.3314
11163TIP3    H154904   5.505   0.110  11.238 -0.1826  1.4466  1.6894
11163TIP3    H254905   5.525  -0.039  11.225 -2.3466  1.3122 -0.8376
11164TIP3   OH254906   0.137   0.742   0.009 -0.0121  0.0591  0.0115
11164TIP3    H154907   0.132   0.651   0.037 -1.3871  0.7586  2.3313
11164TIP3    H254908   0.231   0.762   0.006  0.2941 -1.3299 -0.3077
11165TIP3   OH254909   1.533   4.137  14.489  0.2496  0.1384 -0.7781
11165TIP3    H154910   1.566   4.133  14.579 -2.0768  0.3496  0.1371
11165TIP3    H254911   1.526   4.045  14.462  0.8995  0.0748 -0.7557
11166TIP3   OH254912   0.476   5.727   4.557 -0.4204 -0.0983 -0.0517
11166TIP3    H154913   0.550   5.726   4.496 -0.6860 -3.1321 -0.4568
11166TIP3    H254914   0.516   5.715   4.643 -0.3844 -1.9253 -0.2881
11167TIP3   OH254915   0.607   0.431  11.875 -0.5510  0.4453 -0.2843
11167TIP3    H154916   0.637   0.510  11.830 -0.8534 -0.3190 -1.8969
11167TIP3    H254917   0.678   0.368  11.864 -1.0128 -0.0454 -0.4816
11168TIP3   OH254918   6.109   6.165  12.292 -0.5549 -0.0182  0.1286
11168TIP3    H154919   6.161   6.163  12.372  0.6352 -2.7457 -0.5880
11168TIP3    H254920   6.173   6.181  12.222 -1.4958  1.7465 -0.3951
11169TIP3   OH254921   2.038   5.181   5.288  0.6177  0.0431  0.3474
11169TIP3    H154922   2.104   5.164   5.222  1.4318 -1.4383  1.4741
11169TIP3    H254923   2.070   5.137   5.367 -0.4765  1.4202  1.6547
11170TIP3   OH254924   3.027   3.662   1.471  0.0752 -0.4500  0.3537
11170TIP3    H154925   3.038   3.724   1.399  0.5899  0.4714  1.1883
11170TIP3    H254926   3.104   3.606   1.466  0.4119 -0.0083  0.5395
11171TIP3   OH254927   2.355   4.461  17.227  0.5352 -0.3801 -0.2251
11171TIP3    H154928   2.273   4.461  17.178  1.2349 -1.3823 -1.4639
11171TIP3    H254929   2.422   4.488  17.164  1.2157  0.0859  0.6687
11172TIP3   OH254930   4.915   0.455   4.671 -0.5177 -0.0761 -0.5042
11172TIP3    H154931   4.928   0.531   4.728 -0.4369 -0.1650 -0.4029
11172TIP3    H254932   4.988   0.396   4.693  0.4812  0.5968 -1.8468
11173TIP3   OH254933   4.952   3.427   6.445  0.0676 -0.3247 -0.0457
11173TIP3    H154934   4.862   3.418   6.415 -0.3882  0.7361  0.9293
11173TIP3    H254935   4.954   3.511   6.491  1.3776 -0.6661  0.5672
11174TIP3   OH254936   3.469   2.129  12.681 -0.5344 -0.1228  0.0224
11174TIP3    H154937   3.467   2.219  12.649 -2.0681  0.5533  1.8310
11174TIP3    H254938   3.537   2.130  12.749 -0.9069 -0.1936  0.3959
11175TIP3   OH254939   4.342   0.257   4.836  0.1269  0.2478  0.3659
11175TIP3    H154940   4.285   0.333   4.852 -0.8307 -0.6192  1.1619
11175TIP3    H254941   4.322   0.231   4.746 -0.9697 -0.2361  0.7425
11176TIP3   OH254942   0.568   3.597   3.023 -0.1789 -0.2552 -0.1906
11176TIP3    H154943   0.595   3.630   3.109 -0.0582 -1.0664  0.0869
11176TIP3    H254944   0.560   3.676   2.969 -0.3777  0.2757  0.5948
11177TIP3   OH254945   6.175   1.411   5.367  0.0810 -0.3325 -0.0068
11177TIP3    H154946   6.270   1.403   5.357  0.2487  2.0548 -1.1269
11177TIP3    H254947   6.155   1.496   5.329 -2.3143 -0.0133  1.8015
11178TIP3   OH254948   2.536   3.095  15.319  0.3772  0.5160 -0.0511
11178TIP3    H154949   2.444   3.075  15.300  0.6556  0.2534 -1.2394
11178TIP3    H254950   2.536   3.129  15.409 -0.5661 -1.6771  0.8346
11179TIP3   OH254951   6.086   2.345  15.452 -0.1633  0.5866 -0.4035
11179TIP3    H154952   6.174   2.311  15.434  0.3599  1.7386 -0.1479
11179TIP3    H254953   6.073   2.329  15.546 -0.6896 -0.5687 -0.6576
11180TIP3   OH254954   1.644   1.068  15.134 -0.0507 -0.1473 -0.0532
11180TIP3    H154955   1.624   0.975  15.125 -0.1334 -0.1247 -0.0984
11180TIP3    H254956   1.620   1.107  15.050 -0.5704  0.0183  0.1720
11181TIP3   OH254957   6.158   0.885  10.716 -0.2690 -1.2325  0.5685
11181TIP3    H154958   6.188   0.968  10.682 -0.5252 -1.2499  0.2951
11181TIP3    H254959   6.203   0.819  10.663  2.4698 -1.3680  2.8484
11182TIP3   OH254960   2.211   5.682   4.281  0.5250 -0.0064  0.1887
11182TIP3    H154961   2.132   5.628   4.276  0.7119 -0.3063  0.4292
11182TIP3    H254962   2.190   5.759   4.229  0.3506 -0.4333 -0.3855
11183TIP3   OH254963   5.261   3.060  13.160  0.8877 -0.1382 -0.3122
11183TIP3    H154964   5.186   3.102  13.117 -0.5135 -2.5232 -0.3987
11183TIP3    H254965   5.338   3.096  13.116 -0.3062  0.7166 -1.7860
11184TIP3   OH254966   3.845   3.178   0.621 -0.1538  0.6280 -0.4434
11184TIP3    H154967   3.800   3.248   0.666 -1.0619  0.2337 -0.7263
11184TIP3    H254968   3.806   3.175   0.534  1.1663  0.9884 -1.0869
11185TIP3   OH254969   5.381   0.938   0.086 -0.0749  0.1058  0.2558
11185TIP3    H154970   5.328   0.859   0.100 -1.0031  0.6157 -0.2734
11185TIP3    H254971   5.431   0.947   0.167 -0.5851 -0.5508  0.6652
11186TIP3   OH254972   0.790   0.061  15.966  0.0553  0.0548  0.0247
11186TIP3    H154973   0.846   0.039  15.892  0.3967 -1.0606  0.6036
11186TIP3    H254974   0.719   0.112  15.927  0.6325  0.1368 -0.9524
11187TIP3   OH254975   3.873   2.605  15.243 -0.6573 -0.6060  0.5654
11187TIP3    H154976   3.962   2.617  15.210 -0.9568 -1.6239 -0.7004
11187TIP3    H254977   3.838   2.694  15.250  0.0269 -0.2645 -0.1779
11188TIP3   OH254978   6.463   5.245  15.502 -0.4006  0.1826  0.2596
11188TIP3    H154979   6.500   5.158  15.484  0.3134  0.6373 -0.5515
11188TIP3    H254980   6.539   5.303  15.503 -0.4471  0.4102  3.9342
11189TIP3   OH254981   6.020   4.828  12.997 -0.1664  0.0126  0.1659
11189TIP3    H154982   5.925   4.812  12.993  0.0972 -2.1805  1.2639
11189TIP3    H254983   6.032   4.885  13.072 -0.5413 -0.6020  0.7003
11190TIP3   OH254984   5.169   2.417  12.161  0.2766  0.1597 -0.1440
11190TIP3    H154985   5.155   2.479  12.090  0.7854  0.8156  0.3132
11190TIP3    H254986   5.081   2.396  12.192  0.1161  1.1616  0.1154
11191TIP3   OH254987   0.616   3.807   2.031  0.1444 -0.1401 -0.5330
11191TIP3    H154988   0.609   3.798   2.126  0.4112  0.1557 -0.4844
11191TIP3    H254989   0.633   3.718   1.999  1.5917 -0.0184 -0.1686
11192TIP3   OH254990   6.375   3.649   2.166  0.0206  0.2266 -0.7932
11192TIP3    H154991   6.405   3.625   2.253  0.4680  0.3918 -0.9021
11192TIP3    H254992   6.455   3.655   2.113 -0.3533 -1.7379 -1.6917
11193TIP3   OH254993   2.014   4.542  12.514  0.3294  0.6757 -0.0063
11193TIP3    H154994   2.063   4.568  12.591  0.9082  0.7276 -0.3855
11193TIP3    H254995   2.063   4.580  12.441 -0.7797  1.5224 -0.3440
11194TIP3   OH254996   0.086   2.860   5.347 -0.4288  0.0512 -0.1507
11194TIP3    H154997   0.129   2.935   5.389 -0.5667  0.3651 -0.5651
11194TIP3    H254998   0.045   2.897   5.269 -0.7727 -0.3987 -0.1830
11195TIP3   OH254999   1.913   3.536  12.582 -0.2244  0.0254 -0.6269
11195TIP3    H155000   1.822   3.564  12.590  0.1966  1.4790 -0.6565
11195TIP3    H255001   1.960   3.589  12.646  1.1682  2.1895 -3.2201
11196TIP3   OH255002   4.565   5.497  16.351 -0.4068  0.4773 -0.2830
11196TIP3    H155003   4.501   5.562  16.378  2.4173  2.7254  1.5758
11196TIP3    H255004   4.611   5.537  16.277 -0.5796 -0.7758 -1.1125
11197TIP3   OH255005   0.802   5.264  11.725  0.7309 -0.0443 -0.3001
11197TIP3    H155006   0.748   5.313  11.787  2.0837  0.3229  0.6382
11197TIP3    H255007   0.836   5.191  11.777 -0.1477 -1.2211 -1.3161
11198TIP3   OH255008   2.021   2.827  15.527  0.2857 -0.1103 -0.2666
11198TIP3    H155009   1.960   2.762  15.563 -1.0204  1.4996  0.5504
11198TIP3    H255010   2.038   2.797  15.437 -0.8707 -1.1738 -0.1554
11199TIP3   OH255011   4.174   6.704   4.865 -0.2234 -0.0554  0.0272
11199TIP3    H155012   4.190   6.768   4.935  0.4973 -0.1837 -0.0163
11199TIP3    H255013   4.257   6.697   4.819 -0.1599 -1.3701  0.3040
11200TIP3   OH255014   0.604   6.582   1.804  0.1498  0.0306  0.0555
11200TIP3    H155015   0.634   6.660   1.757 -0.4647  0.3319  0.1571
11200TIP3    H255016   0.538   6.615   1.865  0.5494 -0.4378  0.7503
11201TIP3   OH255017   0.615   1.713  15.491 -0.6002 -0.1604  0.5836
11201TIP3    H155018   0.694   1.680  15.533 -0.8745 -0.1961  1.0705
11201TIP3    H255019   0.620   1.680  15.401  0.1053  0.1154  0.5173
11202TIP3   OH255020   3.614   1.850   6.484 -1.0062  0.3469 -0.0729
11202TIP3    H155021   3.672   1.917   6.449  0.1531  0.7332  2.3674
11202TIP3    H255022   3.527   1.889   6.479 -0.5838  1.2804 -0.3762
11203TIP3   OH255023   0.461   6.358  15.985  0.6241  0.0720  0.0657
11203TIP3    H155024   0.510   6.440  15.982 -0.2605  0.5954 -0.4634
11203TIP3    H255025   0.391   6.370  15.921 -3.1160  1.2474  3.8974
11204TIP3   OH255026   5.023   1.065  15.192  0.1364  0.6465  0.1409
11204TIP3    H155027   4.986   1.069  15.104  0.6084  0.9447 -0.0480
11204TIP3    H255028   5.085   0.993  15.189 -0.8571 -0.2499  0.6306
11205TIP3   OH255029   4.812   5.565  16.750 -0.1218 -0.1595 -0.0445
11205TIP3    H155030   4.901   5.593  16.774 -0.3390  0.2077  0.3504
11205TIP3    H255031   4.820   5.472  16.731  0.1952 -0.3124  0.8026
11206TIP3   OH255032   4.016   0.058  15.042  0.0188  0.0804  0.5022
11206TIP3    H155033   3.967   0.076  14.961 -0.3906  0.7299  0.8829
11206TIP3    H255034   4.092   0.007  15.013  0.6561  1.5259 -0.5077
11207TIP3   OH255035   3.382   1.022  14.776 -0.5780 -0.3654 -0.5785
11207TIP3    H155036   3.422   0.982  14.853 -0.8318  0.0266 -0.2399
11207TIP3    H255037   3.454   1.034  14.714 -0.1160  0.6110  0.1396
11208TIP3   OH255038   6.555   3.140   3.795 -0.7351 -0.1947  0.2086
11208TIP3    H155039   6.553   3.234   3.814 -2.8640  0.0742 -1.0067
11208TIP3    H255040   6.521   3.098   3.873 -1.0847  0.1731  0.2578
11209TIP3   OH255041   2.981   2.430  14.340 -0.1972 -0.4087  0.2145
11209TIP3    H155042   3.049   2.376  14.380  0.2798 -1.2201 -1.5929
11209TIP3    H255043   2.941   2.476  14.414 -0.3653 -2.9300  1.8264
11210TIP3   OH255044   4.876   4.646   5.924 -0.4477  0.4449 -0.5593
11210TIP3    H155045   4.885   4.653   6.019 -0.7274  0.2929 -0.5194
11210TIP3    H255046   4.782   4.641   5.909 -0.3769 -1.1309 -0.7113
11211TIP3   OH255047   5.905   4.805   4.797 -0.2325  0.0239 -0.3901
11211TIP3    H155048   5.857   4.841   4.723 -1.1326 -0.6524 -0.1457
11211TIP3    H255049   5.844   4.744   4.838  0.6356 -0.4275  0.2616
11212TIP3   OH255050   4.517   6.589  14.284  0.3148 -0.4750  0.7212
11212TIP3    H155051   4.520   6.642  14.204 -2.5121 -0.0322  0.7977
11212TIP3    H255052   4.471   6.644  14.347  0.8448 -1.5434  2.0829
11213TIP3   OH255053   6.310   5.088   6.378  0.3027 -0.1513  0.1878
11213TIP3    H155054   6.308   5.182   6.363 -1.1319 -0.1040  0.5934
11213TIP3    H255055   6.227   5.055   6.344  0.4067 -1.1508  0.8350
11214TIP3   OH255056   6.633   2.249  14.035 -0.9806 -0.4260 -0.3466
11214TIP3    H155057   6.587   2.178  13.991 -2.1407 -0.3345  0.6653
11214TIP3    H255058   6.672   2.208  14.112 -1.1844 -0.0803 -0.0562
11215TIP3   OH255059   0.731   4.615  16.984  0.7567  0.3765  0.3550
11215TIP3    H155060   0.656   4.565  17.017 -1.3442  2.4132 -0.9992
11215TIP3    H255061   0.774   4.648  17.062 -1.1286  0.9624  1.2133
11216TIP3   OH255062   4.383   0.813   3.536 -0.1836  0.5706  0.2557
11216TIP3    H155063   4.345   0.863   3.464 -1.5435  0.6568  0.9952
11216TIP3    H255064   4.473   0.795   3.509 -0.8805 -0.0508 -1.8056
11217TIP3   OH255065   6.580   1.501   5.757 -0.3286 -0.1560  0.3621
11217TIP3    H155066   6.525   1.451   5.697  0.3290 -1.6778  0.9498
11217TIP3    H255067   6.533   1.499   5.840  0.2302 -0.8459  0.6819
11218TIP3   OH255068   5.608   1.600  17.057  0.2351 -0.3912  0.4876
11218TIP3    H155069   5.622   1.521  17.109 -1.2268  0.8250  2.9324
11218TIP3    H255070   5.548   1.573  16.987  1.9006 -1.9770 -0.4176
11219TIP3   OH255071   3.049   0.361  16.454  0.2474  0.4928  1.2034
11219TIP3    H155072   2.958   0.377  16.432  0.5249 -0.1960 -0.6231
11219TIP3    H255073   3.054   0.266  16.469  0.8268  0.3667  0.3079
11220TIP3   OH255074   3.330   2.361  15.990 -0.1521  0.8261  0.3586
11220TIP3    H155075   3.277   2.298  15.942  0.9201 -0.6435  1.0322
11220TIP3    H255076   3.292   2.362  16.079  0.8347 -0.1316  0.8043
11221TIP3   OH255077   3.219   3.680  15.279  0.2236 -0.2347 -0.1924
11221TIP3    H155078   3.159   3.610  15.304  0.6505 -0.4683  0.1943
11221TIP3    H255079   3.165   3.758  15.277 -0.1360 -0.4754 -0.0322
11222TIP3   OH255080   4.178   1.628  16.303 -0.1382  0.0495 -0.4494
11222TIP3    H155081   4.084   1.618  16.315 -0.3717  0.3383 -1.8723
11222TIP3    H255082   4.190   1.718  16.273  0.8113  0.6332  1.4781
11223TIP3   OH255083   2.858   6.415  10.842 -0.3993  0.1618 -0.2873
11223TIP3    H155084   2.869   6.343  10.905 -0.6489  0.4382  0.0810
11223TIP3    H255085   2.791   6.471  10.882  1.0809  1.5739  0.3358
11224TIP3   OH255086   3.244   5.173  11.486  0.4714  0.3797  0.1124
11224TIP3    H155087   3.158   5.133  11.500  1.7447 -2.4516  0.5867
11224TIP3    H255088   3.259   5.225  11.565 -2.2285  4.0481 -1.5199
11225TIP3   OH255089   2.515   4.502  15.598  0.3037 -0.5761  0.2725
11225TIP3    H155090   2.537   4.566  15.531  0.9257 -0.3796  0.6578
11225TIP3    H255091   2.584   4.436  15.593  0.4996 -0.4245  0.8821
11226TIP3   OH255092   5.827   4.380  13.773 -0.2026 -0.0580  0.5171
11226TIP3    H155093   5.800   4.374  13.681 -0.3853 -2.2462  0.6517
11226TIP3    H255094   5.745   4.381  13.822 -0.0950  0.1251  0.6955
11227TIP3   OH255095   3.304   1.201  12.789  0.0619 -1.1520  0.5840
11227TIP3    H155096   3.219   1.231  12.757 -0.1357 -2.3123 -0.0213
11227TIP3    H255097   3.316   1.115  12.748  0.4717 -2.0466  2.4759
11228TIP3   OH255098   2.023   6.122  11.556  0.1428  0.1059 -1.2266
11228TIP3    H155099   2.057   6.042  11.594 -0.1230  0.8840  0.7542
11228TIP3    H255100   2.005   6.179  11.630 -0.5250  1.6813 -2.5175
11229TIP3   OH255101   0.993   3.133  13.347  0.0501 -0.3311 -0.1200
11229TIP3    H155102   1.046   3.211  13.363  0.7274 -0.6498 -0.7351
11229TIP3    H255103   0.984   3.129  13.252  0.7067 -1.4202 -0.1594
11230TIP3   OH255104   3.596   2.665   4.614  0.3784  0.0655 -0.4180
11230TIP3    H155105   3.578   2.662   4.520 -1.1400 -0.8618 -0.1250
11230TIP3    H255106   3.607   2.758   4.633 -1.1705  0.4438 -1.2054
11231TIP3   OH255107   1.685   1.903  13.665 -0.3388  0.1180 -0.4681
11231TIP3    H155108   1.672   1.969  13.596 -1.4385 -0.2670 -0.6467
11231TIP3    H255109   1.628   1.931  13.736  1.9287  1.3727  0.9621
11232TIP3   OH255110   1.887   3.901   2.646  0.0048  0.6200  0.8214
11232TIP3    H155111   1.840   3.970   2.600  3.1677  2.0621 -0.5150
11232TIP3    H255112   1.843   3.821   2.621 -1.3924  1.8162 -0.7502
11233TIP3   OH255113   2.141   5.602   5.683  0.1934  0.5722  0.0098
11233TIP3    H155114   2.125   5.562   5.768  3.5245 -0.4337  0.3095
11233TIP3    H255115   2.186   5.684   5.704 -0.3264  1.0663 -0.7623
11234TIP3   OH255116   5.686   0.595  10.502  0.0779 -0.0171  0.6343
11234TIP3    H155117   5.621   0.537  10.463  0.8689  0.8217 -2.1807
11234TIP3    H255118   5.654   0.683  10.485  0.7855  0.4004  1.3558
11235TIP3   OH255119   0.078   0.410   6.268  0.6008 -0.3247  0.7069
11235TIP3    H155120   0.142   0.387   6.336  0.5024 -0.6922  0.6742
11235TIP3    H255121  -0.004   0.370   6.297  0.0158  1.3284  1.4824
11236TIP3   OH255122   2.509   5.131  15.652 -0.2353 -0.3651  0.5888
11236TIP3    H155123   2.417   5.133  15.623  0.0107  0.3434 -0.1960
11236TIP3    H255124   2.537   5.041  15.637 -0.8628 -0.6451  1.0493
11237TIP3   OH255125   1.380   0.480  16.702 -0.4658 -0.0821 -0.0993
11237TIP3    H155126   1.370   0.443  16.615  0.7911 -0.4585 -0.1065
11237TIP3    H255127   1.435   0.417  16.749 -0.3384  0.5791  0.6707
11238TIP3   OH255128   0.239   4.341   2.077  0.5086  0.3445 -0.1983
11238TIP3    H155129   0.237   4.433   2.100  1.8320  0.3921 -0.2039
11238TIP3    H255130   0.322   4.309   2.112  1.4266 -0.1652 -2.6525
11239TIP3   OH255131   4.613   4.931  12.961 -0.2037 -0.3413  0.2211
11239TIP3    H155132   4.699   4.974  12.951 -0.9852  0.7814 -2.3958
11239TIP3    H255133   4.615   4.859  12.899 -1.0072 -0.5686  0.4545
11240TIP3   OH255134   1.280   2.182   3.801  0.3482  0.2576 -0.1770
11240TIP3    H155135   1.217   2.112   3.819  0.2283  0.8266  1.7878
11240TIP3    H255136   1.271   2.199   3.707 -0.3549 -1.6412 -0.4966
11241TIP3   OH255137   2.884   4.973   0.983  0.4411 -0.2283  0.0654
11241TIP3    H155138   2.963   4.920   0.993  1.3953  1.3008  1.0243
11241TIP3    H255139   2.815   4.923   1.026  1.5808 -0.1411  2.0723
11242TIP3   OH255140   0.661   0.765  13.516  0.6635 -0.5168 -0.2272
11242TIP3    H155141   0.691   0.750  13.606 -0.6118  0.7504  0.4372
11242TIP3    H255142   0.656   0.677  13.478  1.0160 -1.0913  1.0090
11243TIP3   OH255143   3.763   5.632  15.689 -0.1150  0.0806  0.4457
11243TIP3    H155144   3.670   5.651  15.705 -0.1035 -0.4868  1.1794
11243TIP3    H255145   3.809   5.705  15.731 -0.1688 -0.4114  1.3806
11244TIP3   OH255146   1.344   1.685   4.194  0.4538 -0.0760 -0.1299
11244TIP3    H155147   1.289   1.613   4.163 -0.6810  0.7789 -0.1485
11244TIP3    H255148   1.433   1.655   4.179 -0.0206 -0.9946 -1.2239
11245TIP3   OH255149   4.698   5.317   4.156 -0.1707  0.2299 -0.0353
11245TIP3    H155150   4.605   5.330   4.143 -0.7334 -2.3550  0.7048
11245TIP3    H255151   4.729   5.280   4.074 -0.3626 -1.2069  0.5096
11246TIP3   OH255152   0.498   3.569  11.322  0.2710  0.1174 -0.0933
11246TIP3    H155153   0.572   3.530  11.276  0.0958  0.5406 -0.7463
11246TIP3    H255154   0.483   3.652  11.277 -0.7280 -0.0508 -0.1001
11247TIP3   OH255155   2.973   5.568  14.299  0.5180 -0.1841 -0.7850
11247TIP3    H155156   3.032   5.498  14.328  0.6765  0.2390 -0.0684
11247TIP3    H255157   2.897   5.521  14.264  1.6597 -0.7665 -2.6562
11248TIP3   OH255158   3.504   5.194  14.364  0.4966 -0.7758  1.2809
11248TIP3    H155159   3.525   5.261  14.429  0.8061 -2.8229  3.4274
11248TIP3    H255160   3.447   5.132  14.410 -1.1413 -1.1763 -1.1080
11249TIP3   OH255161   4.205   6.608  14.965  0.3876  0.2503 -0.0430
11249TIP3    H155162   4.167   6.526  14.933  1.6350  0.1503 -1.3726
11249TIP3    H255163   4.259   6.581  15.040 -0.1999  0.0355  0.3041
11250TIP3   OH255164   2.404   0.969  15.389 -0.2335 -0.5324  0.4060
11250TIP3    H155165   2.468   0.915  15.343  0.3709 -2.0082  2.8233
11250TIP3    H255166   2.319   0.932  15.363  0.0101 -0.5796 -0.3644
11251TIP3   OH255167   2.629   1.416  15.747  0.8420  0.0209 -0.2249
11251TIP3    H155168   2.630   1.321  15.736  0.5778  0.0331 -0.3708
11251TIP3    H255169   2.587   1.448  15.667 -1.8792  0.0582  1.1147
11252TIP3   OH255170   6.737   3.690  14.102  0.1391  0.1778  0.0964
11252TIP3    H155171   6.707   3.628  14.036  1.7380 -1.0271  0.4191
11252TIP3    H255172   6.661   3.746  14.120 -0.7874 -0.4823 -1.5755
11253TIP3   OH255173   4.422   0.577  17.165  0.0475  0.1318  0.5280
11253TIP3    H155174   4.500   0.592  17.111 -0.5411  1.5916  0.0379
11253TIP3    H255175   4.450   0.597  17.254  0.3699  0.1128  0.4332
11254TIP3   OH255176   0.496   1.355   2.120 -0.6352  0.0929 -0.2217
11254TIP3    H155177   0.421   1.335   2.175 -2.0809  0.8350 -1.8155
11254TIP3    H255178   0.491   1.293   2.047 -1.1635  1.6728 -1.6047
11255TIP3   OH255179   6.701   2.845  11.199  0.0800  0.0308 -0.3008
11255TIP3    H155180   6.649   2.925  11.206 -0.3940 -0.3620  0.9031
11255TIP3    H255181   6.677   2.809  11.113 -0.8687  0.3906 -0.2033
11256TIP3   OH255182   5.496   2.081  12.610  0.2824  0.0727  0.4578
11256TIP3    H155183   5.506   1.992  12.643 -1.2597  0.1288  1.1589
11256TIP3    H255184   5.407   2.106  12.633 -0.0996  0.9915 -1.6829
11257TIP3   OH255185   2.269   4.476   5.898 -0.0834 -0.4522  0.2974
11257TIP3    H155186   2.267   4.462   5.993 -0.7785 -1.1608  0.1875
11257TIP3    H255187   2.301   4.394   5.862  1.2339  0.1915 -0.0296
11258TIP3   OH255188   2.742   0.934   0.580 -0.5926 -0.2652  0.2766
11258TIP3    H155189   2.750   0.952   0.673 -0.0134 -2.2626  0.6651
11258TIP3    H255190   2.677   0.997   0.548  0.7904  1.9024  1.5510
11259TIP3   OH255191   3.919   6.439  11.434 -0.2606  0.2829 -0.0605
11259TIP3    H155192   3.969   6.478  11.362  1.3836 -1.6976 -0.0900
11259TIP3    H255193   3.852   6.386  11.391  0.5423 -0.6734 -0.1742
11260TIP3   OH255194   2.920   5.095  12.766 -0.1340  0.3978  0.5038
11260TIP3    H155195   2.916   5.073  12.859  2.6385  1.0147  0.8708
11260TIP3    H255196   2.972   5.025  12.727 -1.7242 -0.1428 -0.7292
11261TIP3   OH255197   3.935   1.835  17.213  0.0605  0.0121  0.1550
11261TIP3    H155198   3.867   1.815  17.149 -1.1386 -0.6879  1.5745
11261TIP3    H255199   4.017   1.825  17.166 -0.7962  0.0734 -1.3982
11262TIP3   OH255200   6.693   1.767  16.475 -0.4575 -0.3490 -0.2552
11262TIP3    H155201   6.775   1.793  16.431 -0.2338 -0.0096  0.3523
11262TIP3    H255202   6.711   1.780  16.568 -0.4710 -2.3329  0.0632
11263TIP3   OH255203   1.243   1.937  12.534 -0.4962  0.3248 -0.3222
11263TIP3    H155204   1.222   1.930  12.441 -0.7180 -0.5483 -0.2177
11263TIP3    H255205   1.252   2.031  12.550  1.4269  0.4164 -1.6253
11264TIP3   OH255206   0.545   4.605   1.270  0.2247 -0.6072  0.4184
11264TIP3    H155207   0.631   4.563   1.269  1.0111  0.7441 -3.0633
11264TIP3    H255208   0.484   4.536   1.295  2.0450 -2.2161  0.6110
11265TIP3   OH255209   2.084   2.013  17.021 -0.0720  0.3929 -0.0550
11265TIP3    H155210   2.088   2.104  17.052 -1.8154  0.4149  0.2238
11265TIP3    H255211   2.022   2.015  16.948 -0.5960 -0.6526  0.3335
11266TIP3   OH255212   3.992   6.303   2.164 -0.3873  0.5878  0.1990
11266TIP3    H155213   4.028   6.233   2.218 -0.1081  2.1668  2.2064
11266TIP3    H255214   4.069   6.351   2.133 -0.6203  1.2548  0.6352
11267TIP3   OH255215   4.485   6.743  14.523 -0.0023 -0.0593 -0.6442
11267TIP3    H155216   4.440   6.753  14.607 -0.0520 -0.8941 -0.5643
11267TIP3    H255217   4.553   6.678  14.540  0.1022 -0.1012 -1.2072
11268TIP3   OH255218   5.704   1.526  14.176 -0.3795 -0.2821 -0.1119
11268TIP3    H155219   5.632   1.536  14.238 -1.4995  1.4293 -1.5852
11268TIP3    H255220   5.766   1.595  14.200 -1.1164  0.8114 -1.1989
11269TIP3   OH255221   4.233   4.889  14.693 -0.4179 -0.4498  0.3791
11269TIP3    H155222   4.219   4.935  14.610  0.1970 -0.9276  0.0004
11269TIP3    H255223   4.270   4.805  14.668 -0.0816 -0.5445  1.1487
11270TIP3   OH255224   4.396   0.731   1.316  0.4644  0.2157 -0.8121
11270TIP3    H155225   4.443   0.804   1.275  2.5141 -0.7811 -0.3902
11270TIP3    H255226   4.399   0.750   1.409 -2.6629  1.6026 -0.8764
11271TIP3   OH255227   6.408   5.934  16.075  0.6028 -0.5829 -0.4264
11271TIP3    H155228   6.376   5.926  15.985  1.3779  1.5621 -0.9479
11271TIP3    H255229   6.481   5.872  16.080  0.9533 -0.2763 -1.4975
11272TIP3   OH255230   6.545   5.784   4.885 -0.1099 -0.7305 -0.4026
11272TIP3    H155231   6.598   5.860   4.860 -0.2290 -0.4976  0.0381
11272TIP3    H255232   6.457   5.819   4.896 -0.2808 -1.0454 -0.7551
11273TIP3   OH255233   0.691   4.090  16.701  0.1400 -0.3223 -0.3641
11273TIP3    H155234   0.737   4.159  16.653 -0.2632 -0.3005 -0.7308
11273TIP3    H255235   0.699   4.116  16.793  0.3789 -0.0270 -0.4660
11274TIP3   OH255236   1.519   5.350   2.455  0.0753  0.2731 -0.3171
11274TIP3    H155237   1.546   5.266   2.417 -1.7144 -0.2081 -0.6037
11274TIP3    H255238   1.489   5.402   2.381  0.3562  0.8599 -0.0293
11275TIP3   OH255239   4.804   1.919  14.194  0.8333  0.4818 -0.3024
11275TIP3    H155240   4.793   1.832  14.232  0.9144  0.5335 -0.1601
11275TIP3    H255241   4.715   1.952  14.182  0.8123  1.0345  1.1406
11276TIP3   OH255242   6.407   5.290  12.729  0.0734  0.0988 -0.5165
11276TIP3    H155243   6.384   5.247  12.647  0.5751  0.5466 -0.8972
11276TIP3    H255244   6.449   5.372  12.702  1.4473 -0.3635  0.1694
11277TIP3   OH255245   6.267   3.800  13.381  0.3471  0.3345  0.2267
11277TIP3    H155246   6.238   3.746  13.455  1.6679  1.5890  1.7556
11277TIP3    H255247   6.342   3.752  13.345 -0.0227 -0.0628 -0.0212
11278TIP3   OH255248   0.312   1.546   1.145 -0.2873 -0.4004 -0.0326
11278TIP3    H155249   0.300   1.527   1.052  0.1202  0.2305 -0.2251
11278TIP3    H255250   0.407   1.550   1.157 -0.3415 -0.0674  0.3150
11279TIP3   OH255251   2.127   1.756  17.140 -0.0639 -0.4727  1.1188
11279TIP3    H155252   2.109   1.835  17.090 -1.1290 -0.2137  1.8737
11279TIP3    H255253   2.110   1.684  17.079  1.1003 -0.1341  0.3749
11280TIP3   OH255254   6.166   6.531   5.584 -0.0346 -0.0767  0.2157
11280TIP3    H155255   6.165   6.626   5.597 -1.8357 -0.4093  3.7493
11280TIP3    H255256   6.258   6.510   5.568  0.1958  2.3187 -2.4253
11281TIP3   OH255257   4.509   6.143   2.481 -0.2857  0.3898  0.0818
11281TIP3    H155258   4.492   6.049   2.493  2.0805 -0.1555 -0.2925
11281TIP3    H255259   4.485   6.183   2.565 -0.0837 -0.7460  0.6974
11282TIP3   OH255260   0.295   2.064   5.645 -0.4605  0.1520 -0.4870
11282TIP3    H155261   0.268   2.126   5.712 -0.2863  0.5399 -0.7701
11282TIP3    H255262   0.379   2.098   5.613 -0.2969 -0.3026 -0.5529
11283TIP3   OH255263   2.903   1.607  16.175 -0.1256 -1.0192 -0.1707
11283TIP3    H155264   2.832   1.658  16.137  0.3547 -1.2102 -1.3456
11283TIP3    H255265   2.964   1.673  16.209 -0.4296 -0.8487  0.0570
11284TIP3   OH255266   2.396   2.475   0.110 -0.0368 -0.9537  0.1697
11284TIP3    H155267   2.313   2.438   0.081 -0.7803 -0.3230  1.4366
11284TIP3    H255268   2.377   2.567   0.128  1.5810 -0.0628 -2.1067
11285TIP3   OH255269   5.349   4.477  14.472  0.5958  0.5795  0.1212
11285TIP3    H155270   5.401   4.532  14.530 -0.1464  0.7652  0.6244
11285TIP3    H255271   5.400   4.472  14.392  1.3633  0.7988  0.5852
11286TIP3   OH255272   5.226   2.982   1.008 -0.3952 -0.1870  0.2290
11286TIP3    H155273   5.258   2.970   1.098 -0.3001  3.2696  0.7905
11286TIP3    H255274   5.303   3.008   0.958 -0.3761 -2.4319 -1.0315
11287TIP3   OH255275   4.132   5.211   4.174  0.0764  0.4010  0.1082
11287TIP3    H155276   4.145   5.220   4.268  0.3323  0.7572  0.0399
11287TIP3    H255277   4.199   5.266   4.135 -0.5762  0.9363 -0.2763
11288TIP3   OH255278   1.458   4.297  12.061  0.3618 -0.1442 -0.2746
11288TIP3    H155279   1.462   4.276  11.968  0.4494 -1.2760 -0.0359
11288TIP3    H255280   1.506   4.379  12.070 -0.4557  0.4772 -1.3568
11289TIP3   OH255281   1.233   1.151  11.915  0.3863  0.3267  0.2126
11289TIP3    H155282   1.143   1.148  11.947  0.3322  0.4001  0.0696
11289TIP3    H255283   1.238   1.082  11.848  0.5613  0.0239  0.5379
11290TIP3   OH255284   2.514   3.914   4.099 -0.1363  0.3966  0.7131
11290TIP3    H155285   2.477   3.955   4.020 -0.0327  1.0042  0.9720
11290TIP3    H255286   2.454   3.842   4.119  0.1964 -0.1738 -0.2931
11291TIP3   OH255287   5.519   0.936   2.653 -0.5789  0.5096 -0.2125
11291TIP3    H155288   5.514   0.944   2.557 -0.4147 -1.6710 -0.4686
11291TIP3    H255289   5.576   1.008   2.680 -1.1880  1.5875 -1.6658
11292TIP3   OH255290   5.651   6.616  13.976  0.0248 -0.0728 -0.6606
11292TIP3    H155291   5.637   6.566  14.057  1.0646  0.4051 -0.1656
11292TIP3    H255292   5.571   6.601  13.925 -1.2444  0.6589  1.0068
11293TIP3   OH255293   1.381   2.112   0.833 -0.6703  0.6695  0.3607
11293TIP3    H155294   1.435   2.105   0.754  0.7151  1.1320  1.2197
11293TIP3    H255295   1.431   2.064   0.900 -2.6377 -1.2131  0.5923
11294TIP3   OH255296   4.685   5.261   3.205 -0.2189 -0.4665  0.2970
11294TIP3    H155297   4.612   5.201   3.194 -1.6403  0.7721  2.2531
11294TIP3    H255298   4.731   5.259   3.121 -2.0532 -1.8555 -0.7493
11295TIP3   OH255299   1.119   0.477  12.461  0.3206 -0.0577 -0.2246
11295TIP3    H155300   1.131   0.404  12.523  0.4879  1.1075  1.1606
11295TIP3    H255301   1.063   0.539  12.508 -3.0021 -0.8873 -2.7553
11296TIP3   OH255302   2.161   4.662   2.027 -0.2027  0.2569 -0.2144
11296TIP3    H155303   2.099   4.735   2.034  1.3325  1.4435  2.0743
11296TIP3    H255304   2.145   4.626   1.940 -1.0038  3.3569 -1.4887
11297TIP3   OH255305   3.163   2.075   3.120  0.0935  0.5872  0.1782
11297TIP3    H155306   3.104   2.011   3.081 -0.4549  1.6480 -0.7786
11297TIP3    H255307   3.137   2.078   3.212  0.0944 -0.5097  0.2318
11298TIP3   OH255308   5.306   4.774   4.737  0.2988 -0.0732 -0.0970
11298TIP3    H155309   5.331   4.817   4.819 -0.4018 -1.9307  1.1721
11298TIP3    H255310   5.376   4.712   4.720  0.9183  0.9530 -1.4857
11299TIP3   OH255311   3.035   5.992  14.566  0.0462 -0.5197 -0.1414
11299TIP3    H155312   3.063   5.976  14.657 -2.3222  2.1038  1.2391
11299TIP3    H255313   2.986   5.914  14.541  2.7521 -2.3440 -0.2017
11300TIP3   OH255314   5.068   2.632   3.722  0.0029 -0.3337 -0.5523
11300TIP3    H155315   5.017   2.591   3.791 -0.5636 -0.8973 -1.2861
11300TIP3    H255316   5.008   2.693   3.679  0.5885  0.6461 -0.0287
11301TIP3   OH255317   3.280   1.586   1.879 -0.1578  0.1497 -0.2298
11301TIP3    H155318   3.191   1.558   1.902 -0.1247 -0.0755 -0.3723
11301TIP3    H255319   3.269   1.673   1.841 -0.5358 -0.5883 -1.9114
11302TIP3   OH255320   2.636   4.479   2.008 -0.2201 -0.2076  0.0326
11302TIP3    H155321   2.568   4.495   2.072  1.9006  0.9814  2.1406
11302TIP3    H255322   2.624   4.388   1.982 -2.1197 -0.2305  0.8485
11303TIP3   OH255323   5.361   0.955   4.651 -0.3537 -0.3038  0.4692
11303TIP3    H155324   5.356   0.873   4.603 -1.5655  0.8092 -1.4472
11303TIP3    H255325   5.439   0.998   4.615 -0.0885 -0.3336  1.0042
11304TIP3   OH255326   4.997   4.073  17.244 -0.3187  0.2212  0.1919
11304TIP3    H155327   5.022   4.106  17.158 -0.3367  0.7288  0.3838
11304TIP3    H255328   4.902   4.063  17.238 -0.2564 -0.2942 -0.0352
11305TIP3   OH255329   1.806   1.039  11.648  0.2005  0.2777 -0.3613
11305TIP3    H155330   1.855   0.958  11.661  2.0688  1.7401  3.1784
11305TIP3    H255331   1.720   1.022  11.686  0.6185 -0.0475  0.4596
11306TIP3   OH255332   0.491   3.173   2.435 -0.3545 -0.1403  0.0840
11306TIP3    H155333   0.520   3.251   2.482  0.8584  0.9515 -2.2859
11306TIP3    H255334   0.567   3.148   2.381 -1.1705 -2.1766 -0.2225
11307TIP3   OH255335   0.389   4.999   4.475  0.0795  0.0221 -0.4466
11307TIP3    H155336   0.405   5.002   4.569  3.3471  0.6835 -0.8701
11307TIP3    H255337   0.340   5.079   4.457  0.2691  0.3960  0.6017
11308TIP3   OH255338   1.862   4.222   2.761  0.0008 -0.0721  0.0829
11308TIP3    H155339   1.912   4.278   2.700 -2.8808  0.8463 -1.6298
11308TIP3    H255340   1.914   4.223   2.841  2.1536  1.6944 -1.1840
11309TIP3   OH255341   2.018   4.869  11.526 -0.1661 -0.6690 -0.2939
11309TIP3    H155342   2.084   4.816  11.571 -0.9213 -0.9032  0.5565
11309TIP3    H255343   2.056   4.957  11.523  0.3408 -0.8810 -0.1531
11310TIP3   OH255344   0.936   0.328  14.919 -0.2902  0.1223  0.1281
11310TIP3    H155345   0.986   0.256  14.958 -1.1047 -1.3249 -1.3680
11310TIP3    H255346   0.878   0.285  14.855 -0.8778  2.1027 -0.7451
11311TIP3   OH255347   0.623   6.580  11.151 -0.5456  0.1530 -0.0601
11311TIP3    H155348   0.552   6.640  11.173  0.1485  1.1795 -0.5381
11311TIP3    H255349   0.586   6.520  11.086 -1.1502  0.2708  0.1775
11312TIP3   OH255350   1.962   2.944   4.352 -0.7943 -0.4524 -0.2331
11312TIP3    H155351   1.978   2.965   4.444 -0.3165  1.8345 -0.7726
11312TIP3    H255352   2.000   2.858   4.340  4.0743  1.3005  0.5182
11313TIP3   OH255353   0.034   0.113   2.737  0.0889  0.5166 -0.3210
11313TIP3    H155354   0.055   0.066   2.817 -0.6790 -0.8707 -0.8990
11313TIP3    H255355   0.067   0.201   2.751  3.2535 -0.6278  0.1004
11314TIP3   OH255356   2.030   3.060  13.007  0.2529  0.1499  0.2271
11314TIP3    H155357   2.039   3.153  12.983 -1.1913  0.3398  0.3217
11314TIP3    H255358   1.937   3.042  12.996  0.2977 -0.9515  1.4293
11315TIP3   OH255359   5.511   6.107   4.690  0.8157 -0.1318  0.4108
11315TIP3    H155360   5.455   6.182   4.666  1.0688 -0.5886 -1.7588
11315TIP3    H255361   5.484   6.037   4.631  2.3960 -0.9442  0.6087
11316TIP3   OH255362   5.778   2.689  14.618  1.2774  0.8871  0.3037
11316TIP3    H155363   5.782   2.607  14.569  1.7052  1.6501 -1.0079
11316TIP3    H255364   5.848   2.682  14.683 -0.9778 -1.2538  2.7319
11317TIP3   OH255365   0.964   4.763  14.536  0.8629  0.1852  0.2199
11317TIP3    H155366   0.899   4.798  14.476 -0.1735  1.2584  1.8711
11317TIP3    H255367   1.048   4.780  14.494  0.1409  0.1396 -1.2730
11318TIP3   OH255368   2.100   5.677   2.569  0.6931 -0.0504  0.3028
11318TIP3    H155369   2.054   5.728   2.635 -0.3734 -0.0160 -0.4287
11318TIP3    H255370   2.188   5.714   2.567 -0.2470  2.4138 -0.7940
11319TIP3   OH255371   2.164   0.115   5.919  0.6386 -0.7857  0.2075
11319TIP3    H155372   2.200   0.056   5.852 -0.3881 -0.5974 -0.5347
11319TIP3    H255373   2.152   0.059   5.996  1.2944 -1.1397  0.0620
11320TIP3   OH255374   2.252   5.045   0.315  0.2634 -0.0015  0.3624
11320TIP3    H155375   2.230   5.138   0.302 -0.2662 -0.3192 -1.2638
11320TIP3    H255376   2.322   5.028   0.252  0.5605 -0.6434  0.8602
11321TIP3   OH255377   3.334   1.087   3.829 -0.0043 -0.6423 -0.2337
11321TIP3    H155378   3.400   1.156   3.829 -1.2798  0.6326  0.1018
11321TIP3    H255379   3.345   1.043   3.913 -1.0097  1.0540  0.8606
11322TIP3   OH255380   2.507   6.556   5.716  0.4984 -0.4505 -0.0013
11322TIP3    H155381   2.504   6.461   5.724 -0.4689 -0.4979 -0.7231
11322TIP3    H255382   2.496   6.573   5.623 -0.1292  0.3849  0.2057
11323TIP3   OH255383   6.720   4.201   3.657 -0.0082  0.1057  0.3883
11323TIP3    H155384   6.658   4.271   3.678 -1.6362 -1.1447 -0.0985
11323TIP3    H255385   6.798   4.223   3.708 -0.5894  2.0641  0.5329
11324TIP3   OH255386   2.415   1.395  14.190 -0.0513 -0.0616 -0.0345
11324TIP3    H155387   2.356   1.363  14.258  0.2370 -0.6493 -0.0522
11324TIP3    H255388   2.403   1.490  14.190 -1.5521 -0.2204 -0.5346
11325TIP3   OH255389   5.704   2.143  17.410 -0.1142 -0.4709  0.3966
11325TIP3    H155390   5.750   2.160  17.493  1.0481 -2.0678  0.1196
11325TIP3    H255391   5.727   2.053  17.388 -1.5325 -0.5278 -0.9761
11326TIP3   OH255392   5.302   3.037   1.261  0.0020 -0.1870 -0.3230
11326TIP3    H155393   5.319   3.026   1.355  0.0582  0.4325 -0.2588
11326TIP3    H255394   5.343   3.120   1.238 -1.2716  0.4021 -0.5775
11327TIP3   OH255395   2.161   6.409  11.822 -0.1867  0.2320 -0.0837
11327TIP3    H155396   2.146   6.492  11.777  2.7745  1.2409  0.5617
11327TIP3    H255397   2.195   6.351  11.755 -1.9137 -0.4085 -0.4547
11328TIP3   OH255398   0.056   1.567   5.434 -0.1710  0.3733  0.7417
11328TIP3    H155399   0.109   1.570   5.514 -1.9727 -3.7543  2.3969
11328TIP3    H255400  -0.016   1.627   5.451  0.5161  1.0432  1.3388
11329TIP3   OH255401   4.813   5.984  13.016  0.3552 -0.6546  0.4942
11329TIP3    H155402   4.771   5.907  12.978  2.3530 -0.9458 -1.3333
11329TIP3    H255403   4.906   5.962  13.017  0.8173  1.1626  1.3592
11330TIP3   OH255404   0.717   0.972  11.962  0.1415 -0.1729 -0.4956
11330TIP3    H155405   0.738   1.064  11.946  3.0804 -0.7002 -0.3327
11330TIP3    H255406   0.728   0.961  12.056  0.6113 -0.8428 -0.6210
11331TIP3   OH255407   3.676   2.366   4.488  0.1605  0.1246 -0.3473
11331TIP3    H155408   3.609   2.340   4.550 -0.7574 -1.0563 -1.7778
11331TIP3    H255409   3.641   2.445   4.445  0.7643  0.9003  0.5362
11332TIP3   OH255410   3.791   5.420   0.159  0.1158  0.4392  0.2591
11332TIP3    H155411   3.807   5.512   0.181 -1.5700  0.9763 -0.5708
11332TIP3    H255412   3.716   5.423   0.099 -1.4380 -1.6271  1.9453
11333TIP3   OH255413   6.003   3.037  11.955 -0.2407 -0.6421 -0.5577
11333TIP3    H155414   5.987   3.100  12.025  1.7988 -0.9272  0.2513
11333TIP3    H255415   6.085   3.067  11.915  0.5928 -2.5383 -0.3659
11334TIP3   OH255416   2.599   1.599  13.982  0.0923  0.1734 -0.2071
11334TIP3    H155417   2.600   1.635  14.071 -0.1966 -0.3432  0.0114
11334TIP3    H255418   2.555   1.514  13.991 -0.2960  0.2917 -0.9124
11335TIP3   OH255419   1.726   4.016  17.298  0.1199  1.0205  1.1141
11335TIP3    H155420   1.716   4.021  17.393 -1.7364 -0.3850  1.0562
11335TIP3    H255421   1.637   4.007  17.265  0.6555  2.3251 -0.8570
11336TIP3   OH255422   5.906   3.392   2.052 -0.2678  0.2267 -0.0131
11336TIP3    H155423   5.972   3.457   2.074 -0.1873  0.2805 -0.4050
11336TIP3    H255424   5.855   3.432   1.982 -0.9524  0.3395  0.5347
11337TIP3   OH255425   1.304   6.702  17.372  0.3630  0.2276 -0.2559
11337TIP3    H155426   1.364   6.633  17.343  0.9503  0.6966 -0.1598
11337TIP3    H255427   1.358   6.760  17.426  0.2226  1.5357 -1.4683
11338TIP3   OH255428   3.470   1.595  11.973 -0.8696 -0.1786  0.2399
11338TIP3    H155429   3.548   1.556  12.013  0.3416 -1.5649 -3.0839
11338TIP3    H255430   3.473   1.687  12.000  2.8580  0.2096 -0.8672
11339TIP3   OH255431   4.471   3.625   3.138  0.2356  0.1829 -0.1548
11339TIP3    H155432   4.450   3.562   3.207  1.0930  1.9998  1.8791
11339TIP3    H255433   4.547   3.587   3.094  1.4359  0.2032  1.7491
11340TIP3   OH255434   0.287   0.924  10.648  0.7273 -0.3066  0.1749
11340TIP3    H155435   0.344   0.916  10.724 -0.6431  0.2877  1.3128
11340TIP3    H255436   0.269   0.833  10.623  0.6931 -0.5319  0.9671
11341TIP3   OH255437   3.354   6.669   0.275  0.3020 -0.2759 -0.0653
11341TIP3    H155438   3.270   6.632   0.247 -0.1494  1.1446 -0.6481
11341TIP3    H255439   3.415   6.645   0.205  0.3918 -1.2538  0.3273
11342TIP3   OH255440   3.220   3.665   2.602  0.4496  0.3022  0.4466
11342TIP3    H155441   3.315   3.679   2.604  0.5237  1.2499 -2.9949
11342TIP3    H255442   3.182   3.752   2.600 -0.2287  0.0154 -1.6880
11343TIP3   OH255443   0.476   6.413  11.498 -0.3703 -0.2159 -0.1513
11343TIP3    H155444   0.476   6.321  11.525 -1.3055 -0.0306  0.5681
11343TIP3    H255445   0.568   6.438  11.497 -0.0774 -1.2548 -0.7141
11344TIP3   OH255446   5.864   1.251  14.071 -0.1866  0.2303  0.1650
11344TIP3    H155447   5.951   1.290  14.070 -1.1284  2.5654  1.1999
11344TIP3    H255448   5.851   1.225  14.162 -0.3966 -0.5382 -0.0792
11345TIP3   OH255449   0.428   5.758  14.090 -0.1991 -0.0687 -0.3080
11345TIP3    H155450   0.459   5.834  14.139 -1.3407  1.1424 -1.3730
11345TIP3    H255451   0.354   5.725  14.140  0.6970 -0.9310  0.5014
11346TIP3   OH255452   0.713   4.530   0.448 -0.0879 -0.4877  0.4979
11346TIP3    H155453   0.748   4.606   0.494 -0.8942  0.4467 -0.3659
11346TIP3    H255454   0.778   4.510   0.381  0.3873 -0.9169  1.0830
11347TIP3   OH255455   2.926   6.164  15.091 -0.7841  0.0412  0.2609
11347TIP3    H155456   2.940   6.070  15.101 -0.8477 -0.2324 -1.8653
11347TIP3    H255457   3.013   6.203  15.101  0.2232 -0.7827 -3.6846
11348TIP3   OH255458   5.837   5.627  16.542 -0.0376 -0.4800 -0.3665
11348TIP3    H155459   5.835   5.573  16.463  1.3310  0.2514 -0.9209
11348TIP3    H255460   5.846   5.717  16.510 -1.2358  0.0041  0.5782
11349TIP3   OH255461   1.776   4.582  11.380 -0.5376 -0.8035 -0.2859
11349TIP3    H155462   1.805   4.495  11.406 -0.3663 -1.2515 -1.8324
11349TIP3    H255463   1.854   4.622  11.340 -0.9341 -0.4237 -0.6921
11350TIP3   OH255464   2.579   2.876  12.540 -0.4196 -0.1619  0.2446
11350TIP3    H155465   2.497   2.919  12.516 -1.0267 -1.0074  0.7882
11350TIP3    H255466   2.561   2.834  12.624  0.3339 -1.0241 -0.0137
11351TIP3   OH255467   4.921   4.518  14.871  0.0466 -0.0059 -0.0864
11351TIP3    H155468   4.829   4.539  14.854  0.1464  1.2277  0.8178
11351TIP3    H255469   4.947   4.463  14.797 -0.7980  1.4888 -1.5646
11352TIP3   OH255470   6.333   6.188   3.077  0.4331 -0.2452 -0.1634
11352TIP3    H155471   6.299   6.118   3.133  1.2268  1.7715  3.0846
11352TIP3    H255472   6.306   6.269   3.120  4.3119  1.4672 -0.5491
11353TIP3   OH255473   0.574   3.381   1.612 -0.2153 -0.6009  0.5465
11353TIP3    H155474   0.527   3.298   1.621 -0.6692 -0.3980  0.1551
11353TIP3    H255475   0.665   3.356   1.597 -0.4027 -1.0404  0.1033
11354TIP3   OH255476   3.698   5.448  16.615 -0.5646 -0.0163 -0.0176
11354TIP3    H155477   3.658   5.511  16.555  1.2005 -1.5563 -3.0415
11354TIP3    H255478   3.790   5.475  16.620 -0.3109 -0.9435  0.5643
11355TIP3   OH255479   5.765   3.509   5.820 -0.6948 -0.6689  0.0590
11355TIP3    H155480   5.705   3.508   5.745  0.8352  0.4206 -1.2199
11355TIP3    H255481   5.734   3.582   5.874 -0.1053  0.3772 -0.9776
11356TIP3   OH255482   2.303   3.482   4.321  0.4645 -0.4213  0.2534
11356TIP3    H155483   2.372   3.548   4.318  0.2707 -0.1608  1.1847
11356TIP3    H255484   2.301   3.445   4.233 -0.0643  1.4878 -0.5876
11357TIP3   OH255485   0.138   0.822  14.688 -0.1021  0.4792  0.4623
11357TIP3    H155486   0.206   0.882  14.659 -0.0603  0.2149 -0.0071
11357TIP3    H255487   0.178   0.735  14.682 -0.3139  0.3643  0.6715
11358TIP3   OH255488   2.761   1.963   0.365 -0.1780  0.9269  0.0859
11358TIP3    H155489   2.732   1.988   0.278 -1.4731 -0.1049  0.1856
11358TIP3    H255490   2.749   1.868   0.368  0.2040  0.8940  1.2603
11359TIP3   OH255491   3.918   4.444   2.747  0.7264 -0.1333 -0.2432
11359TIP3    H155492   3.874   4.527   2.765  1.7479  0.4153 -0.2041
11359TIP3    H255493   3.856   4.395   2.693  0.4032  0.9445 -0.8757
11360TIP3   OH255494   5.969   4.792  14.765  0.3724 -0.2028 -0.7125
11360TIP3    H155495   5.906   4.816  14.833 -1.7498 -0.6955 -2.3684
11360TIP3    H255496   6.055   4.806  14.805 -0.6971  3.6464  0.6433
11361TIP3   OH255497   5.878   0.601  16.377 -0.4143  0.3381 -0.5940
11361TIP3    H155498   5.922   0.527  16.420 -1.2508  0.2046  0.0721
11361TIP3    H255499   5.946   0.643  16.325  0.3046 -0.3232 -0.2090
11362TIP3   OH255500   0.672   5.041  15.886 -0.0295  0.3959 -0.0283
11362TIP3    H155501   0.720   5.044  15.969  0.0077 -0.4856 -0.0089
11362TIP3    H255502   0.668   4.948  15.864 -0.1617  0.6092 -0.9472
11363TIP3   OH255503   5.329   2.713   3.661 -0.1488  0.1298  0.5929
11363TIP3    H155504   5.381   2.637   3.633  2.5281  1.0299  2.7450
11363TIP3    H255505   5.249   2.675   3.697  0.9848 -1.6710  1.3277
11364TIP3   OH255506   0.373   3.419  16.833  1.0302  0.4603  0.1702
11364TIP3    H155507   0.313   3.354  16.869  1.1101 -0.0010 -0.5089
11364TIP3    H255508   0.361   3.413  16.739  2.4845  0.0202 -0.0089
11365TIP3   OH255509   2.331   3.064   2.544  0.1514 -0.1177  0.8242
11365TIP3    H155510   2.324   3.050   2.450  0.4437 -0.1776  0.8108
11365TIP3    H255511   2.253   3.022   2.580  0.7273 -1.3010  0.7333
11366TIP3   OH255512   3.002   6.252  13.378 -0.0233 -0.3305 -0.1902
11366TIP3    H155513   3.048   6.170  13.391  0.4785 -0.5487 -2.7834
11366TIP3    H255514   2.993   6.259  13.283 -1.5562  1.7963  0.0487
11367TIP3   OH255515   4.609   6.176  13.461  0.0090  0.0536 -0.1008
11367TIP3    H155516   4.680   6.236  13.439  0.0715 -0.8356 -2.6467
11367TIP3    H255517   4.627   6.149  13.551  2.7120  0.1096 -0.5377
11368TIP3   OH255518   2.083   2.003   5.989  0.6809  0.8679  0.1158
11368TIP3    H155519   1.994   1.999   6.025  0.6701 -0.1800  0.0052
11368TIP3    H255520   2.138   2.021   6.065  0.4245  1.0688  0.2580
11369TIP3   OH255521   0.272   0.681   3.365 -0.2918  0.3171 -0.1164
11369TIP3    H155522   0.309   0.745   3.426 -0.4378 -0.4524  0.8133
11369TIP3    H255523   0.276   0.598   3.413  0.2407 -0.4417 -1.4371
11370TIP3   OH255524   4.913   5.316  17.389 -0.2148 -0.3479 -0.6579
11370TIP3    H155525   4.865   5.385  17.435  0.7773  0.2921 -0.5637
11370TIP3    H255526   4.866   5.235  17.413  0.1468 -0.0334  1.3476
11371TIP3   OH255527   0.778   5.300   3.113 -0.1339  0.1913  0.2501
11371TIP3    H155528   0.718   5.292   3.187  0.1902 -3.0423  0.3225
11371TIP3    H255529   0.743   5.240   3.047  0.3988  1.8845 -1.6757
11372TIP3   OH255530   1.848   0.776  14.464  0.1944  0.3067 -0.2679
11372TIP3    H155531   1.865   0.686  14.491  0.2837  0.0289 -1.2219
11372TIP3    H255532   1.753   0.786  14.473 -0.1082 -0.5423 -2.0418
11373TIP3   OH255533   5.533   2.978  15.367 -0.3335 -0.0241  0.4122
11373TIP3    H155534   5.523   2.984  15.462 -1.2731 -1.4320  0.4361
11373TIP3    H255535   5.446   2.996  15.333 -0.4334 -1.3551 -0.0686
11374TIP3   OH255536   6.167   4.345  14.102  0.1875 -0.2207  0.1541
11374TIP3    H155537   6.241   4.348  14.163 -0.3324  0.9065  0.7545
11374TIP3    H255538   6.090   4.347  14.158 -0.3040 -0.4147 -0.5078
11375TIP3   OH255539   1.947   4.930  12.171  0.2596  0.0224 -0.4482
11375TIP3    H155540   1.957   4.944  12.077  0.2336 -0.7914 -0.5812
11375TIP3    H255541   1.995   4.849  12.188  1.2260  0.7556  0.4403
11376TIP3   OH255542   3.380   3.535   5.487 -0.1760 -0.4377 -0.8196
11376TIP3    H155543   3.405   3.536   5.579 -2.4148 -0.5485 -0.1456
11376TIP3    H255544   3.410   3.619   5.453 -1.6956  0.8209  0.7532
11377TIP3   OH255545   6.625   0.063  11.855 -0.7102 -0.3393 -0.5801
11377TIP3    H155546   6.618   0.113  11.774  1.0968  1.9606  0.5636
11377TIP3    H255547   6.710   0.018  11.849 -0.4306  0.0705  0.1176
11378TIP3   OH255548   2.870   6.682  16.054 -0.0200  0.6948  0.3466
11378TIP3    H155549   2.843   6.674  16.145  0.8963 -1.6224  0.4759
11378TIP3    H255550   2.952   6.632  16.048  0.8032  2.1324 -1.4110
11379TIP3   OH255551   6.601   4.088   0.188 -0.7613  0.0778  0.1417
11379TIP3    H155552   6.521   4.049   0.154 -0.1869 -1.3778  0.4032
11379TIP3    H255553   6.635   4.024   0.250  1.3973 -0.0416 -1.0552
11380TIP3   OH255554   1.613   2.248   6.429 -0.1205  0.2270 -0.2433
11380TIP3    H155555   1.576   2.307   6.495 -0.7160  0.4830 -0.7939
11380TIP3    H255556   1.695   2.217   6.468 -1.2722 -0.9769  1.3480
11381TIP3   OH255557   3.582   6.617   1.120  0.3410  0.2853  0.5490
11381TIP3    H155558   3.487   6.616   1.130  0.3771  1.6502  1.2546
11381TIP3    H255559   3.613   6.539   1.168 -0.4378 -0.4734 -0.1529
11382TIP3   OH255560   3.653   5.760   1.649 -0.2204 -0.1404 -0.3264
11382TIP3    H155561   3.687   5.843   1.683  1.4912 -0.1222 -1.9638
11382TIP3    H255562   3.637   5.776   1.557 -0.7253 -1.3852 -0.4766
11383TIP3   OH255563   5.330   4.306  12.074 -0.3351 -0.8023  0.1852
11383TIP3    H155564   5.343   4.238  12.141  0.6557 -1.3444 -0.5388
11383TIP3    H255565   5.286   4.377  12.121 -2.0866 -2.2126  0.8001
11384TIP3   OH255566   0.754   5.928  17.373 -0.1601  0.3057 -0.4543
11384TIP3    H155567   0.775   5.847  17.328 -2.0569  0.2815 -1.3880
11384TIP3    H255568   0.747   5.993  17.303  0.0371  0.9829  0.1471
11385TIP3   OH255569   2.480   2.596  12.597  0.4725  0.0493  0.1837
11385TIP3    H155570   2.566   2.617  12.560  0.3551 -0.0948 -0.1666
11385TIP3    H255571   2.497   2.523  12.657  0.6751  0.3384  0.4805
11386TIP3   OH255572   5.779   5.996   3.040 -0.7867 -0.0702 -0.1358
11386TIP3    H155573   5.857   6.023   3.088  0.0623 -0.9530 -0.9620
11386TIP3    H255574   5.761   5.908   3.073  0.1865 -0.9480 -1.8230
11387TIP3   OH255575   0.533   2.586  12.146 -0.2837  0.2617  0.2300
11387TIP3    H155576   0.541   2.609  12.054 -0.1460 -0.1315  0.1447
11387TIP3    H255577   0.612   2.535  12.165  1.5614  3.2947  1.4583
11388TIP3   OH255578   3.878   3.163  13.312 -0.2490  0.5858  0.0930
11388TIP3    H155579   3.791   3.126  13.301 -0.8973  1.8575  0.7405
11388TIP3    H255580   3.935   3.107  13.259 -1.3543 -0.6077  0.1205
11389TIP3   OH255581   0.039   1.852   5.208  0.1754 -0.9162 -0.5241
11389TIP3    H155582   0.037   1.941   5.244  1.9149 -0.0808 -2.3235
11389TIP3    H255583   0.126   1.820   5.228  0.0975 -1.6044 -1.2539
11390TIP3   OH255584   2.030   6.643   5.359 -0.8466  0.1197  0.6683
11390TIP3    H155585   2.071   6.686   5.284 -0.7095  1.4691  1.4928
11390TIP3    H255586   2.040   6.704   5.431 -1.5020 -0.8972  1.6661
11391TIP3   OH255587   6.021   5.351  16.820  0.3116 -0.5197  0.5207
11391TIP3    H155588   6.094   5.409  16.798 -0.1262  0.0228  0.4863
11391TIP3    H255589   5.973   5.397  16.889 -0.3521 -0.5849  0.1120
11392TIP3   OH255590   3.403   4.548  11.398  0.1575 -0.0270 -0.0581
11392TIP3    H155591   3.416   4.472  11.342 -0.7788 -0.5395  0.3811
11392TIP3    H255592   3.449   4.619  11.354  0.3151 -0.6507 -0.9264
11393TIP3   OH255593   4.804   5.419   5.744  0.2401  0.2035 -0.0929
11393TIP3    H155594   4.741   5.490   5.757  0.5149  0.3967  0.1956
11393TIP3    H255595   4.753   5.339   5.760  0.1449  0.3703  0.4595
11394TIP3   OH255596   5.359   5.314   0.934 -0.0588  0.2218  0.0147
11394TIP3    H155597   5.270   5.332   0.965  0.4468  0.0109  1.6894
11394TIP3    H255598   5.392   5.398   0.904 -0.8492  0.2878 -0.6894
11395TIP3   OH255599   2.926   1.426   3.869  0.5891 -0.2605  0.0441
11395TIP3    H155600   2.946   1.355   3.930 -1.5150 -0.5605  0.4785
11395TIP3    H255601   2.855   1.391   3.815  0.3587  1.0828 -0.5623
11396TIP3   OH255602   6.652   3.707  12.749  0.3136  0.4814 -0.3357
11396TIP3    H155603   6.694   3.642  12.805  0.4674  0.5789 -0.3378
11396TIP3    H255604   6.676   3.791  12.787 -0.2775  0.5260 -0.0558
11397TIP3   OH255605   5.772   2.744   0.776 -0.5698  0.3701 -0.1725
11397TIP3    H155606   5.734   2.822   0.816 -0.6393  0.5948 -0.6740
11397TIP3    H255607   5.858   2.772   0.746 -0.7297  0.3412 -0.6555
11398TIP3   OH255608   3.715   5.905   5.531 -0.2619 -0.1058  0.4032
11398TIP3    H155609   3.708   5.999   5.520  0.0298 -0.2076 -0.8207
11398TIP3    H255610   3.790   5.880   5.478  2.3141 -0.5346  3.9019
11399TIP3   OH255611   2.415   2.195  16.344 -0.2551  0.1342  0.0479
11399TIP3    H155612   2.399   2.101  16.337 -1.1653  0.0976  1.9393
11399TIP3    H255613   2.494   2.210  16.291  0.2377 -1.7886  0.1577
11400TIP3   OH255614   3.541   0.577  12.692  0.7125 -0.3588  0.2081
11400TIP3    H155615   3.585   0.516  12.751 -0.3437  0.1118  1.5247
11400TIP3    H255616   3.548   0.662  12.735 -0.6276 -0.1148 -0.0156
11401TIP3   OH255617   6.374   1.457  15.132  0.1374 -0.5663  0.2094
11401TIP3    H155618   6.294   1.498  15.166  0.3823 -0.0878  0.2192
11401TIP3    H255619   6.429   1.531  15.105 -0.1653 -0.9269 -1.5295
11402TIP3   OH255620   3.955   4.580  13.702 -0.3444 -0.2808 -0.7536
11402TIP3    H155621   4.011   4.511  13.666 -0.1430  0.5414 -2.0712
11402TIP3    H255622   4.008   4.622  13.769 -0.8598 -2.0811  0.8925
11403TIP3   OH255623   3.203   5.643   3.058  0.0943 -0.2685  0.0217
11403TIP3    H155624   3.109   5.629   3.047 -0.1306  1.6583 -0.9994
11403TIP3    H255625   3.212   5.672   3.149 -0.9007  3.1193 -0.8088
11404TIP3   OH255626   5.872   6.136  16.803 -0.4282 -0.3269  0.4802
11404TIP3    H155627   5.950   6.104  16.757  1.3043  2.6709  1.0287
11404TIP3    H255628   5.804   6.138  16.736  0.2258 -1.9961 -0.2994
11405TIP3   OH255629   2.130   4.283   1.996  0.1593 -0.1111  0.1804
11405TIP3    H155630   2.043   4.298   2.034  0.0391  0.8178 -0.4205
11405TIP3    H255631   2.166   4.371   1.984  0.9129 -0.4642 -0.1997
11406TIP3   OH255632   2.576   3.465   3.885 -0.2678 -0.4144  0.0356
11406TIP3    H155633   2.572   3.470   3.980  2.5486  1.1113  0.1722
11406TIP3    H255634   2.595   3.373   3.867  2.0090 -0.2249  1.1878
11407TIP3   OH255635   2.041   3.274  11.351 -0.3589 -0.7727 -0.0617
11407TIP3    H155636   2.069   3.191  11.314 -0.0799 -0.3658 -0.7832
11407TIP3    H255637   2.121   3.311  11.389 -0.4917 -0.8548  0.2992
11408TIP3   OH255638   2.677   6.752   5.783  0.2628  0.8964  0.3680
11408TIP3    H155639   2.611   6.686   5.760  1.3852 -1.0266  2.3485
11408TIP3    H255640   2.628   6.834   5.784 -1.9324 -0.3286  0.8984
11409TIP3   OH255641   6.376   6.246   6.028  0.4162  0.3559  0.3919
11409TIP3    H155642   6.348   6.235   5.937  1.8616 -0.8440  0.0530
11409TIP3    H255643   6.368   6.159   6.066  0.5185  0.6965  1.2044
11410TIP3   OH255644   5.628   5.059   6.066 -0.4553  0.2086  0.0254
11410TIP3    H155645   5.612   4.966   6.049  1.5051 -0.7261  2.6716
11410TIP3    H255646   5.668   5.061   6.153 -0.9909  3.6200  0.3203
11411TIP3   OH255647   3.104   2.580  13.154  0.4054  0.0567  0.2029
11411TIP3    H155648   3.073   2.646  13.217  0.3708 -0.1990  0.4549
11411TIP3    H255649   3.070   2.497  13.187  0.4747 -0.0941 -0.0972
11412TIP3   OH255650   0.429   0.848   0.298  1.0353 -0.5978 -0.5569
11412TIP3    H155651   0.337   0.873   0.289  1.1268 -0.4134 -1.0259
11412TIP3    H255652   0.430   0.789   0.373  0.9728  1.6259  1.3298
11413TIP3   OH255653   5.937   0.001  12.820 -0.3051  0.1297  0.3163
11413TIP3    H155654   5.999  -0.036  12.758 -1.1183 -2.1343  0.7551
11413TIP3    H255655   5.855   0.008  12.771 -0.4919  0.1203  0.6216
11414TIP3   OH255656   2.393   3.410  15.236  0.1008  0.4046 -0.2876
11414TIP3    H155657   2.310   3.449  15.264 -0.1817 -1.3007  1.4852
11414TIP3    H255658   2.372   3.364  15.155 -1.2491 -1.6149  1.1079
11415TIP3   OH255659   6.615   0.522   4.546  0.5442 -0.7082 -0.3300
11415TIP3    H155660   6.616   0.428   4.560  0.7598 -0.6988 -0.2736
11415TIP3    H255661   6.570   0.534   4.462 -0.2964 -0.7986  0.0974
11416TIP3   OH255662   3.618   3.447  14.500  0.4704 -0.2174 -0.0811
11416TIP3    H155663   3.662   3.532  14.502  1.3046 -0.6437  0.8901
11416TIP3    H255664   3.533   3.464  14.461  0.9902  0.8896 -0.7576
11417TIP3   OH255665   1.277   3.817   6.139 -0.0455 -0.6434 -0.1108
11417TIP3    H155666   1.331   3.822   6.060  0.1433  2.6158  0.1280
11417TIP3    H255667   1.336   3.782   6.206  0.4939 -1.1105 -0.8155
11418TIP3   OH255668   6.408   5.703   3.351  0.0589  0.3285  0.5071
11418TIP3    H155669   6.328   5.701   3.300  0.9011  2.0287 -0.9863
11418TIP3    H255670   6.380   5.681   3.440 -1.8490 -0.2101 -0.1735
11419TIP3   OH255671   5.543   4.378  11.885  0.1673 -0.1022 -0.7986
11419TIP3    H155672   5.498   4.462  11.881 -0.1153 -0.2329 -0.4386
11419TIP3    H255673   5.494   4.328  11.950 -1.2582 -1.4579 -2.7687
11420TIP3   OH255674   0.524   5.819   5.405  0.2959  0.5019  0.5054
11420TIP3    H155675   0.490   5.840   5.492  1.0878 -0.2541  1.0113
11420TIP3    H255676   0.447   5.795   5.354  0.0406 -1.3885  1.6900
11421TIP3   OH255677   1.936   1.102   0.434  0.0403  0.3653 -0.0067
11421TIP3    H155678   2.012   1.086   0.491  2.1341  0.3872 -2.6228
11421TIP3    H255679   1.955   1.185   0.392  0.3156 -1.1752 -3.2171
11422TIP3   OH255680   3.423   0.941  14.041 -0.3036 -0.4657  0.0461
11422TIP3    H155681   3.436   1.033  14.017  1.4372  0.0686  2.7255
11422TIP3    H255682   3.344   0.942  14.095  0.0725 -0.4456  0.5940
11423TIP3   OH255683   1.010   2.359  12.655  0.1395 -0.3373 -0.1233
11423TIP3    H155684   0.998   2.451  12.676 -0.2489 -0.9429  2.7135
11423TIP3    H255685   0.979   2.312  12.733  0.6675 -2.8623 -1.3215
11424TIP3   OH255686   0.140   1.042  13.381  1.1944  0.4699 -0.2125
11424TIP3    H155687   0.082   1.041  13.457  0.0522  0.9463 -1.0361
11424TIP3    H255688   0.168   1.134  13.374 -0.7599  1.0070 -1.8123
11425TIP3   OH255689   2.480   4.976  12.862 -0.1448 -0.2836 -0.8969
11425TIP3    H155690   2.568   4.970  12.827  0.9743  1.2374  1.3959
11425TIP3    H255691   2.455   5.068  12.852  0.8702  0.6581  3.3114
11426TIP3   OH255692   2.191   2.433  16.132 -0.7303  0.4461 -0.0361
11426TIP3    H155693   2.174   2.424  16.038 -1.3360  0.3229  0.0818
11426TIP3    H255694   2.173   2.526  16.151  2.6305  1.3654 -0.6709
11427TIP3   OH255695   1.795   3.989  14.465  0.3256  0.4713 -0.7996
11427TIP3    H155696   1.877   4.038  14.455 -0.2283  1.1266 -2.6865
11427TIP3    H255697   1.784   3.978  14.559  1.8366  1.6668 -0.4472
11428TIP3   OH255698   0.392   2.323   4.912  0.1779  0.7685  0.1919
11428TIP3    H155699   0.319   2.383   4.903  0.9098  1.7460  0.6620
11428TIP3    H255700   0.429   2.316   4.824  1.1346  2.3742  0.4340
11429TIP3   OH255701   1.620   4.808   3.366 -0.2800  0.0687 -0.0700
11429TIP3    H155702   1.594   4.866   3.294  0.8675  0.5409 -0.1298
11429TIP3    H255703   1.622   4.865   3.443 -1.6039 -0.4571  0.3757
11430TIP3   OH255704   4.634   3.587   2.370  0.2410 -0.7023 -0.0378
11430TIP3    H155705   4.675   3.541   2.297 -0.1001 -1.5977  0.3159
11430TIP3    H255706   4.566   3.640   2.330 -0.0093 -1.2641 -0.3745
11431TIP3   OH255707   3.106   5.378  15.083  0.6102 -0.1835  0.1542
11431TIP3    H155708   3.136   5.287  15.078 -4.1961 -1.9925 -1.5994
11431TIP3    H255709   3.053   5.381  15.163 -1.0209  0.3518 -0.9053
11432TIP3   OH255710   4.394   5.315  16.497 -0.3529  0.3691  0.8014
11432TIP3    H155711   4.410   5.375  16.570  1.5261  0.4154  0.3915
11432TIP3    H255712   4.437   5.356  16.422 -1.8462  0.0927 -0.2634
11433TIP3   OH255713   0.129   1.525  15.578 -0.5570 -0.3359 -0.5514
11433TIP3    H155714   0.200   1.572  15.534 -0.7914 -0.2959 -0.8913
11433TIP3    H255715   0.073   1.593  15.614  0.1613 -0.3756  0.6739
11434TIP3   OH255716   2.333   5.704   4.552 -0.2093  0.4241 -0.3353
11434TIP3    H155717   2.291   5.620   4.573  0.3517 -0.0531 -1.0673
11434TIP3    H255718   2.321   5.713   4.457  0.4082  0.7917 -0.3827
11435TIP3   OH255719   2.364   6.684  15.189  0.0781  0.3710 -0.0454
11435TIP3    H155720   2.366   6.772  15.228  2.3331 -0.4050  1.7809
11435TIP3    H255721   2.456   6.661  15.176 -0.4959 -0.8812 -2.6629
11436TIP3   OH255722   4.416   2.583   6.276 -0.7968 -0.5600  0.1663
11436TIP3    H155723   4.488   2.539   6.320 -0.4332 -0.2857 -0.1541
11436TIP3    H255724   4.408   2.667   6.320 -0.9627 -0.6089  0.2349
11437TIP3   OH255725   0.244   1.052  15.614 -0.6084  0.3305 -0.3000
11437TIP3    H155726   0.183   1.034  15.542  0.3277 -1.9348 -0.6232
11437TIP3    H255727   0.198   1.024  15.693 -0.4205 -0.2758 -0.4051
11438TIP3   OH255728   1.355   3.320  13.115 -0.6458  0.6141 -0.2892
11438TIP3    H155729   1.351   3.227  13.140  1.6823 -0.1604 -2.3258
11438TIP3    H255730   1.415   3.359  13.179 -0.1707  0.2588 -0.5099
11439TIP3   OH255731   2.978   6.541   2.147  0.4028 -0.2257 -0.7203
11439TIP3    H155732   2.930   6.624   2.138  0.7388 -0.2209 -3.4216
11439TIP3    H255733   2.910   6.474   2.143  0.3267 -0.1225 -1.4245
11440TIP3   OH255734   4.858   5.111   4.473  0.1072 -0.1858 -0.5133
11440TIP3    H155735   4.884   5.201   4.493 -0.2057  0.3003 -2.1270
11440TIP3    H255736   4.763   5.114   4.469  0.0067 -0.9157  0.7215
11441TIP3   OH255737   5.565   1.365   0.210  0.4072 -0.0837  0.3439
11441TIP3    H155738   5.531   1.452   0.188 -1.2726 -0.1163  2.4328
11441TIP3    H255739   5.655   1.381   0.237  1.2362  0.4689 -2.3983
11442TIP3   OH255740   6.493   5.771   4.308  0.1202 -0.5105 -0.1498
11442TIP3    H155741   6.441   5.755   4.387  0.1881 -2.2820 -0.4262
11442TIP3    H255742   6.481   5.865   4.291  1.1401  0.2317  2.6454
11443TIP3   OH255743   6.716   4.623   3.636 -0.0978 -0.1943 -0.4794
11443TIP3    H155744   6.668   4.543   3.659  2.1892 -1.6057 -0.2071
11443TIP3    H255745   6.745   4.658   3.720 -0.6328  0.6351 -0.6348
11444TIP3   OH255746   0.644   5.402  15.583  0.3890 -0.1104  0.3290
11444TIP3    H155747   0.669   5.448  15.503  1.2702 -1.1918 -0.0412
11444TIP3    H255748   0.636   5.471  15.649  0.2226  0.7249 -0.5558
11445TIP3   OH255749   1.785   1.760   0.178 -0.1979 -0.0001 -0.6156
11445TIP3    H155750   1.771   1.791   0.088 -3.0554  0.9478  0.0269
11445TIP3    H255751   1.838   1.828   0.219  0.2247  0.0841 -1.2858
11446TIP3   OH255752   2.412   2.977   2.154  0.0382  0.5432 -0.0797
11446TIP3    H155753   2.464   3.005   2.078 -0.8917  2.0184 -0.2110
11446TIP3    H255754   2.373   3.058   2.187 -0.4682 -0.2368  1.3120
11447TIP3   OH255755   0.683   6.246   3.006  0.0773 -0.7022  0.0807
11447TIP3    H155756   0.664   6.235   3.099 -1.1210  0.2179 -0.0348
11447TIP3    H255757   0.690   6.157   2.972  1.5412 -1.0603  1.2242
11448TIP3   OH255758   2.622   5.728   4.628 -0.5699 -0.4423  0.2966
11448TIP3    H155759   2.532   5.697   4.616 -0.6548 -1.9579  3.7414
11448TIP3    H255760   2.612   5.811   4.676 -0.1820 -1.1506  1.6555
11449TIP3   OH255761   5.301   5.086   1.095 -0.2292  0.9905 -0.3611
11449TIP3    H155762   5.359   5.014   1.068  0.7414  0.9273  1.6831
11449TIP3    H255763   5.345   5.165   1.064 -0.0438  0.8280 -0.5156
11450TIP3   OH255764   4.580   2.162   4.238 -0.4524 -0.2208  0.1441
11450TIP3    H155765   4.624   2.246   4.252 -0.0478 -0.2791 -0.7244
11450TIP3    H255766   4.510   2.182   4.176 -1.0329 -0.3229  0.7557
11451TIP3   OH255767   6.751   0.634   1.356 -0.0436  0.0536 -0.5246
11451TIP3    H155768   6.721   0.594   1.438  1.0552 -0.5262 -0.3975
11451TIP3    H255769   6.843   0.608   1.348 -0.4640 -1.0448 -2.6239
11452TIP3   OH255770   0.675   3.431   3.771  0.2965  0.1067  0.1414
11452TIP3    H155771   0.606   3.475   3.820 -0.0986  0.8967 -1.0793
11452TIP3    H255772   0.654   3.448   3.680  1.7936 -0.1370 -0.2692
11453TIP3   OH255773   0.226   5.184   3.218 -0.3212 -0.1236  0.3200
11453TIP3    H155774   0.222   5.144   3.132 -1.2177 -2.2069  1.2722
11453TIP3    H255775   0.224   5.111   3.280  1.2345  1.2362  2.1300
11454TIP3   OH255776   3.565   5.352  13.293 -0.4594 -0.2880  0.2779
11454TIP3    H155777   3.635   5.316  13.240  0.5306  1.7103  0.1307
11454TIP3    H255778   3.534   5.428  13.244  0.1577  1.3436  2.2380
11455TIP3   OH255779   3.173   2.078  16.125 -0.1111 -0.0398  0.2702
11455TIP3    H155780   3.257   2.121  16.144  0.1660 -0.3598 -0.2146
11455TIP3    H255781   3.165   2.082  16.030 -0.2452 -0.7567  0.2478
11456TIP3   OH255782   6.559   4.843   0.831 -0.1794  0.2180 -0.2912
11456TIP3    H155783   6.571   4.853   0.737  1.3078 -1.9988 -0.4236
11456TIP3    H255784   6.643   4.809   0.863 -0.2335  2.0421  2.0701
11457TIP3   OH255785   2.690   0.395  17.296 -0.2696 -0.3359 -0.3263
11457TIP3    H155786   2.762   0.373  17.236  1.5149 -0.7871  1.8792
11457TIP3    H255787   2.697   0.490  17.307 -1.1700 -0.1087 -1.4417
11458TIP3   OH255788   1.769   0.257   6.021  0.0211 -0.2028 -0.1022
11458TIP3    H155789   1.783   0.176   6.070 -0.5164 -0.4650 -0.3766
11458TIP3    H255790   1.805   0.238   5.934  0.2112 -0.0234 -0.0645
11459TIP3   OH255791   0.847   2.817   3.819  0.1163  0.4333 -0.2770
11459TIP3    H155792   0.756   2.830   3.846 -0.3869 -0.8975 -1.2505
11459TIP3    H255793   0.878   2.743   3.872  0.9037  1.3278  0.5788
11460TIP3   OH255794   0.899   3.798  11.757 -0.0494 -0.1437 -0.0365
11460TIP3    H155795   0.994   3.788  11.760  0.1832  1.7537 -0.1027
11460TIP3    H255796   0.870   3.771  11.845  0.5070 -0.9454 -0.0893
11461TIP3   OH255797   4.727   3.667  12.785  0.5334  0.5260  0.3221
11461TIP3    H155798   4.777   3.618  12.721  0.8554 -0.1406  1.0684
11461TIP3    H255799   4.656   3.608  12.812  0.1960  0.9244  0.3322
11462TIP3   OH255800   3.194   3.400   1.029  0.0334 -0.4804 -0.0350
11462TIP3    H155801   3.203   3.307   1.050  1.2857 -0.6400 -1.1266
11462TIP3    H255802   3.112   3.405   0.980  1.1507 -1.5133 -2.2016
11463TIP3   OH255803   3.863   2.202  16.511 -0.2144 -0.6333  0.0024
11463TIP3    H155804   3.848   2.131  16.448  0.4055 -0.7694  0.0065
11463TIP3    H255805   3.801   2.270  16.484  1.7323  0.3478 -2.3674
11464TIP3   OH255806   6.337   5.664  17.180 -0.0447 -0.5293 -0.5735
11464TIP3    H155807   6.432   5.656  17.176  0.0349 -0.2022  0.3950
11464TIP3    H255808   6.306   5.576  17.201  0.2102 -0.2253  1.2331
11465TIP3   OH255809   3.302   4.520  12.397  0.2854  0.0321 -0.2505
11465TIP3    H155810   3.279   4.474  12.477  1.2381  0.9066  0.5560
11465TIP3    H255811   3.338   4.604  12.426  2.4862 -0.3977 -1.4597
11466TIP3   OH255812   3.925   0.027  11.204 -0.0853  0.1215  0.1841
11466TIP3    H155813   3.956   0.012  11.115 -0.5528  1.8896 -0.3056
11466TIP3    H255814   3.922  -0.061  11.243 -0.7399 -0.8032 -1.8113
11467TIP3   OH255815   0.907   1.238   3.282  1.0799 -0.2379  0.0240
11467TIP3    H155816   0.954   1.156   3.270  1.5086  0.1114 -0.6622
11467TIP3    H255817   0.963   1.305   3.244  0.4441  0.3001  0.0152
11468TIP3   OH255818   4.835   6.503  12.885 -0.6644  0.0592 -0.2713
11468TIP3    H155819   4.831   6.518  12.980 -0.8134  1.2179 -0.4479
11468TIP3    H255820   4.878   6.418  12.876 -1.5303 -0.5161  0.8660
11469TIP3   OH255821   1.620   6.381   2.499  0.3423  0.3652 -0.5616
11469TIP3    H155822   1.644   6.292   2.476  1.1815  0.7301 -1.1558
11469TIP3    H255823   1.617   6.428   2.416 -0.4024  0.8264 -0.2899
11470TIP3   OH255824   6.306   5.550  16.153  0.3308  0.1652 -0.4360
11470TIP3    H155825   6.321   5.462  16.189 -1.5633 -0.8115 -1.9031
11470TIP3    H255826   6.387   5.597  16.173  1.3390 -1.8406  0.5513
11471TIP3   OH255827   2.878   2.792  14.188 -0.1728 -0.6611 -0.1684
11471TIP3    H155828   2.816   2.824  14.254 -1.0478 -2.2632 -0.1493
11471TIP3    H255829   2.961   2.835  14.209 -1.2963  1.6998 -0.3223
11472TIP3   OH255830   3.692   6.741   5.582 -0.0233  0.1415  0.0370
11472TIP3    H155831   3.621   6.683   5.609  1.0538 -1.4481 -0.4109
11472TIP3    H255832   3.753   6.741   5.656  0.8580 -0.7910 -0.6599
11473TIP3   OH255833   0.530   5.770  10.776  0.3650 -0.3314 -0.1640
11473TIP3    H155834   0.586   5.824  10.721  3.3703 -1.9199  1.0801
11473TIP3    H255835   0.559   5.787  10.865 -0.2272 -2.1762  0.4373
11474TIP3   OH255836   2.562   3.451   2.666 -0.4728 -0.6363 -0.9199
11474TIP3    H155837   2.611   3.507   2.607  0.5632 -1.0022 -0.4266
11474TIP3    H255838   2.477   3.494   2.675 -0.1862  0.1053 -1.6425
11475TIP3   OH255839   3.816   5.070   1.666 -0.2314 -0.1131 -0.2999
11475TIP3    H155840   3.872   5.083   1.743 -0.8438  1.3895 -0.0672
11475TIP3    H255841   3.828   4.978   1.642 -0.3110 -0.7103  1.8130
11476TIP3   OH255842   4.353   2.058   6.062 -0.3604  0.3409  0.2642
11476TIP3    H155843   4.264   2.039   6.091 -0.0450  1.9657  2.5450
11476TIP3    H255844   4.409   2.029   6.134  0.6587  2.3089  0.3556
11477TIP3   OH255845   1.444   5.897  15.609  0.0066  0.2023 -0.1748
11477TIP3    H155846   1.377   5.874  15.673  1.8692  0.9192  2.1710
11477TIP3    H255847   1.496   5.818  15.598 -0.1784  0.1432 -0.6721
11478TIP3   OH255848   4.201   5.196   5.834  0.3407 -0.0611 -0.3112
11478TIP3    H155849   4.113   5.206   5.872 -0.0839 -1.5699 -0.8357
11478TIP3    H255850   4.217   5.279   5.789 -0.9145  0.1578 -0.3894
11479TIP3   OH255851   2.952   1.333   2.346 -0.1273  0.1837 -0.4237
11479TIP3    H155852   3.024   1.322   2.285 -0.1502 -0.1622 -0.3905
11479TIP3    H255853   2.881   1.279   2.311  0.2663 -1.0094  0.5549
11480TIP3   OH255854   1.918   0.829  11.370  0.4651  0.2132 -0.0991
11480TIP3    H155855   1.915   0.736  11.347  2.1152  0.6186 -2.3372
11480TIP3    H255856   1.937   0.829  11.464 -0.3815 -1.6907  0.1209
11481TIP3   OH255857   3.908   5.951   1.814  0.2567 -0.0462  0.0114
11481TIP3    H155858   3.829   5.985   1.773  0.3113  0.3901  0.2631
11481TIP3    H255859   3.975   6.017   1.796  0.4052 -0.0988  0.3571
11482TIP3   OH255860   4.689   4.857   5.995 -0.4694  0.1036 -0.1660
11482TIP3    H155861   4.628   4.892   5.930 -1.1991 -1.8157 -0.5748
11482TIP3    H255862   4.650   4.879   6.079 -1.9247 -1.3321 -0.4179
11483TIP3   OH255863   3.677   5.182   5.487 -0.0757 -0.1906 -0.6227
11483TIP3    H155864   3.706   5.129   5.413 -0.4055 -1.8985  0.3952
11483TIP3    H255865   3.753   5.187   5.545  0.7509  2.6536 -1.8008
11484TIP3   OH255866   5.517   0.895   5.132 -0.1443 -0.2384  0.0329
11484TIP3    H155867   5.584   0.875   5.067  0.1760 -0.6391  0.4725
11484TIP3    H255868   5.466   0.814   5.140 -0.4133 -0.0726  0.0076
11485TIP3   OH255869   3.006   0.297  12.686  0.3780 -0.0659  0.0041
11485TIP3    H155870   3.022   0.387  12.714 -1.4375  0.5070 -0.5978
11485TIP3    H255871   2.923   0.274  12.728  0.4650 -1.1938 -0.4211
11486TIP3   OH255872   6.349   1.554  11.814  0.2588  0.0964 -0.1010
11486TIP3    H155873   6.262   1.591  11.828  0.5395  0.5655  0.4881
11486TIP3    H255874   6.340   1.497  11.738 -1.0871 -1.5898  1.2476
11487TIP3   OH255875   1.532   1.737  11.280 -0.2277 -0.3524 -0.0562
11487TIP3    H155876   1.456   1.705  11.232  0.1463 -0.3564 -0.6470
11487TIP3    H255877   1.607   1.700  11.234  0.2199  1.2644 -0.6990
11488TIP3   OH255878   0.890   0.085  16.224 -0.5409 -0.4496  0.0095
11488TIP3    H155879   0.872   0.075  16.131 -0.7893  1.2176 -0.1692
11488TIP3    H255880   0.833   0.157  16.252  1.1321  0.6194  0.9100
11489TIP3   OH255881   1.121   6.366   4.718  0.2876  0.2732  0.1891
11489TIP3    H155882   1.048   6.427   4.710  0.0687  0.3072  2.0734
11489TIP3    H255883   1.082   6.280   4.706  0.0272  0.3199  0.7130
11490TIP3   OH255884   0.262   1.428   0.904  0.1876 -0.1900 -0.0313
11490TIP3    H155885   0.309   1.492   0.850  1.0034 -0.5699  0.2090
11490TIP3    H255886   0.188   1.400   0.850  0.7388 -0.2330 -0.7813
11491TIP3   OH255887   5.982   0.107  13.318  0.3806  0.5828  0.7824
11491TIP3    H155888   5.923   0.033  13.307  1.0010  0.2747 -0.5635
11491TIP3    H255889   5.943   0.177  13.266  1.0099  0.4762  0.1521
11492TIP3   OH255890   1.924   2.038   3.750 -0.7325 -0.5126  0.3572
11492TIP3    H155891   1.868   2.116   3.754 -0.8875 -0.6715  2.4970
11492TIP3    H255892   1.880   1.980   3.688 -1.5912  0.3783  0.1085
11493TIP3   OH255893   0.567   6.107  12.928 -0.1453 -0.0270 -0.6304
11493TIP3    H155894   0.569   6.066  12.841  0.0922  1.0242 -1.1375
11493TIP3    H255895   0.568   6.033  12.989 -0.7411 -0.7925 -1.5189
11494TIP3   OH255896   6.274   3.419   5.097 -0.5300  0.1218 -0.0914
11494TIP3    H155897   6.287   3.346   5.157 -1.8729  0.6821  0.9307
11494TIP3    H255898   6.195   3.396   5.048  0.0930  0.0512 -1.0852
11495TIP3   OH255899   1.108   5.307   4.142 -0.0093 -0.5471  0.4856
11495TIP3    H155900   1.070   5.252   4.211 -1.5555 -0.1561 -0.0239
11495TIP3    H255901   1.033   5.354   4.105  1.1039  0.9623  0.0596
11496TIP3   OH255902   4.787   4.128   0.629  0.5527 -0.4079  0.3413
11496TIP3    H155903   4.705   4.142   0.583  1.6769  0.8691 -1.4188
11496TIP3    H255904   4.793   4.202   0.690  0.4261 -0.4627  0.4191
11497TIP3   OH255905   1.949   3.426  15.744 -0.3648 -0.0340  0.0564
11497TIP3    H155906   1.956   3.376  15.662 -1.3594 -0.8811  0.4772
11497TIP3    H255907   2.006   3.379  15.805  0.0862  0.3844 -0.0349
11498TIP3   OH255908   3.218   0.508   3.895  0.0296  0.1962  0.3673
11498TIP3    H155909   3.179   0.423   3.872  1.3099 -0.4945  0.6285
11498TIP3    H255910   3.311   0.488   3.910  0.4950  1.7725 -0.2270
11499TIP3   OH255911   3.352   3.160   2.263 -0.1090  0.2453 -0.0113
11499TIP3    H155912   3.316   3.120   2.184  0.8455 -1.3894  0.3284
11499TIP3    H255913   3.289   3.227   2.288 -1.6331 -0.8508 -0.8012
11500TIP3   OH255914   1.073   4.061  16.444 -0.2967 -0.0225 -0.2904
11500TIP3    H155915   1.053   4.119  16.371  1.7908  0.1290 -0.8085
11500TIP3    H255916   1.149   4.011  16.415  2.7184  2.2687  2.8163
11501TIP3   OH255917   4.977   1.056  12.863 -0.1374 -0.9971  0.1728
11501TIP3    H155918   4.904   1.029  12.918  1.2976 -0.3649  2.5555
11501TIP3    H255919   5.039   1.096  12.924  0.8884  1.2513 -2.1516
11502TIP3   OH255920   2.801   6.140   1.322  0.9499  0.3342  0.3870
11502TIP3    H155921   2.809   6.061   1.267  1.0168 -1.0600  2.2996
11502TIP3    H255922   2.714   6.174   1.302  0.6228 -0.6486  0.0713
11503TIP3   OH255923   6.512   1.724  12.350 -0.4727 -0.2661 -0.2027
11503TIP3    H155924   6.441   1.769  12.397  0.6752  1.0455  0.3225
11503TIP3    H255925   6.524   1.774  12.270 -1.5211 -1.7268 -1.3439
11504TIP3   OH255926   0.915   5.859   6.065 -0.1124 -0.1870 -0.4902
11504TIP3    H155927   0.917   5.782   6.120  1.3294  1.3103  1.7090
11504TIP3    H255928   0.959   5.927   6.116  0.8037  1.4792 -3.2659
11505TIP3   OH255929   4.861   2.347  14.682  0.2500  0.5355 -0.0828
11505TIP3    H155930   4.852   2.443  14.683 -1.8622  0.3814 -0.3044
11505TIP3    H255931   4.886   2.325  14.772 -2.7196  1.0838  0.9935
11506TIP3   OH255932   1.318   6.595  15.900 -0.2821  0.2344  0.1865
11506TIP3    H155933   1.300   6.555  15.815 -1.2292  1.3132 -0.1461
11506TIP3    H255934   1.413   6.591  15.909 -0.3693 -3.5523  0.9522
11507TIP3   OH255935   1.636   0.184  15.301  0.1414  0.2199 -0.0403
11507TIP3    H155936   1.650   0.262  15.248  0.7013  0.4580  0.4589
11507TIP3    H255937   1.577   0.130  15.247  0.8242  0.3847 -0.9769
11508TIP3   OH255938   4.428   1.421   3.989  0.5340 -0.2477 -0.4622
11508TIP3    H155939   4.370   1.370   4.046 -0.5768 -0.4879 -1.7463
11508TIP3    H255940   4.412   1.386   3.901  0.6074  1.5243 -1.2254
11509TIP3   OH255941   4.753   3.952   2.777  0.4678  0.6475  0.2893
11509TIP3    H155942   4.698   3.881   2.745  0.5651  1.7125 -2.4860
11509TIP3    H255943   4.840   3.934   2.740  0.7470  1.6200  0.4361
11510TIP3   OH255944   5.091   0.723  15.096  0.5835  0.1101  0.2637
11510TIP3    H155945   5.023   0.768  15.045 -1.3032 -0.3897  2.1945
11510TIP3    H255946   5.149   0.793  15.126 -1.1339  1.0696  1.5154
11511TIP3   OH255947   3.828   3.100   4.797 -0.0307  0.4934 -0.4689
11511TIP3    H155948   3.918   3.130   4.809 -0.1630  1.1675 -1.0384
11511TIP3    H255949   3.797   3.082   4.885  0.8338 -0.2872 -0.3078
11512TIP3   OH255950   3.578   5.508   2.659  0.0138  0.3958  0.2340
11512TIP3    H155951   3.548   5.417   2.655 -0.3943  0.5402 -0.0332
11512TIP3    H255952   3.610   5.519   2.749 -1.3269  0.4235  0.7262
11513TIP3   OH255953   0.823   6.677   1.152  0.6271  0.4534 -0.0506
11513TIP3    H155954   0.906   6.651   1.113  1.1491  0.8079  0.8226
11513TIP3    H255955   0.792   6.749   1.097  0.2634 -0.4780 -1.1312
11514TIP3   OH255956   3.273   1.215   4.159 -0.7018  0.3158 -0.2617
11514TIP3    H155957   3.255   1.158   4.234 -0.5311  2.6869  1.7394
11514TIP3    H255958   3.187   1.232   4.121 -0.8682 -0.4353 -0.2370
11515TIP3   OH255959   4.746   1.407   3.350  0.1977  0.2651  0.3517
11515TIP3    H155960   4.841   1.396   3.353  0.1874  0.4250  2.1660
11515TIP3    H255961   4.712   1.336   3.404 -0.8053 -0.3142 -0.9674
11516TIP3   OH255962   1.205   3.895  13.066 -0.2687  0.1679 -0.6587
11516TIP3    H155963   1.131   3.864  13.014 -0.0141  0.9943 -1.5260
11516TIP3    H255964   1.171   3.970  13.115 -0.7206 -1.0509  0.9950
11517TIP3   OH255965   4.335   6.497   5.096 -0.1998  0.1509 -0.1099
11517TIP3    H155966   4.367   6.571   5.148  0.7898 -0.4852  0.2076
11517TIP3    H255967   4.240   6.499   5.108 -0.4894  2.7408 -1.9467
11518TIP3   OH255968   4.103   2.007   6.176 -0.3865 -0.0471  0.2395
11518TIP3    H155969   4.065   2.095   6.178  1.6635  0.8747  1.0586
11518TIP3    H255970   4.113   1.982   6.268  0.8284 -0.3100  0.0535
11519TIP3   OH255971   0.618   6.099  16.067  0.3745  0.6898 -0.5374
11519TIP3    H155972   0.624   6.187  16.030  1.5823  0.8286 -0.0591
11519TIP3    H255973   0.708   6.077  16.092 -0.2418  0.2538  1.4699
11520TIP3   OH255974   3.168   6.215  14.064 -0.2949  0.5246  0.6037
11520TIP3    H155975   3.134   6.290  14.014 -1.2821 -0.9161 -1.0354
11520TIP3    H255976   3.182   6.147  13.998 -2.3097 -1.7380  2.2893
11521TIP3   OH255977   4.167   0.937   6.370 -0.2418  0.4441 -0.4897
11521TIP3    H155978   4.071   0.947   6.366 -0.5243 -1.4474  0.3248
11521TIP3    H255979   4.180   0.849   6.406  1.8212  0.6016 -0.7449
11522TIP3   OH255980   5.710   1.071   0.693  0.1925 -0.0245 -0.3725
11522TIP3    H155981   5.756   1.152   0.716 -0.7047  0.9652 -1.9083
11522TIP3    H255982   5.654   1.053   0.769  0.0035  1.1054 -0.2237
11523TIP3   OH255983   0.442   2.801   0.424  0.1012  0.1214  0.1179
11523TIP3    H155984   0.377   2.853   0.376  0.8709  2.6394  1.6060
11523TIP3    H255985   0.414   2.710   0.413 -2.7492  1.0042 -0.6203
11524TIP3   OH255986   0.672   1.004  13.739  0.4986 -0.2801 -0.3187
11524TIP3    H155987   0.611   0.986  13.811  0.2411 -2.4012 -1.0069
11524TIP3    H255988   0.620   1.054  13.676  0.2338  0.1295  0.2187
11525TIP3   OH255989   4.779   3.514  13.100  0.0025 -0.3648 -0.2806
11525TIP3    H155990   4.796   3.597  13.056  2.4592  1.6597  3.8877
11525TIP3    H255991   4.713   3.535  13.167  1.0966 -1.5232  1.2397
11526TIP3   OH255992   0.492   5.353   5.082 -0.0672 -0.3033  0.2861
11526TIP3    H155993   0.418   5.376   5.137  0.8171 -1.3930  2.0284
11526TIP3    H255994   0.470   5.388   4.996 -2.0697  0.3739  1.0178
11527TIP3   OH255995   2.265   1.710  12.687  0.0616  0.1770 -0.0096
11527TIP3    H155996   2.324   1.665  12.626 -0.3223 -1.0604  0.5000
11527TIP3    H255997   2.180   1.707  12.644 -0.1871 -0.5982  0.5100
11528TIP3   OH255998   6.555   3.919  15.854 -0.0163 -0.1735  0.9488
11528TIP3    H155999   6.622   3.977  15.818 -0.1785 -0.8074 -0.4617
11528TIP3    H256000   6.480   3.930  15.795 -1.1851  0.5325  2.4953
11529TIP3   OH256001   0.070   3.510   4.851  0.4911 -0.4993  0.1538
11529TIP3    H156002   0.159   3.483   4.872  0.7015 -0.6065 -0.8445
11529TIP3    H256003   0.014   3.440   4.887  0.8229 -0.5805  0.5140
11530TIP3   OH256004   3.749   5.399   2.887 -0.3420 -0.5937 -0.1163
11530TIP3    H156005   3.800   5.372   2.963  1.0191  0.5225 -0.5918
11530TIP3    H256006   3.800   5.371   2.811 -0.0647  1.1271 -0.6045
11531TIP3   OH256007   1.318   2.387  15.617  0.1192  0.6859 -0.2504
11531TIP3    H156008   1.231   2.386  15.656 -0.5156  0.6717 -1.5919
11531TIP3    H256009   1.372   2.438  15.677 -0.4447 -0.5245  1.3360
11532TIP3   OH256010   4.088   2.235  17.251 -0.0299  0.0875 -0.4813
11532TIP3    H156011   4.074   2.187  17.333  0.5182  0.9559  0.1525
11532TIP3    H256012   4.022   2.202  17.191 -1.4350  0.4668  0.7906
11533TIP3   OH256013   3.188   5.287  12.822 -0.4182  0.0150  0.7925
11533TIP3    H156014   3.261   5.285  12.883  0.1970 -2.3440  0.1047
11533TIP3    H256015   3.175   5.195  12.797  0.2723  0.8478 -3.5998
11534TIP3   OH256016   3.930   0.328   0.435  0.2299 -0.1022  0.0398
11534TIP3    H156017   4.007   0.385   0.445 -0.4759  0.7019  1.1469
11534TIP3    H256018   3.962   0.241   0.457  0.3428  0.5660  2.9984
11535TIP3   OH256019   5.392   4.912   0.721 -0.2923 -0.3143 -0.1454
11535TIP3    H156020   5.435   4.869   0.795 -0.5886  0.5258  0.5367
11535TIP3    H256021   5.357   4.994   0.758  0.0715  0.4100 -1.3436
11536TIP3   OH256022   3.476   6.610   2.318 -0.4210 -0.0352 -0.2199
11536TIP3    H156023   3.393   6.650   2.345  0.1781  1.0658  0.0981
11536TIP3    H256024   3.530   6.615   2.397  0.6690  1.3069 -1.0102
11537TIP3   OH256025   4.626   5.600   5.845 -0.8225  0.4125  0.1717
11537TIP3    H156026   4.613   5.612   5.939 -0.4960  1.6953  0.0742
11537TIP3    H256027   4.546   5.556   5.815 -1.3105  0.7832  0.9094
11538TIP3   OH256028   1.772   0.020   6.121  0.0072 -0.4616 -0.1739
11538TIP3    H156029   1.718  -0.020   6.053  2.2595 -1.4533 -1.4841
11538TIP3    H256030   1.727  -0.002   6.203 -2.7308  0.6889 -1.2333
11539TIP3   OH256031   6.628   1.484  16.690 -0.0914 -0.4274  0.9197
11539TIP3    H156032   6.585   1.545  16.750  1.8283  0.9695  0.9566
11539TIP3    H256033   6.719   1.479  16.720  1.0126  0.4916 -1.9201
11540TIP3   OH256034   2.121   1.361   2.663  0.0166 -0.1113  0.3215
11540TIP3    H156035   2.170   1.443   2.671 -1.3767  0.8150 -0.1466
11540TIP3    H256036   2.171   1.298   2.715  2.2480  0.4882 -0.9754
11541TIP3   OH256037   1.828   4.083  12.421 -0.4271 -0.4763  0.1169
11541TIP3    H156038   1.809   4.055  12.331 -0.5204 -1.4476  0.4269
11541TIP3    H256039   1.836   4.178  12.415  1.2008 -0.6599 -1.2143
11542TIP3   OH256040   6.383   2.863  17.239  0.2219  0.5570 -0.1062
11542TIP3    H156041   6.314   2.814  17.286  0.0526  1.4636  0.6144
11542TIP3    H256042   6.359   2.854  17.147  2.2775 -3.9496 -0.4462
11543TIP3   OH256043   3.087   5.638   4.587 -0.1028  0.3677 -0.4361
11543TIP3    H156044   3.167   5.634   4.638 -0.1228 -1.1834 -0.4745
11543TIP3    H256045   3.017   5.637   4.652 -0.1331 -1.8176 -0.4333
11544TIP3   OH256046   1.683   3.422   0.997 -0.1446  0.4691 -0.1021
11544TIP3    H156047   1.638   3.499   1.032  0.3464  0.5006  0.4717
11544TIP3    H256048   1.776   3.441   1.009 -0.0351 -0.8987  1.5783
11545TIP3   OH256049   4.871   5.841   1.123  0.1357  0.0749 -0.2146
11545TIP3    H156050   4.814   5.838   1.046  0.6195  1.8844 -0.6929
11545TIP3    H256051   4.886   5.749   1.146 -0.8402 -0.4724 -1.6548
11546TIP3   OH256052   6.186   6.200  14.055 -0.0927  0.5543  0.3801
11546TIP3    H156053   6.115   6.138  14.070 -1.8079  2.5436  0.9623
11546TIP3    H256054   6.150   6.285  14.081  2.5053  1.6754  0.6920
11547TIP3   OH256055   0.750   5.704  16.013 -0.2927  0.6085  0.0486
11547TIP3    H156056   0.839   5.737  15.997 -0.2245  1.4338  1.9216
11547TIP3    H256057   0.750   5.676  16.104 -1.5455 -0.8396 -0.3533
11548TIP3   OH256058   3.690   4.445  15.374 -0.8164  0.0243  0.9212
11548TIP3    H156059   3.649   4.366  15.409  0.9181 -1.1978  0.3192
11548TIP3    H256060   3.704   4.426  15.281  0.8172  0.4838  1.0385
11549TIP3   OH256061   4.268   3.488   1.500  0.0499 -0.0581 -0.8101
11549TIP3    H156062   4.192   3.479   1.443  1.4409 -0.8687 -2.6461
11549TIP3    H256063   4.337   3.520   1.442  1.8878 -2.1293  0.0973
11550TIP3   OH256064   0.097   6.239   0.883 -0.6272  0.1659  0.1832
11550TIP3    H156065   0.025   6.225   0.945  0.0047  0.6547  1.0467
11550TIP3    H256066   0.171   6.265   0.938  0.3383 -0.7625 -0.6465
11551TIP3   OH256067   4.594   0.423   4.716  0.3253 -0.0062 -0.0677
11551TIP3    H156068   4.679   0.381   4.713  0.9561  1.2699 -1.2494
11551TIP3    H256069   4.531   0.351   4.718  1.4049 -1.0060  2.8162
11552TIP3   OH256070   3.822   1.813  15.567  0.2171  0.0482  0.5401
11552TIP3    H156071   3.884   1.885  15.573 -0.1407  0.6746 -1.8766
11552TIP3    H256072   3.844   1.770  15.484 -0.8265 -1.4015  0.9799
11553TIP3   OH256073   5.999   0.056  10.978 -0.1391 -0.1221 -0.4376
11553TIP3    H156074   6.044  -0.019  10.938  0.1345  0.0245 -0.4098
11553TIP3    H256075   5.947   0.017  11.048 -0.9695 -0.4312 -1.2114
11554TIP3   OH256076   2.264   2.260   2.907 -0.3075 -0.2823 -0.1623
11554TIP3    H156077   2.346   2.301   2.878 -0.9439  1.3790  0.2616
11554TIP3    H256078   2.229   2.219   2.828 -0.2296  1.0633 -0.9285
11555TIP3   OH256079   2.847   1.998   4.278  0.0792 -0.2439  0.3426
11555TIP3    H156080   2.823   1.978   4.187  1.5880 -0.3717 -0.0492
11555TIP3    H256081   2.788   1.945   4.331 -1.7545  0.8541 -0.5124
11556TIP3   OH256082   2.561   3.963  13.694 -0.4256 -0.1086  0.1646
11556TIP3    H156083   2.555   4.043  13.746 -2.5937  0.1364 -0.3781
11556TIP3    H256084   2.647   3.927  13.716  0.3333  2.0108  0.9082
11557TIP3   OH256085   6.654   6.609  11.064  0.6946  0.2455 -0.2319
11557TIP3    H156086   6.621   6.629  11.152  1.2377  0.5832 -0.0951
11557TIP3    H256087   6.576   6.610  11.008  0.6305  2.6610 -0.2057
11558TIP3   OH256088   2.904   2.731   4.731 -0.4258 -0.3615  0.0337
11558TIP3    H156089   2.947   2.815   4.747 -1.4244  0.1062  0.3454
11558TIP3    H256090   2.961   2.687   4.668  1.1606 -0.3063  1.3859
11559TIP3   OH256091   2.534   3.834   3.610  0.5246  0.2785 -0.6480
11559TIP3    H156092   2.487   3.752   3.625  0.5970  0.6814  2.1919
11559TIP3    H256093   2.466   3.897   3.585  0.2145 -0.1793 -0.9780
11560TIP3   OH256094   0.255   5.160   2.732 -0.4842  0.1405 -0.2133
11560TIP3    H156095   0.305   5.229   2.776 -1.0637 -0.6082  1.7197
11560TIP3    H256096   0.250   5.189   2.640  0.1456  2.1537  0.3285
11561TIP3   OH256097   0.409   0.251   2.099 -0.0052 -0.9222 -0.4196
11561TIP3    H156098   0.409   0.322   2.035 -0.1861  0.6741  1.2697
11561TIP3    H256099   0.361   0.180   2.056  0.2591 -0.0759 -2.2001
11562TIP3   OH256100   3.849   2.291  15.526 -0.0554  0.6745  0.0819
11562TIP3    H156101   3.785   2.362  15.536 -0.9045  0.0610 -0.7091
11562TIP3    H256102   3.847   2.271  15.432 -1.5176 -1.8412  0.5381
11563TIP3   OH256103   3.241   5.591  15.632 -0.0655  0.1465  0.1623
11563TIP3    H156104   3.218   5.589  15.539 -1.4136  0.2003  0.4743
11563TIP3    H256105   3.180   5.653  15.671  0.9671  0.6842  0.9783
11564TIP3   OH256106   2.091   1.987  14.182  0.2438 -0.0056 -0.1802
11564TIP3    H156107   2.093   2.056  14.116  0.3357 -0.7393 -0.9623
11564TIP3    H256108   2.058   2.030  14.261 -0.6993  0.6966 -0.9353
11565TIP3   OH256109   4.428   6.596  16.022 -0.1876 -0.0252 -0.0397
11565TIP3    H156110   4.519   6.602  16.051 -0.2698 -0.0148  0.2119
11565TIP3    H256111   4.409   6.682  15.985  0.2589 -0.3668 -1.1332
11566TIP3   OH256112   0.875   5.409   1.834 -0.0959  0.1346  0.1714
11566TIP3    H156113   0.831   5.426   1.751 -0.1766 -0.3367  0.1167
11566TIP3    H256114   0.921   5.326   1.821  0.7864  0.5988  0.2403
11567TIP3   OH256115   6.435   5.157   5.160 -0.2936  0.5593 -0.3984
11567TIP3    H156116   6.517   5.203   5.180 -0.1389  0.6549 -1.2075
11567TIP3    H256117   6.452   5.067   5.188  0.0653  0.5966 -0.4789
11568TIP3   OH256118   4.937   1.193  15.578  0.8390  0.5163 -0.0773
11568TIP3    H156119   4.889   1.114  15.602 -0.5352  0.7797 -1.7233
11568TIP3    H256120   4.882   1.235  15.511  1.7688  2.5879  0.3606
11569TIP3   OH256121   5.794   3.109  12.911  0.4786  0.0919 -0.6275
11569TIP3    H156122   5.790   3.066  12.996  0.6085 -1.5271 -1.3883
11569TIP3    H256123   5.855   3.181  12.922  2.3833 -1.5449  0.0745
11570TIP3   OH256124   4.802   5.277   2.964  0.1929 -0.3613  0.1017
11570TIP3    H156125   4.736   5.329   2.917 -1.1645  0.2688  2.5251
11570TIP3    H256126   4.829   5.210   2.901 -2.9131 -0.7654 -0.9856
11571TIP3   OH256127   1.752   6.480  14.066  0.0409  0.3065 -0.7019
11571TIP3    H156128   1.810   6.466  13.991  0.9263 -0.5790  0.1256
11571TIP3    H256129   1.763   6.402  14.120 -2.6944 -0.3795 -0.9914
11572TIP3   OH256130   0.219   2.746  13.874  0.7775 -0.3531  0.1483
11572TIP3    H156131   0.292   2.771  13.817  0.4178 -0.7803 -0.5233
11572TIP3    H256132   0.225   2.650  13.880 -0.2312 -0.4904 -0.6559
11573TIP3   OH256133   0.969   1.004   1.900 -0.1983 -0.4077 -0.2501
11573TIP3    H156134   0.945   1.095   1.883 -1.0163 -0.6727 -0.5605
11573TIP3    H256135   1.049   1.010   1.952 -0.2082  0.4872 -0.3200
11574TIP3   OH256136   1.827   4.890  17.078 -0.0703 -0.8075 -0.0603
11574TIP3    H156137   1.882   4.828  17.125 -0.0211 -0.4421  0.3715
11574TIP3    H256138   1.745   4.891  17.127 -0.1100 -0.6157 -0.1289
11575TIP3   OH256139   0.478   6.300  14.930 -0.3447  0.4822 -0.0344
11575TIP3    H156140   0.513   6.387  14.913  0.4216  0.1234 -0.3655
11575TIP3    H256141   0.528   6.243  14.871 -1.8262  0.0042 -0.8731
11576TIP3   OH256142   5.409   4.042   3.968 -0.1007  0.2774 -0.1692
11576TIP3    H156143   5.327   4.044   3.918 -0.7433  0.3736  0.8774
11576TIP3    H256144   5.413   3.953   4.004 -0.3621  0.6375  0.7736
11577TIP3   OH256145   4.160   0.014   1.626 -0.3363  0.0382 -0.3810
11577TIP3    H156146   4.097   0.062   1.573 -1.1061 -0.4072  0.1037
11577TIP3    H256147   4.157   0.057   1.711  0.7400  0.6206 -0.6262
11578TIP3   OH256148   0.848   2.436   0.688  0.0297  0.4364 -0.7162
11578TIP3    H156149   0.838   2.435   0.783  0.1653  0.0618 -0.7013
11578TIP3    H256150   0.935   2.471   0.673  0.6321 -0.9387 -0.6260
11579TIP3   OH256151   3.766   5.973  16.024 -0.5731  0.2177  0.1057
11579TIP3    H156152   3.705   5.901  16.010 -0.2548  0.0491 -0.4515
11579TIP3    H256153   3.799   5.994  15.937  1.5840 -0.9678  0.5591
11580TIP3   OH256154   3.134   2.293  16.654  0.3666 -0.0863 -0.0039
11580TIP3    H156155   3.097   2.264  16.571  0.5872 -0.2181 -0.0571
11580TIP3    H256156   3.185   2.371  16.631 -1.7277  1.5042  0.4095
11581TIP3   OH256157   6.225   6.417  12.460 -0.1832  0.1173 -1.0025
11581TIP3    H156158   6.157   6.407  12.527 -1.9610 -3.0373 -3.0676
11581TIP3    H256159   6.301   6.373  12.497  0.1870  1.8159  0.4408
11582TIP3   OH256160   1.409   6.337   2.696  0.0791 -0.1474 -0.3110
11582TIP3    H156161   1.479   6.367   2.638  0.8091  1.3538  1.2785
11582TIP3    H256162   1.374   6.417   2.735 -0.2179 -1.1267  1.5117
11583TIP3   OH256163   0.235   2.501   4.764  0.0295 -0.2446  0.0198
11583TIP3    H156164   0.189   2.585   4.770 -1.4659 -0.5561 -3.8795
11583TIP3    H256165   0.202   2.462   4.683 -0.9496 -5.6090  2.5707
11584TIP3   OH256166   1.779   6.086  14.469  0.3843 -0.3804 -0.3423
11584TIP3    H156167   1.715   6.052  14.407 -0.2015 -0.4389  0.2881
11584TIP3    H256168   1.727   6.127  14.538  1.0517  1.1050 -0.6788
11585TIP3   OH256169   0.615   2.080  11.664 -0.2137 -0.1467  0.4751
11585TIP3    H156170   0.564   2.002  11.643  0.1082 -0.3423  0.4056
11585TIP3    H256171   0.705   2.049  11.668  0.1520  0.5451 -1.3337
11586TIP3   OH256172   0.723   5.118   0.135 -0.2800  0.2416 -0.2154
11586TIP3    H156173   0.814   5.102   0.112 -0.6341  0.5035 -1.9935
11586TIP3    H256174   0.713   5.081   0.223  1.8835  1.5301  0.6299
11587TIP3   OH256175   4.983   2.540  11.459  0.0378 -0.3169 -0.0548
11587TIP3    H156176   5.017   2.501  11.541 -0.8187 -0.1581  0.3842
11587TIP3    H256177   4.897   2.575  11.483 -0.4155 -0.6611 -1.1344
11588TIP3   OH256178   4.076   4.374  13.230  0.6038  0.2584 -0.7186
11588TIP3    H156179   4.072   4.455  13.178  0.4799 -0.8050 -2.4681
11588TIP3    H256180   3.987   4.363  13.264  0.8749  1.3762  0.4084
11589TIP3   OH256181   5.943   2.128   4.293 -0.3910 -0.7333 -0.3104
11589TIP3    H156182   5.901   2.174   4.366  2.2059 -0.2874  1.0026
11589TIP3    H256183   5.979   2.197   4.238  0.9046 -1.0820  0.0510
11590TIP3   OH256184   1.966   4.327   0.778  0.1635 -0.5767  0.8755
11590TIP3    H156185   1.998   4.254   0.832 -0.9194 -1.1621  0.7626
11590TIP3    H256186   1.946   4.288   0.693  1.5679  0.2845  0.1033
11591TIP3   OH256187   6.604   6.584  16.046  0.1621 -0.2984 -0.4900
11591TIP3    H156188   6.690   6.608  16.012  0.9945  0.8116  2.1547
11591TIP3    H256189   6.566   6.666  16.078 -0.8710 -1.1204  0.5170
11592TIP3   OH256190   4.358   5.564   0.859 -0.4863 -0.3892  0.2735
11592TIP3    H156191   4.351   5.558   0.764  0.1519  0.8071  0.1341
11592TIP3    H256192   4.402   5.647   0.875 -0.4409 -0.6445  1.6159
11593TIP3   OH256193   4.385   3.541  11.506 -0.5939 -0.3018  0.0547
11593TIP3    H156194   4.299   3.583  11.500 -0.4333 -0.0551 -0.5137
11593TIP3    H256195   4.381   3.470  11.442 -0.6135 -0.7267  0.5156
11594TIP3   OH256196   1.864   5.144   1.078 -0.2521  0.4033 -0.0901
11594TIP3    H156197   1.771   5.140   1.060 -0.5506 -2.8052  1.4955
11594TIP3    H256198   1.873   5.110   1.167  2.3288  2.2199  0.4728
11595TIP3   OH256199   4.097   0.825  14.137 -0.3673  0.7833 -0.3122
11595TIP3    H156200   4.068   0.735  14.149 -0.0256  0.6426 -0.5350
11595TIP3    H256201   4.138   0.849  14.221 -0.9514  0.9232 -0.0605
11596TIP3   OH256202   1.878   4.518  16.310  0.0504  0.1701  0.6673
11596TIP3    H156203   1.902   4.588  16.250 -1.5251 -0.5294 -0.8594
11596TIP3    H256204   1.879   4.438  16.257 -0.4916 -0.6214  1.7942
11597TIP3   OH256205   0.079   4.809  15.844 -0.4573 -0.3980  0.0030
11597TIP3    H156206   0.142   4.784  15.912 -0.9156 -0.7899  0.2910
11597TIP3    H256207   0.019   4.735  15.838 -0.3184 -0.4472 -0.9679
11598TIP3   OH256208   3.566   5.759  17.038  0.4025  0.1820  0.7319
11598TIP3    H156209   3.499   5.697  17.066  0.7711 -0.3817  0.3809
11598TIP3    H256210   3.568   5.751  16.943 -0.9809  2.2134  0.4488
11599TIP3   OH256211   0.956   0.403   6.391 -0.5506  0.2008  0.2607
11599TIP3    H156212   0.898   0.446   6.328  0.6245  0.4965 -0.6783
11599TIP3    H256213   0.960   0.463   6.465 -1.4982  0.1341  0.3673
11600TIP3   OH256214   6.104   3.174   3.385  0.8796 -0.1756  0.3531
11600TIP3    H156215   6.149   3.241   3.437  2.9659  1.3502 -3.0610
11600TIP3    H256216   6.018   3.211   3.367  0.8183  0.0978  1.1648
11601TIP3   OH256217   1.189   3.730  11.755  0.3086 -0.2843  0.2076
11601TIP3    H156218   1.230   3.761  11.675  0.3008 -0.7610  0.0214
11601TIP3    H256219   1.197   3.635  11.753  0.6857 -0.2803  0.9773
11602TIP3   OH256220   6.691   3.201  13.642 -0.2989 -0.2824 -0.4890
11602TIP3    H156221   6.696   3.109  13.616  2.5820 -0.3034 -0.2449
11602TIP3    H256222   6.731   3.248  13.569 -2.8324  0.9779 -1.1574
11603TIP3   OH256223   6.653   3.874   5.405 -0.3780  0.0051 -0.0226
11603TIP3    H156224   6.622   3.872   5.496 -1.7595  0.3311 -0.4697
11603TIP3    H256225   6.711   3.949   5.401 -0.5887  0.2018  0.5126
11604TIP3   OH256226   5.244   3.375   5.189 -0.4481  0.3614  0.3604
11604TIP3    H156227   5.308   3.327   5.136 -0.9814  1.2285 -1.1247
11604TIP3    H256228   5.281   3.373   5.277  0.8067 -0.5728 -0.1458
11605TIP3   OH256229   5.295   3.302   3.707 -0.3077  0.0130  0.0652
11605TIP3    H156230   5.321   3.346   3.788  0.6795 -1.5794  0.6589
11605TIP3    H256231   5.200   3.304   3.708 -0.3444 -0.8006  1.7694
11606TIP3   OH256232   1.840   5.530   1.370 -0.2432 -0.7026 -0.3688
11606TIP3    H156233   1.906   5.505   1.305 -0.1584 -3.2643  0.5757
11606TIP3    H256234   1.860   5.475   1.447 -2.3715 -0.2414  0.5946
11607TIP3   OH256235   4.168   0.274   4.115  0.0998 -0.2983 -0.1040
11607TIP3    H156236   4.091   0.217   4.119 -0.0586 -0.0693  0.2284
11607TIP3    H256237   4.138   0.352   4.068 -0.3475  0.4944  1.4398
11608TIP3   OH256238   6.048   5.493  13.042 -0.1399  0.9350  0.1607
11608TIP3    H156239   6.119   5.435  13.073 -0.3012  0.9418  0.5508
11608TIP3    H256240   5.995   5.438  12.985 -0.2630  0.7074  0.4902
11609TIP3   OH256241   6.342   4.924   3.978 -0.2121  0.2483 -0.2123
11609TIP3    H156242   6.377   5.010   3.956  1.6197 -0.2417  0.5536
11609TIP3    H256243   6.310   4.933   4.068 -0.6184  0.2931 -0.3606
11610TIP3   OH256244   1.836   2.214   1.847  0.1902  0.1180 -0.6297
11610TIP3    H156245   1.910   2.154   1.850  0.3575  0.3492  0.7616
11610TIP3    H256246   1.785   2.187   1.771  0.4803 -1.5297 -0.2717
11611TIP3   OH256247   1.693   5.195   5.521 -0.1565  0.1820 -0.4638
11611TIP3    H156248   1.762   5.136   5.551 -0.4645 -0.1381 -0.3689
11611TIP3    H256249   1.664   5.159   5.438 -2.0731 -1.3118  0.7410
11612TIP3   OH256250   1.078   4.483  12.073  0.2049  0.0594  0.3610
11612TIP3    H156251   1.139   4.547  12.037  0.7211  0.1010  1.2854
11612TIP3    H256252   1.084   4.408  12.014 -0.2206  0.7513 -0.5899
11613TIP3   OH256253   5.016   3.594  17.024 -0.3788  0.6416 -0.5454
11613TIP3    H156254   4.925   3.620  17.035 -0.3953  0.2122  0.4930
11613TIP3    H256255   5.016   3.500  17.039 -0.1100  0.2138 -2.9025
11614TIP3   OH256256   4.511   5.219  17.024  0.1340  0.0945 -0.2367
11614TIP3    H156257   4.449   5.196  16.955 -0.2327  1.4023 -0.3599
11614TIP3    H256258   4.561   5.292  16.988  0.5162  0.2400  0.5698
11615TIP3   OH256259   4.067   6.245  15.064  0.1679  0.1313  0.1748
11615TIP3    H156260   4.102   6.187  15.131  0.0155 -0.4251 -0.2167
11615TIP3    H256261   4.133   6.245  14.995  1.0536  1.9271  0.9624
11616TIP3   OH256262   2.215   2.024  15.308  0.3941  0.4361 -0.0264
11616TIP3    H156263   2.201   1.936  15.341  1.3324  0.0362 -0.6548
11616TIP3    H256264   2.261   2.070  15.378 -1.1043  0.7973  0.7641
11617TIP3   OH256265   5.355   1.668   1.321 -0.1130 -0.5762 -0.0140
11617TIP3    H156266   5.328   1.583   1.285 -0.4127 -1.1485  1.5013
11617TIP3    H256267   5.451   1.665   1.317 -0.0591 -1.6008  1.3157
11618TIP3   OH256268   4.714   0.358  12.286  0.4175  0.0497 -0.5824
11618TIP3    H156269   4.645   0.388  12.227 -0.3503 -1.6868 -0.6265
11618TIP3    H256270   4.668   0.305  12.351  1.3377  1.3327  1.1901
11619TIP3   OH256271   2.128   3.511   2.134 -0.2477 -0.1573 -0.2772
11619TIP3    H156272   2.096   3.470   2.214 -3.0109 -0.0971 -1.2610
11619TIP3    H256273   2.144   3.438   2.074 -1.5656 -0.0389 -0.7951
11620TIP3   OH256274   4.502   5.822  16.783  0.6107  0.2444  0.6201
11620TIP3    H156275   4.579   5.873  16.811  0.9923  0.5053 -0.8069
11620TIP3    H256276   4.450   5.812  16.862  0.9001  2.2187  1.1147
11621TIP3   OH256277   0.447   4.431   3.826 -0.5317 -0.8437  0.0152
11621TIP3    H156278   0.516   4.379   3.870 -1.8219 -2.0589  0.6905
11621TIP3    H256279   0.469   4.521   3.847  2.3955 -0.9201 -2.0496
11622TIP3   OH256280   1.701   4.382   1.417  0.9319  0.1865  0.4180
11622TIP3    H156281   1.662   4.296   1.403 -0.6520  0.8205  0.7044
11622TIP3    H256282   1.751   4.373   1.498 -1.0461  0.0768  1.6982
11623TIP3   OH256283   5.864   3.799  13.240 -0.0143 -0.4036 -0.5757
11623TIP3    H156284   5.832   3.850  13.315  1.4265  1.4382 -1.1549
11623TIP3    H256285   5.807   3.825  13.168  0.0645 -0.4163 -0.6417
11624TIP3   OH256286   6.169   0.546  11.277  0.0273 -0.2889 -0.2934
11624TIP3    H156287   6.233   0.607  11.242  0.2517 -0.5602 -0.3610
11624TIP3    H256288   6.149   0.488  11.204  0.3984 -0.7782 -0.0092
11625TIP3   OH256289   0.046   0.981   2.698  0.3290  0.1539  0.0667
11625TIP3    H156290   0.015   1.071   2.696 -3.6508 -0.9927  1.1999
11625TIP3    H256291   0.023   0.946   2.612  3.2426  0.4550 -0.9587
11626TIP3   OH256292   0.333   2.993  14.520 -0.5166 -0.3647  0.7663
11626TIP3    H156293   0.373   3.069  14.562 -1.7742 -0.1321  1.6158
11626TIP3    H256294   0.269   3.029  14.460  0.1700 -0.7396 -0.2131
11627TIP3   OH256295   1.577   1.419   2.645 -0.7276 -0.0455 -0.0863
11627TIP3    H156296   1.519   1.471   2.589  0.6646  0.2423 -1.3245
11627TIP3    H256297   1.664   1.428   2.605  0.5625  0.9371  2.6647
11628TIP3   OH256298   6.362   2.952  12.536  0.0049 -0.2483 -0.0349
11628TIP3    H156299   6.398   3.017  12.475  1.8173 -0.3414  0.8457
11628TIP3    H256300   6.329   2.882  12.481 -0.9871  0.9124 -0.9681
11629TIP3   OH256301   0.255   2.120   4.320 -0.2930 -0.1878 -0.1775
11629TIP3    H156302   0.174   2.125   4.370  0.0560 -0.4552  0.4351
11629TIP3    H256303   0.305   2.050   4.363 -0.0202 -0.4874 -0.9632
11630TIP3   OH256304   1.055   1.079   2.872  0.1064 -0.0329  0.2801
11630TIP3    H156305   0.968   1.113   2.893  0.4100  2.4187 -1.8983
11630TIP3    H256306   1.057   1.073   2.777  2.0711 -0.7392  0.3086
11631TIP3   OH256307   6.730   3.106   5.501 -0.1868  0.0557  0.4528
11631TIP3    H156308   6.766   3.146   5.423  0.1555 -1.1402 -0.0184
11631TIP3    H256309   6.751   3.167   5.572 -1.1554  1.5134 -0.4740
11632TIP3   OH256310   0.128   0.710   2.804  0.3733  0.4548  0.0329
11632TIP3    H156311   0.183   0.754   2.868 -0.9847  1.4253  0.5771
11632TIP3    H256312   0.084   0.781   2.757  0.0436 -0.2816 -0.7960
11633TIP3   OH256313   6.118   5.881   4.558 -0.5866 -0.0319  0.3830
11633TIP3    H156314   6.064   5.956   4.584 -0.1952  0.4437 -0.1426
11633TIP3    H256315   6.201   5.920   4.530 -1.0089 -0.4838 -1.6451
11634TIP3   OH256316   6.684   5.166   3.921  0.2077  0.0007 -0.5308
11634TIP3    H156317   6.597   5.175   3.960  0.7547 -0.8572  0.9980
11634TIP3    H256318   6.744   5.196   3.990  1.2084 -1.3929 -0.7425
11635TIP3   OH256319   3.108   3.432   3.025  0.5049  0.0737  0.2343
11635TIP3    H156320   3.013   3.427   3.029  0.5711 -1.0511  0.9375
11635TIP3    H256321   3.129   3.423   2.932 -0.0564 -0.1653  0.1246
11636TIP3   OH256322   0.724   2.155  13.149  0.2306  0.2214  0.3217
11636TIP3    H156323   0.758   2.243  13.166  0.0669  0.3673 -0.0895
11636TIP3    H256324   0.798   2.107  13.112 -0.2443  0.8510 -1.6075
11637TIP3   OH256325   2.113   1.934   0.531 -0.6250 -0.7664  0.2464
11637TIP3    H156326   2.050   1.999   0.561  0.0540 -0.5884  1.3380
11637TIP3    H256327   2.188   1.985   0.499 -1.2018 -0.9579 -1.5505
11638TIP3   OH256328   6.263   5.121  13.397  0.2938 -0.4889 -0.7690
11638TIP3    H156329   6.258   5.084  13.485  0.4589 -0.2084 -0.6404
11638TIP3    H256330   6.344   5.085  13.361 -0.6748 -2.0602 -1.4866
11639TIP3   OH256331   3.248   2.531   4.530 -0.1300 -0.1814  0.2362
11639TIP3    H156332   3.208   2.519   4.616 -1.0552 -0.5557 -0.2316
11639TIP3    H256333   3.331   2.576   4.548 -0.7271  0.5563  1.2320
11640TIP3   OH256334   0.738   4.752  13.281  0.5032  0.2887 -0.1593
11640TIP3    H156335   0.776   4.803  13.209 -0.9412 -0.2399 -1.3428
11640TIP3    H256336   0.769   4.796  13.360  2.5996  0.5636 -1.0602
11641TIP3   OH256337   6.566   4.613   1.777  0.2043 -0.3284  0.1659
11641TIP3    H156338   6.617   4.615   1.696  0.5633 -1.6636  0.3369
11641TIP3    H256339   6.576   4.701   1.814  0.6439  0.0679 -0.8656
11642TIP3   OH256340   2.961   6.491  10.603  0.0527  0.0798  0.4572
11642TIP3    H156341   2.920   6.472  10.687  1.4876 -0.6102  1.0416
11642TIP3    H256342   2.955   6.587  10.594 -0.9062  0.0666  0.9118
11643TIP3   OH256343   6.367   5.553   0.626 -0.3563 -0.0525 -0.3600
11643TIP3    H156344   6.419   5.474   0.608  0.1734  0.9551 -4.0770
11643TIP3    H256345   6.432   5.622   0.637 -0.8304  0.4634 -0.7512
11644TIP3   OH256346   3.983   5.596   1.578  1.0031  0.0236  0.2400
11644TIP3    H156347   4.005   5.625   1.666  1.0999  1.8766 -0.3318
11644TIP3    H256348   3.937   5.513   1.590 -0.0857  0.8406  2.1266
11645TIP3   OH256349   5.769   4.720   2.278  0.0076 -0.2751 -0.2706
11645TIP3    H156350   5.854   4.738   2.319  0.1685 -1.6105  0.0084
11645TIP3    H256351   5.774   4.628   2.252 -1.7420 -0.6809  0.7094
11646TIP3   OH256352   2.655   2.836   4.892  0.3053  0.2290  0.1268
11646TIP3    H156353   2.644   2.773   4.963 -0.7726 -1.1948 -1.2353
11646TIP3    H256354   2.750   2.841   4.879  0.5010  0.3158  1.4575
11647TIP3   OH256355   4.163   3.918   6.401 -0.2028 -0.0689  0.7044
11647TIP3    H156356   4.239   3.896   6.348  0.0183 -0.5770  1.2108
11647TIP3    H256357   4.173   3.864   6.480 -1.0483 -0.0888  0.8072
11648TIP3   OH256358   2.333   3.516  13.258  0.0123  0.4979  0.1235
11648TIP3    H156359   2.400   3.576  13.227 -1.3687  1.4799 -1.0504
11648TIP3    H256360   2.379   3.432  13.268  1.4542  1.1920 -0.4150
11649TIP3   OH256361   1.755   3.727   3.009  1.1797 -0.0890 -0.2187
11649TIP3    H156362   1.813   3.784   3.059 -2.2134  1.4401  2.3518
11649TIP3    H256363   1.771   3.640   3.045  0.4400  0.6402  2.0648
11650TIP3   OH256364   0.075   5.631   4.994  0.2039  0.4957 -0.4249
11650TIP3    H156365   0.062   5.605   4.903  0.0757  0.9792 -0.5457
11650TIP3    H256366   0.089   5.726   4.991  1.1939  0.3732 -0.0411
11651TIP3   OH256367   2.864   4.528   1.560  0.2003 -0.4364 -0.2992
11651TIP3    H156368   2.815   4.610   1.566 -0.8920 -1.1714  2.4424
11651TIP3    H256369   2.797   4.460   1.565  1.2987 -1.4689  1.4341
11652TIP3   OH256370   0.612   0.958  12.829 -0.2682 -0.0799 -0.0667
11652TIP3    H156371   0.637   0.903  12.903 -0.7493 -0.4000 -0.1399
11652TIP3    H256372   0.595   0.896  12.758  0.6152  0.2449 -0.5789
11653TIP3   OH256373   4.500   0.712  17.397 -0.3541  0.6307 -0.6388
11653TIP3    H156374   4.440   0.777  17.434  0.0335  1.6229 -1.6686
11653TIP3    H256375   4.583   0.758  17.390  0.5273 -0.6941  0.6457
11654TIP3   OH256376   1.963   4.803  16.853 -0.8902 -0.3321 -0.3468
11654TIP3    H156377   1.926   4.836  16.934 -0.7669  0.0175 -0.4319
11654TIP3    H256378   1.905   4.837  16.785 -0.4591  0.1624 -0.4767
11655TIP3   OH256379   2.347   2.773  17.049  0.0948 -0.4121  0.0525
11655TIP3    H156380   2.280   2.794  16.983  0.6131  2.7047  0.3536
11655TIP3    H256381   2.314   2.695  17.092 -3.1510  0.6564 -0.1744
11656TIP3   OH256382   1.181   0.649  12.718 -0.8633 -0.0136  0.2306
11656TIP3    H156383   1.210   0.730  12.678 -1.3519 -0.2960 -0.7251
11656TIP3    H256384   1.090   0.639  12.690 -1.0695 -0.4800  1.0105
11657TIP3   OH256385   6.014   2.833   2.393 -0.3871  0.0196 -0.5385
11657TIP3    H156386   6.007   2.787   2.309 -0.2295  1.2377 -1.2359
11657TIP3    H256387   5.927   2.870   2.407 -0.2920  0.1874 -0.3851
11658TIP3   OH256388   1.162   3.178   0.017 -0.6670 -0.0287  0.7737
11658TIP3    H156389   1.097   3.225   0.069 -0.5244 -0.1642  1.0796
11658TIP3    H256390   1.246   3.208   0.051 -0.5726  0.1619  0.3643
11659TIP3   OH256391   4.417   6.752  17.205 -0.6279 -0.6867 -0.3249
11659TIP3    H156392   4.497   6.701  17.192 -0.4627 -0.3536 -0.6269
11659TIP3    H256393   4.364   6.733  17.127  0.5655  1.6991 -1.8363
11660TIP3   OH256394   1.070   4.506  16.710  0.1390  0.3298  0.3213
11660TIP3    H156395   1.111   4.455  16.640  1.3449  2.1982 -0.4091
11660TIP3    H256396   1.130   4.497  16.784  0.5526  0.9764  0.0699
11661TIP3   OH256397   4.472   6.012   1.508 -0.3388 -0.6407  0.0784
11661TIP3    H156398   4.433   6.065   1.439 -1.4221  2.5340  2.8660
11661TIP3    H256399   4.536   5.957   1.463 -1.8922  0.2536 -3.5451
11662TIP3   OH256400   1.037   1.081  12.445 -0.5715  0.5077 -0.1748
11662TIP3    H156401   0.970   1.033  12.493 -1.3428  2.1181  0.4216
11662TIP3    H256402   1.004   1.086  12.356  0.0442 -0.9867 -0.5148
11663TIP3   OH256403   4.284   4.554  12.997  0.4944  0.0335  0.0557
11663TIP3    H156404   4.307   4.634  12.950 -0.7606  0.0109 -0.6674
11663TIP3    H256405   4.202   4.575  13.042  0.2816 -0.7573  0.0592
11664TIP3   OH256406   3.929   4.382   5.850 -0.2409 -0.4978  0.4777
11664TIP3    H156407   3.949   4.366   5.943  0.9561 -2.1814 -0.0267
11664TIP3    H256408   3.999   4.338   5.802 -1.5702 -0.8300 -1.2584
11665TIP3   OH256409   6.618   6.552   1.429 -0.2487 -1.0092 -0.6696
11665TIP3    H156410   6.632   6.458   1.416  0.2562 -1.3050  1.5478
11665TIP3    H256411   6.693   6.593   1.387  0.7302 -1.7950  0.2302
11666TIP3   OH256412   3.057   2.507   1.587  0.2342  0.1811 -0.4473
11666TIP3    H156413   3.001   2.453   1.531  1.1185 -1.0391 -0.2017
11666TIP3    H256414   3.128   2.535   1.529  1.7322 -1.9762  0.2602
11667TIP3   OH256415   0.035   5.641   2.250 -0.3935  0.6057 -0.1036
11667TIP3    H156416  -0.033   5.704   2.227 -1.7593 -0.6545  0.3212
11667TIP3    H256417   0.103   5.653   2.184 -1.1661  1.6787 -0.7254
11668TIP3   OH256418   6.278   1.617  14.888  0.0232 -0.1669 -0.3248
11668TIP3    H156419   6.298   1.689  14.828 -0.9486 -0.3422 -0.8894
11668TIP3    H256420   6.320   1.642  14.970 -0.0348  0.9043 -0.6016
11669TIP3   OH256421   5.047   0.164   1.631 -0.6702  1.1898  0.0531
11669TIP3    H156422   5.044   0.214   1.550  0.3850 -0.3990 -1.0484
11669TIP3    H256423   5.011   0.078   1.608  1.3676  0.0689  0.6978
11670TIP3   OH256424   1.969   2.330   5.534  0.1228 -0.0078  0.4157
11670TIP3    H156425   1.924   2.408   5.502 -0.1920 -0.4042 -0.1238
11670TIP3    H256426   2.059   2.340   5.504  0.1773  0.3331  0.6865
11671TIP3   OH256427   2.699   2.469   3.211 -0.3893  0.5632  0.6918
11671TIP3    H156428   2.634   2.489   3.143  0.8116 -1.8200 -1.3538
11671TIP3    H256429   2.670   2.385   3.247  1.1204 -0.1619  0.2696
11672TIP3   OH256430   3.852   5.691   2.305  0.6394 -0.0078  0.2617
11672TIP3    H156431   3.764   5.657   2.323  1.0840 -0.9381  0.7652
11672TIP3    H256432   3.842   5.747   2.228 -0.3934 -0.0914  0.3300
11673TIP3   OH256433   3.718   6.220   3.713  0.0411 -0.1582  0.2406
11673TIP3    H156434   3.749   6.141   3.670  0.2566 -0.2817  0.6195
11673TIP3    H256435   3.793   6.279   3.714 -0.5945  0.7839 -1.6859
11674TIP3   OH256436   4.880   0.052  12.194 -0.1389 -0.0342  0.0587
11674TIP3    H156437   4.897   0.139  12.229  0.7592  0.7845 -2.2210
11674TIP3    H256438   4.904   0.058  12.102  0.1128 -2.7529 -0.1358
11675TIP3   OH256439   3.956   2.671  12.542 -0.2470  0.7179 -0.1241
11675TIP3    H156440   3.915   2.648  12.626 -1.7029 -0.8810 -1.1975
11675TIP3    H256441   3.949   2.766  12.537 -0.7856  0.7721  1.2596
11676TIP3   OH256442   0.048   4.823   6.731 -0.5371 -0.0412  0.0824
11676TIP3    H156443  -0.015   4.894   6.721 -0.9160 -0.5347 -1.3824
11676TIP3    H256444   0.002   4.758   6.784 -0.7559  0.1701  0.1530
11677TIP3   OH256445   4.194   3.090  14.434  0.1342 -0.3615  0.3391
11677TIP3    H156446   4.134   3.111  14.363  0.8426  1.8013  0.3090
11677TIP3    H256447   4.281   3.108  14.397  0.6250 -0.8601  1.2189
11678TIP3   OH256448   2.104   5.564  12.099  0.0758 -0.4198  0.1174
11678TIP3    H156449   2.023   5.520  12.074  1.1434 -1.1792 -2.3029
11678TIP3    H256450   2.130   5.522  12.181 -3.6936  2.2887  3.0297
11679TIP3   OH256451   1.561   5.507   6.482 -0.5307 -0.6170 -1.1821
11679TIP3    H156452   1.610   5.447   6.426 -0.4024 -0.9164 -0.7497
11679TIP3    H256453   1.628   5.555   6.531 -0.4699  1.6728 -3.2735
11680TIP3   OH256454   3.212   4.277  15.597  0.5542 -0.5660  0.7743
11680TIP3    H156455   3.267   4.209  15.634  1.1119  0.0420  1.0824
11680TIP3    H256456   3.189   4.333  15.672  1.3731  0.4570  0.2942
11681TIP3   OH256457   4.425   3.521  16.857  0.1265 -0.4200 -0.2107
11681TIP3    H156458   4.443   3.604  16.811 -1.6018  0.7129  1.0567
11681TIP3    H256459   4.423   3.545  16.950  0.0817 -1.9980  0.2234
11682TIP3   OH256460   2.606   3.608   4.154  0.8879 -0.0761  0.5447
11682TIP3    H156461   2.516   3.636   4.140  0.9690 -0.0775 -0.0302
11682TIP3    H256462   2.656   3.689   4.160  1.4784  0.0878 -3.4300
11683TIP3   OH256463   1.416   0.391  11.509  0.4150  0.8251  0.4206
11683TIP3    H156464   1.438   0.346  11.428 -1.9903 -0.9095  0.6249
11683TIP3    H256465   1.488   0.371  11.568  0.8225 -0.3183 -0.4252
11684TIP3   OH256466   3.839   1.442   4.672  0.3013 -0.9827  0.1341
11684TIP3    H156467   3.935   1.442   4.677  0.3074 -0.2335  0.1982
11684TIP3    H256468   3.819   1.497   4.596 -0.1056  1.1984  1.7053
11685TIP3   OH256469   1.944   2.257   2.695 -0.2972 -0.0917 -0.4917
11685TIP3    H156470   1.977   2.167   2.701 -0.6024 -0.1419  1.1037
11685TIP3    H256471   1.854   2.251   2.727  0.5153  1.1587  2.4075
11686TIP3   OH256472   0.870   0.663   2.783 -0.3004  0.1818 -0.0842
11686TIP3    H156473   0.876   0.575   2.747  0.0099  0.4821 -0.7975
11686TIP3    H256474   0.937   0.713   2.736  0.6820  0.4118  1.5137
11687TIP3   OH256475   4.619   0.225   4.269  0.0084 -0.1789 -0.1369
11687TIP3    H156476   4.575   0.276   4.337 -0.1464  0.6647 -0.8421
11687TIP3    H256477   4.547   0.180   4.224  0.2294 -1.8273  1.0989
11688TIP3   OH256478   2.676   5.620   1.932  0.2015 -0.0310 -0.2856
11688TIP3    H156479   2.622   5.592   1.859 -0.9470  1.2090  0.0457
11688TIP3    H256480   2.667   5.715   1.934  0.5124  0.0013  1.2380
11689TIP3   OH256481   3.787   3.827   0.116  0.1258 -0.8754  0.2037
11689TIP3    H156482   3.721   3.855   0.179  2.3338  2.5312  1.3007
11689TIP3    H256483   3.770   3.879   0.038  0.5598 -1.1739 -0.0977
11690TIP3   OH256484   6.684   2.525   1.878  0.3970  0.3369  0.3409
11690TIP3    H156485   6.756   2.523   1.941  0.0545 -0.0536  0.7249
11690TIP3    H256486   6.631   2.600   1.904 -0.4477 -0.5717  1.3218
11691TIP3   OH256487   0.456   1.215  11.461 -0.7200 -0.1185  0.8341
11691TIP3    H156488   0.503   1.269  11.398 -1.7603 -1.1027 -0.8602
11691TIP3    H256489   0.367   1.251  11.461 -1.1735 -1.1926  0.4019
11692TIP3   OH256490   4.158   3.299  14.824  0.2064 -0.2625  0.3929
11692TIP3    H156491   4.218   3.240  14.778  0.5633  0.6725 -0.3795
11692TIP3    H256492   4.087   3.313  14.761  0.9532  1.4437 -0.1147
11693TIP3   OH256493   4.789   4.049   1.919 -0.1528 -0.7013  0.4821
11693TIP3    H156494   4.810   4.052   2.012 -0.1635  0.1832  0.4636
11693TIP3    H256495   4.695   4.031   1.917 -0.3512  0.2434  0.6769
11694TIP3   OH256496   0.109   0.988  15.844  0.0387 -0.7552  0.0156
11694TIP3    H156497   0.123   0.938  15.924  0.3207 -1.9485 -0.7616
11694TIP3    H256498   0.039   1.050  15.866  0.5781 -0.5903  1.3744
11695TIP3   OH256499   6.181   6.567   0.201 -0.7144  0.1861  0.0290
11695TIP3    H156500   6.162   6.625   0.127 -0.1026 -0.2742 -0.4856
11695TIP3    H256501   6.098   6.522   0.218 -1.5760  2.0822  1.2346
11696TIP3   OH256502   0.406   1.193   5.094  0.4585  0.2042 -0.6375
11696TIP3    H156503   0.354   1.177   5.173 -0.4806  1.6572 -0.9206
11696TIP3    H256504   0.341   1.207   5.025  1.2642 -1.4656 -1.8006
11697TIP3   OH256505   3.040   5.231  14.156  0.2547 -0.2663 -0.3092
11697TIP3    H156506   3.030   5.179  14.076  0.6316 -1.4821  0.4134
11697TIP3    H256507   3.116   5.287  14.138  1.3647 -1.6851 -0.2267
11698TIP3   OH256508   3.628   3.590  17.232  0.8526 -0.0271 -0.7319
11698TIP3    H156509   3.695   3.658  17.236  1.3028 -0.5063  0.1970
11698TIP3    H256510   3.545   3.638  17.224  0.9715  0.7450  1.8761
11699TIP3   OH256511   0.277   6.321  15.765  1.0267 -0.2325 -0.2199
11699TIP3    H156512   0.296   6.233  15.796  2.6501  0.2487  0.2559
11699TIP3    H256513   0.287   6.316  15.670 -0.7277 -0.9571 -0.4021
11700TIP3   OH256514   4.124   1.075   2.177  0.0601 -0.0471  0.4709
11700TIP3    H156515   4.198   1.132   2.196  0.5401 -0.9324  1.3017
11700TIP3    H256516   4.048   1.133   2.181  0.7332  0.9759 -0.9171
11701TIP3   OH256517   1.169   5.864   5.914 -0.8105 -0.2579 -0.3518
11701TIP3    H156518   1.138   5.894   6.000 -0.6253  1.0748 -0.7330
11701TIP3    H256519   1.090   5.834   5.869 -0.8748 -1.2057  0.3620
11702TIP3   OH256520   4.852   3.983   4.248 -0.2283 -0.2227 -0.2734
11702TIP3    H156521   4.939   4.022   4.255 -0.6175  0.4089  1.9911
11702TIP3    H256522   4.795   4.046   4.292 -1.7061 -1.0442 -0.9425
11703TIP3   OH256523   6.095   5.682  13.779  0.3531 -0.3041 -0.2079
11703TIP3    H156524   6.067   5.666  13.869 -1.6176 -0.1809 -0.7495
11703TIP3    H256525   6.104   5.777  13.774  0.9791 -0.3491 -0.0129
11704TIP3   OH256526   2.564   3.792  14.819  0.3223 -0.3813  0.1623
11704TIP3    H156527   2.481   3.834  14.840  0.6058  0.4325 -0.2769
11704TIP3    H256528   2.555   3.703  14.851 -1.7802 -1.1764 -2.3436
11705TIP3   OH256529   1.978   0.419  15.995 -0.1110  0.2408 -0.4349
11705TIP3    H156530   2.027   0.456  15.921 -0.1154 -0.0895 -0.6053
11705TIP3    H256531   1.981   0.487  16.062  1.1809 -0.0476 -0.1814
11706TIP3   OH256532   3.524   1.147   2.412  0.4401  0.6168  0.5410
11706TIP3    H156533   3.580   1.149   2.489  1.5538  0.7123 -0.2561
11706TIP3    H256534   3.470   1.226   2.420 -1.2943 -0.6471  2.5159
11707TIP3   OH256535   2.283   1.791  13.641  0.3168  0.3913  0.1619
11707TIP3    H156536   2.206   1.735  13.637 -0.2416  1.1313  0.4916
11707TIP3    H256537   2.250   1.880  13.628  0.9964  0.8079  1.1291
11708TIP3   OH256538   5.812   4.276  11.968  0.2121 -0.2922  0.3655
11708TIP3    H156539   5.851   4.363  11.981 -0.1047 -0.2340  0.9826
11708TIP3    H256540   5.730   4.293  11.922  0.5665 -0.3519 -0.3051
11709TIP3   OH256541   3.631   0.916   1.459  0.2978 -0.6493  0.3496
11709TIP3    H156542   3.590   1.003   1.459  1.3465 -0.1465  0.1385
11709TIP3    H256543   3.564   0.859   1.421  0.5546  0.5412 -2.0911
11710TIP3   OH256544   5.104   5.055   4.854  0.2145 -0.6400  0.2383
11710TIP3    H156545   5.128   5.055   4.947 -2.0519 -1.0287  0.8971
11710TIP3    H256546   5.034   4.990   4.847  1.3378 -1.7159 -2.0716
11711TIP3   OH256547   6.122   4.840   2.906  0.5756  0.3899 -0.1164
11711TIP3    H156548   6.047   4.794   2.942 -1.3493  1.1448 -2.8586
11711TIP3    H256549   6.177   4.772   2.867  0.7231 -0.0445  0.8276
11712TIP3   OH256550   3.423   6.651   2.708 -0.0888  0.0934  0.2809
11712TIP3    H156551   3.418   6.747   2.710  1.5304  0.2036  1.7445
11712TIP3    H256552   3.510   6.631   2.742 -0.0792 -1.8951 -0.7430
11713TIP3   OH256553   4.777   1.164   2.882 -0.0922  0.0678 -0.4852
11713TIP3    H156554   4.822   1.223   2.942  1.7415 -3.0724  1.5158
11713TIP3    H256555   4.720   1.112   2.938  0.0473 -1.5444 -1.7792
11714TIP3   OH256556   1.939   4.614  13.333  0.0517  0.5799  0.4646
11714TIP3    H156557   1.862   4.574  13.291  0.5694  0.4019 -0.3272
11714TIP3    H256558   1.924   4.708  13.324 -0.2316  0.5512  0.6058
11715TIP3   OH256559   6.479   0.740   0.234 -0.3002 -0.5542  0.6459
11715TIP3    H156560   6.500   0.662   0.181  0.3732 -0.8826  1.3757
11715TIP3    H256561   6.448   0.804   0.170 -0.1918 -1.1836 -0.0604
11716TIP3   OH256562   4.623   0.784  14.594 -0.4944  0.0473 -0.1172
11716TIP3    H156563   4.647   0.711  14.537  0.0948  0.6572 -0.6819
11716TIP3    H256564   4.538   0.813  14.561  0.3615  1.1405 -1.4967
11717TIP3   OH256565   4.740   5.534   4.822  0.0453 -0.2400 -0.1357
11717TIP3    H156566   4.722   5.622   4.857 -0.2549 -0.0976 -0.6373
11717TIP3    H256567   4.687   5.529   4.742 -0.7282 -1.2483  0.4179
11718TIP3   OH256568   3.703   6.034  12.451  0.3564  0.7572 -0.0566
11718TIP3    H156569   3.695   5.983  12.370  0.6671 -0.3578  0.5869
11718TIP3    H256570   3.617   6.028  12.492  0.2092  1.2909 -0.2823
11719TIP3   OH256571   5.730   6.491   2.807 -0.1001 -0.9125  0.1450
11719TIP3    H156572   5.697   6.420   2.861  0.2563  1.0019  3.0800
11719TIP3    H256573   5.820   6.505   2.837  0.6453 -0.6837 -2.0060
11720TIP3   OH256574   2.687   6.639  16.286 -0.1267 -0.4551  0.4576
11720TIP3    H156575   2.670   6.559  16.335  0.5694 -1.4939 -0.9165
11720TIP3    H256576   2.761   6.680  16.331 -0.4591 -0.5956  1.1423
11721TIP3   OH256577   4.356   2.379  14.926  0.4296 -0.1729  0.7052
11721TIP3    H156578   4.324   2.289  14.917  1.5428 -0.4296 -1.3944
11721TIP3    H256579   4.336   2.403  15.016 -3.9777 -0.8945  0.1311
11722TIP3   OH256580   6.115   0.625   0.699  0.7354  0.0120 -0.4575
11722TIP3    H156581   6.028   0.643   0.664  0.9683  0.0925 -0.9954
11722TIP3    H256582   6.163   0.706   0.688  1.1628 -0.3122 -1.0231
11723TIP3   OH256583   0.560   2.624   6.623  0.2655 -0.3245  0.2965
11723TIP3    H156584   0.633   2.624   6.561 -0.7730 -0.1791 -0.9594
11723TIP3    H256585   0.555   2.533   6.654 -0.4190 -0.8691 -1.3216
11724TIP3   OH256586   4.935   3.930  15.761  0.3275 -0.0697  0.6012
11724TIP3    H156587   4.990   3.908  15.686 -1.1858  0.0286 -0.5925
11724TIP3    H256588   4.895   3.847  15.787 -0.6418  0.1978  0.0267
11725TIP3   OH256589   1.360   3.595  12.856 -0.6588  0.6333  0.6414
11725TIP3    H156590   1.431   3.646  12.895  0.8465 -0.8150 -0.0661
11725TIP3    H256591   1.339   3.642  12.775  0.7868  0.1462 -0.0590
11726TIP3   OH256592   0.678   6.404  14.038 -0.0049  0.4023 -0.0588
11726TIP3    H156593   0.646   6.489  14.069 -1.5130 -0.1507 -0.0023
11726TIP3    H256594   0.769   6.421  14.012 -0.8764  2.5777 -2.1317
11727TIP3   OH256595   4.724   2.520  11.252 -0.1002  0.0522 -0.5854
11727TIP3    H156596   4.642   2.569  11.254 -0.4070 -0.2023 -3.2475
11727TIP3    H256597   4.715   2.454  11.322 -2.4715 -0.4013 -1.2428
11728TIP3   OH256598   4.334   5.886   2.523 -0.1603  0.2148 -0.3856
11728TIP3    H156599   4.248   5.880   2.481 -0.6789 -1.8663  0.8397
11728TIP3    H256600   4.393   5.837   2.466  0.0502  0.8788 -0.7565
11729TIP3   OH256601   6.107   2.517   1.282 -0.1180 -0.0536  0.3147
11729TIP3    H156602   6.159   2.469   1.346 -0.4064 -0.0926  0.5236
11729TIP3    H256603   6.169   2.577   1.241  0.1595 -0.3307  0.3267
11730TIP3   OH256604   5.811   0.224  11.927  0.1976  0.4830  0.1307
11730TIP3    H156605   5.892   0.202  11.972  0.1838  0.1838  0.0096
11730TIP3    H256606   5.840   0.278  11.853  0.2962  0.2919  0.0284
11731TIP3   OH256607   4.335   3.948  11.488 -0.4310  0.2504  0.5182
11731TIP3    H156608   4.419   3.989  11.467 -0.4039 -0.0746 -0.0175
11731TIP3    H256609   4.297   3.925  11.403 -0.6006 -0.5340  0.7983
11732TIP3   OH256610   6.342   4.303   5.905  0.6823 -0.5948 -0.1336
11732TIP3    H156611   6.332   4.395   5.880 -1.7826 -0.9480 -0.7627
11732TIP3    H256612   6.417   4.302   5.963  0.5221  1.9058  0.2389
11733TIP3   OH256613   3.521   2.829  12.556  0.2007  0.6579  0.9784
11733TIP3    H156614   3.566   2.889  12.497  0.5026 -0.0307  0.4919
11733TIP3    H256615   3.453   2.788  12.503  0.0550  0.5030  1.2787
11734TIP3   OH256616   0.571   0.795  12.613  0.2242 -0.5108  0.2233
11734TIP3    H156617   0.537   0.787  12.524 -2.6582  3.7184  0.6587
11734TIP3    H256618   0.507   0.748  12.667 -0.0059 -0.1306  0.2902
11735TIP3   OH256619   1.282   4.628   2.591 -0.5481  0.2789 -0.2614
11735TIP3    H156620   1.361   4.665   2.631 -1.8375  1.5710  1.1968
11735TIP3    H256621   1.240   4.579   2.662  0.6241 -3.4733 -1.8722
11736TIP3   OH256622   5.618   4.488   1.288 -0.0346 -0.2442 -0.2550
11736TIP3    H156623   5.666   4.479   1.370  0.4518  0.8572 -0.3978
11736TIP3    H256624   5.608   4.399   1.256 -0.5588 -0.7187  1.1778
11737TIP3   OH256625   1.298   3.048  14.989 -0.7726  0.1284  0.3066
11737TIP3    H156626   1.343   3.096  14.921 -1.3593  1.0744  0.5733
11737TIP3    H256627   1.306   2.956  14.963  2.5927  0.0435  1.0863
11738TIP3   OH256628   3.458   5.725   1.113  0.0512  0.3262  0.0699
11738TIP3    H156629   3.458   5.818   1.132  0.0942  0.8534 -2.1998
11738TIP3    H256630   3.368   5.697   1.130  0.0234  0.7942  0.7116
11739TIP3   OH256631   3.226   4.195  17.116  0.1950  1.2037  0.5466
11739TIP3    H156632   3.178   4.165  17.194 -1.2870  0.4814 -0.5801
11739TIP3    H256633   3.269   4.116  17.084 -1.5983  0.7531 -0.9606
11740TIP3   OH256634   4.887   3.852  11.592  0.5051 -0.1079 -0.3693
11740TIP3    H156635   4.982   3.853  11.582  0.8486 -2.0049  1.7527
11740TIP3    H256636   4.870   3.912  11.664  0.2612 -0.6320  0.0219
11741TIP3   OH256637   3.869   2.879  11.037  0.9388 -0.7008 -0.0506
11741TIP3    H156638   3.927   2.900  10.964  0.6880 -0.2381 -0.1184
11741TIP3    H256639   3.816   2.957  11.049 -0.6239 -1.5930 -0.8921
11742TIP3   OH256640   3.478   2.445  17.095  0.0282 -0.0625  0.3330
11742TIP3    H156641   3.528   2.519  17.061 -0.8610 -0.0037 -0.9213
11742TIP3    H256642   3.497   2.373  17.034 -0.6607 -0.3005  0.3902
11743TIP3   OH256643   0.989   3.737  15.151  0.0609  0.0122  0.1047
11743TIP3    H156644   0.922   3.787  15.104 -0.4421 -1.1591 -0.4683
11743TIP3    H256645   0.970   3.646  15.130 -0.0296 -0.5664  2.3646
11744TIP3   OH256646   3.555   3.667   5.751 -0.4846  0.6028 -0.0190
11744TIP3    H156647   3.605   3.675   5.670  1.1703 -0.4286  0.8445
11744TIP3    H256648   3.610   3.710   5.817  0.5699 -2.6994  1.4423
11745TIP3   OH256649   4.362   2.314   3.805 -0.9433 -0.3705  0.7025
11745TIP3    H156650   4.457   2.321   3.794 -0.7923 -1.4299  1.1624
11745TIP3    H256651   4.338   2.392   3.855 -0.2201 -0.3865  1.0930
11746TIP3   OH256652   0.314   1.322  15.587 -0.1102  0.3591 -0.2865
11746TIP3    H156653   0.285   1.231  15.595 -1.6797  0.2866 -4.4336
11746TIP3    H256654   0.237   1.374  15.607  0.6173  0.8508  1.4564
11747TIP3   OH256655   3.521   1.838   6.031 -0.1004 -0.0312  0.4234
11747TIP3    H156656   3.428   1.823   6.045 -0.3927 -3.9456 -3.5302
11747TIP3    H256657   3.532   1.835   5.936  3.9026  2.0997  0.5973
11748TIP3   OH256658   5.746   4.140   2.288 -0.5369  0.5671  0.4695
11748TIP3    H156659   5.824   4.090   2.310 -0.1062 -0.3383 -2.7176
11748TIP3    H256660   5.683   4.075   2.258 -1.3304  1.5780 -0.1405
11749TIP3   OH256661   6.248   6.497   1.656 -0.1731 -0.7781  0.2330
11749TIP3    H156662   6.313   6.434   1.687  0.8877 -0.2160 -0.7377
11749TIP3    H256663   6.219   6.461   1.572  0.1324 -0.1904 -0.1291
11750TIP3   OH256664   0.689   4.155  11.302 -0.4396 -0.1498  0.0731
11750TIP3    H156665   0.666   4.247  11.312  0.5320  0.1717 -0.4503
11750TIP3    H256666   0.705   4.124  11.391  1.3704  0.8026  0.1417
11751TIP3   OH256667   6.733   2.135  15.241 -0.0439 -0.2835 -0.0576
11751TIP3    H156668   6.772   2.158  15.325  0.3829 -1.6333  0.1332
11751TIP3    H256669   6.669   2.204  15.225 -0.4525 -0.2341  1.5905
11752TIP3   OH256670   1.909   0.032  12.511  0.4061 -0.4547  0.3317
11752TIP3    H156671   1.823  -0.005  12.530  1.2353 -2.1268  0.9977
11752TIP3    H256672   1.897   0.081  12.429 -1.0889 -0.9312  0.2506
11753TIP3   OH256673   4.023   0.054  15.651  0.1992  0.4598 -0.8060
11753TIP3    H156674   3.988  -0.014  15.710 -0.5499  0.1544 -1.5854
11753TIP3    H256675   3.948   0.081  15.598  0.4507  2.0250 -0.4184
11754TIP3   OH256676   0.113   4.957  14.929  0.2341 -0.0491 -0.1146
11754TIP3    H156677   0.019   4.946  14.921  0.1792  0.5541 -0.3693
11754TIP3    H256678   0.135   5.023  14.862  0.6829  0.5462  0.6066
11755TIP3   OH256679   3.257   1.802   6.141  0.1211  0.2835 -0.1918
11755TIP3    H156680   3.233   1.830   6.230  1.0695 -3.0139  1.2495
11755TIP3    H256681   3.173   1.792   6.097 -0.4588  0.6608  0.7755
11756TIP3   OH256682   1.749   5.127   1.328 -0.3589  0.2656  0.0521
11756TIP3    H156683   1.809   5.066   1.371 -0.9581  0.4503  1.1939
11756TIP3    H256684   1.666   5.116   1.374 -0.6963  1.3554 -0.2601
11757TIP3   OH256685   5.838   4.849  11.326 -0.0700 -0.0671  0.4305
11757TIP3    H156686   5.800   4.765  11.349  0.4424  0.1560  2.3018
11757TIP3    H256687   5.922   4.828  11.285  0.3268 -0.4895  1.4229
11758TIP3   OH256688   3.928   0.131  10.788  0.4112 -0.4737  0.0191
11758TIP3    H156689   3.963   0.050  10.750  3.1951  1.1002 -1.0294
11758TIP3    H256690   3.985   0.149  10.863 -0.7095  0.1136  0.7645
11759TIP3   OH256691   3.964   2.462   2.340  0.2479  0.2926  0.1178
11759TIP3    H156692   3.897   2.527   2.319  0.6427  0.3758 -0.9802
11759TIP3    H256693   3.957   2.449   2.434 -2.6627 -1.1950 -0.2060
11760TIP3   OH256694   5.407   1.559   3.140  0.2036 -0.3346  0.1282
11760TIP3    H156695   5.316   1.544   3.163  0.2858 -0.8864  0.1064
11760TIP3    H256696   5.426   1.494   3.072  1.6570 -2.7851  2.6799
11761TIP3   OH256697   4.287   0.601  11.390  0.2182  0.0894 -0.4678
11761TIP3    H156698   4.378   0.583  11.412  0.3115 -0.6117 -1.3574
11761TIP3    H256699   4.286   0.609  11.294 -0.4057  1.6023 -0.3610
11762TIP3   OH256700   5.706   3.053  16.528  0.0514 -0.7854  0.3958
11762TIP3    H156701   5.645   2.990  16.566 -0.2359 -0.2120  0.8933
11762TIP3    H256702   5.759   3.083  16.601  0.0180 -0.2618  0.2107
11763TIP3   OH256703   1.883   3.566  13.224 -0.0676  0.2080 -0.0508
11763TIP3    H156704   1.969   3.599  13.251 -0.0627  0.1617 -0.0079
11763TIP3    H256705   1.835   3.555  13.306  0.3781 -1.1193  0.0598
11764TIP3   OH256706   0.904   2.536   0.327 -0.0844  0.4280  0.3883
11764TIP3    H156707   0.935   2.577   0.246 -1.8211 -0.4717 -0.7932
11764TIP3    H256708   0.982   2.499   0.367  0.4844 -1.6723 -2.4027
11765TIP3   OH256709   5.014   3.096   3.973  0.3158 -0.0991 -0.1204
11765TIP3    H156710   5.074   3.146   4.029 -1.9408 -0.4005  2.8264
11765TIP3    H256711   5.050   3.007   3.973  1.2963  0.2799 -0.6985
11766TIP3   OH256712   4.482   6.733  12.924 -0.2016  0.0074 -0.3546
11766TIP3    H156713   4.537   6.801  12.964 -0.7909 -0.5873  1.5671
11766TIP3    H256714   4.544   6.677  12.878  0.4283  1.1330 -0.9300
11767TIP3   OH256715   3.752   1.406  12.506  0.1817 -0.3944  0.2534
11767TIP3    H156716   3.673   1.352  12.513 -0.9128  1.0542 -0.3953
11767TIP3    H256717   3.719   1.495  12.492  1.9414  0.1939 -0.4142
11768TIP3   OH256718   5.752   2.684  11.803 -0.1461 -0.0778 -0.4649
11768TIP3    H156719   5.761   2.688  11.707 -1.6863  1.9338 -0.5863
11768TIP3    H256720   5.683   2.619  11.818 -0.5044  0.2214 -0.7909
11769TIP3   OH256721   0.501   5.039  14.598 -0.3575  0.3002  0.0693
11769TIP3    H156722   0.493   5.131  14.626 -1.5420  0.4928 -0.7893
11769TIP3    H256723   0.493   4.989  14.678  0.0796  0.9470  0.5288
11770TIP3   OH256724   1.843   6.167   4.834  0.5211  0.0879  0.1200
11770TIP3    H156725   1.922   6.142   4.882  1.1092 -0.4937 -1.0987
11770TIP3    H256726   1.772   6.122   4.879  1.1706 -1.1708 -0.0549
11771TIP3   OH256727   6.200   1.509  12.805  0.0508 -0.3139 -0.2460
11771TIP3    H156728   6.244   1.490  12.722  1.7990  1.6687  0.1204
11771TIP3    H256729   6.215   1.432  12.859  2.0525 -0.2247 -0.6013
11772TIP3   OH256730   6.409   3.424  17.255 -0.5436  0.2435  0.5827
11772TIP3    H156731   6.368   3.399  17.172  1.6321 -0.2474 -0.4096
11772TIP3    H256732   6.454   3.345  17.285  3.4171  1.7128 -0.7647
11773TIP3   OH256733   6.174   3.922   5.955  0.0769 -0.0295  0.0597
11773TIP3    H156734   6.153   4.015   5.963  0.8900  0.2541 -0.9277
11773TIP3    H256735   6.091   3.877   5.972 -1.2287  1.0101 -2.9436
11774TIP3   OH256736   0.070   2.531   2.119 -0.5491 -0.1615 -0.3933
11774TIP3    H156737  -0.001   2.505   2.178 -1.3929 -0.5037 -1.5050
11774TIP3    H256738   0.126   2.587   2.171 -0.7936 -1.1442  0.9743
11775TIP3   OH256739   1.689   1.737  15.895 -0.3222  0.4134 -0.0566
11775TIP3    H156740   1.784   1.737  15.897 -0.2052 -1.7699 -2.0411
11775TIP3    H256741   1.666   1.812  15.840  0.2114  1.0003  0.5055
11776TIP3   OH256742   1.668   5.918   1.598 -0.0696 -0.6284 -0.8227
11776TIP3    H156743   1.598   5.918   1.663  2.2529  2.3278  1.9689
11776TIP3    H256744   1.721   5.841   1.620  0.7965  0.4441  1.0322
11777TIP3   OH256745   6.277   5.289  15.077 -0.1650  0.1143 -0.7818
11777TIP3    H156746   6.211   5.253  15.017  0.5825 -0.2742 -1.3842
11777TIP3    H256747   6.310   5.214  15.125  1.1894 -0.0010 -1.8325
11778TIP3   OH256748   0.928   3.010  16.221  0.7193  0.3161 -0.6912
11778TIP3    H156749   0.887   2.927  16.200  0.5294 -0.0589  1.0766
11778TIP3    H256750   0.971   2.996  16.305  1.8070  1.6213 -0.9858
11779TIP3   OH256751   0.918   2.791  11.362 -0.2413 -0.0560  0.4252
11779TIP3    H156752   1.013   2.804  11.375 -0.1312 -2.4220  3.0860
11779TIP3    H256753   0.879   2.820  11.445 -1.6549 -0.7239  0.0178
11780TIP3   OH256754   5.280   2.142  16.321 -0.9997 -0.4867 -0.0826
11780TIP3    H156755   5.359   2.122  16.270 -1.0566  0.2090 -0.4525
11780TIP3    H256756   5.213   2.156  16.254 -0.7149  2.0521  0.0833
11781TIP3   OH256757   3.694   3.952  12.038 -0.0329  0.4846  0.3435
11781TIP3    H156758   3.680   4.031  11.986  0.7296  0.2085 -0.2994
11781TIP3    H256759   3.610   3.906  12.034 -0.2459  0.8887  0.0827
11782TIP3   OH256760   4.577   4.051  15.006  0.3749  0.0881 -0.1147
11782TIP3    H156761   4.502   4.001  15.038 -1.6894  1.7069 -2.0497
11782TIP3    H256762   4.623   3.992  14.947  1.2846 -1.2512  1.8485
11783TIP3   OH256763   5.983   2.953   4.965  0.4859  0.1901  0.3306
11783TIP3    H156764   6.052   2.895   4.998 -0.2614 -0.7827  0.2380
11783TIP3    H256765   5.971   2.927   4.874  1.0338  1.3843 -0.0938
11784TIP3   OH256766   0.711   4.519  17.278 -0.4399  0.3627  0.0585
11784TIP3    H156767   0.789   4.482  17.238 -1.2432  1.1291 -2.3828
11784TIP3    H256768   0.661   4.443  17.308  0.4084 -0.2176  0.0474
11785TIP3   OH256769   4.607   4.194   2.167 -0.6129  0.2756  0.4274
11785TIP3    H156770   4.578   4.266   2.223 -0.9537  0.4456  0.0456
11785TIP3    H256771   4.695   4.172   2.198  0.4102  2.3236 -0.8226
11786TIP3   OH256772   3.223   3.449   6.058  0.0382 -0.1319 -0.0491
11786TIP3    H156773   3.239   3.522   6.119  1.4430 -0.0384 -0.4983
11786TIP3    H256774   3.232   3.371   6.113 -0.4797  0.0034  0.2308
11787TIP3   OH256775   5.988   6.306   3.312 -0.0716  0.1241 -0.3539
11787TIP3    H156776   5.892   6.306   3.319 -0.0197 -1.1466  0.7952
11787TIP3    H256777   6.008   6.225   3.267  0.5056  0.0253  0.0817
11788TIP3   OH256778   5.442   0.740   5.823 -0.6188  0.5964  0.6210
11788TIP3    H156779   5.449   0.831   5.796 -2.7062  0.3788 -0.9024
11788TIP3    H256780   5.477   0.739   5.912  1.3268  2.4544 -0.0465
11789TIP3   OH256781   6.200   1.995  13.325 -0.6600 -0.2470 -0.3346
11789TIP3    H156782   6.144   1.929  13.366  0.1617 -0.8426 -0.1222
11789TIP3    H256783   6.188   1.983  13.231 -1.4636  0.1458 -0.2829
11790TIP3   OH256784   4.274   2.110   5.625  0.0736 -0.2871  0.2697
11790TIP3    H156785   4.234   2.029   5.654  2.0741 -0.3273  3.3671
11790TIP3    H256786   4.367   2.089   5.613  0.7994  1.6501  1.9589
11791TIP3   OH256787   4.689   6.566  14.569 -0.1682  0.5325  0.2223
11791TIP3    H156788   4.745   6.643  14.573 -0.8986  1.1642 -1.2126
11791TIP3    H256789   4.746   6.496  14.538 -0.0678  1.0779 -0.8435
11792TIP3   OH256790   2.646   4.544  11.690  0.4203  0.4974 -0.5760
11792TIP3    H156791   2.625   4.531  11.598  2.6894 -2.8107 -0.8070
11792TIP3    H256792   2.622   4.461  11.732  3.9633 -0.0208  0.7558
11793TIP3   OH256793   1.152   2.822   6.545  0.7449 -0.4185  0.6735
11793TIP3    H156794   1.198   2.755   6.596  0.8441  0.0710  1.2364
11793TIP3    H256795   1.212   2.896   6.545  0.0928  0.1127  1.1308
11794TIP3   OH256796   1.873   6.495  17.269 -0.1289  0.1853 -0.1328
11794TIP3    H156797   1.808   6.538  17.325 -0.0241 -0.2514  0.3244
11794TIP3    H256798   1.955   6.542  17.287  0.0065 -0.2675  0.4399
11795TIP3   OH256799   5.140   0.370  13.206 -0.9186 -0.6311 -0.6851
11795TIP3    H156800   5.207   0.322  13.156  1.4901 -0.3892  2.0488
11795TIP3    H256801   5.180   0.454  13.226 -2.8011  0.2671 -0.4753
11796TIP3   OH256802   0.148   6.709  13.851 -0.3648 -0.1914 -0.3481
11796TIP3    H156803   0.210   6.644  13.883 -0.0984  0.7194  1.0632
11796TIP3    H256804   0.073   6.702  13.911 -0.2201  0.9612 -0.0029
11797TIP3   OH256805   0.623   4.455  14.001 -0.1018  0.2515 -0.6891
11797TIP3    H156806   0.596   4.482  13.913 -1.4261  0.9413 -0.0909
11797TIP3    H256807   0.650   4.364  13.990 -2.4548 -0.4311 -1.4001
11798TIP3   OH256808   4.686   1.010   1.445  0.6511 -0.1423  0.2990
11798TIP3    H156809   4.623   1.003   1.374  0.2002 -3.5617  0.8408
11798TIP3    H256810   4.638   1.052   1.516 -0.2947 -0.5705 -0.0665
11799TIP3   OH256811   0.831   0.300   6.078 -0.1062 -0.1310  0.8419
11799TIP3    H156812   0.777   0.221   6.087  0.8554 -0.9488 -0.1595
11799TIP3    H256813   0.919   0.271   6.102 -0.1803  1.3563  3.1452
11800TIP3   OH256814   0.991   3.145   5.433  0.0732  0.2730 -0.0337
11800TIP3    H156815   1.071   3.093   5.421  0.6382  0.9526  0.6528
11800TIP3    H256816   0.970   3.177   5.346 -1.3210 -2.5109 -0.8294
11801TIP3   OH256817   6.059   5.389   1.294 -0.7935  0.1778 -0.1807
11801TIP3    H156818   6.090   5.465   1.344 -2.4235 -0.3925  1.8514
11801TIP3    H256819   6.051   5.421   1.204  1.2956  1.5535  0.0598
11802TIP3   OH256820   4.888   2.954  14.356  0.1038  0.1728  0.4908
11802TIP3    H156821   4.897   2.907  14.439  0.6997 -0.0273  0.3154
11802TIP3    H256822   4.974   2.947  14.314 -0.4637 -0.5770 -0.5957
11803TIP3   OH256823   6.702   0.079  15.618 -0.0649  0.0369  0.3577
11803TIP3    H156824   6.648   0.003  15.639  0.7273 -0.1891  1.7267
11803TIP3    H256825   6.645   0.137  15.568 -1.5045 -0.2990  1.5588
11804TIP3   OH256826   1.371   1.118   5.027  0.0906  0.2841 -0.0491
11804TIP3    H156827   1.432   1.045   5.014  0.0761  0.3628 -0.5919
11804TIP3    H256828   1.386   1.175   4.952  1.7522  2.0431  1.4938
11805TIP3   OH256829   1.758   0.697  10.401 -0.1829 -0.6801  0.1287
11805TIP3    H156830   1.815   0.712  10.477 -0.8500 -0.3778  0.5837
11805TIP3    H256831   1.815   0.707  10.325  0.3313 -0.2132  0.5718
11806TIP3   OH256832   2.132   4.345  12.091  0.5034 -0.2289 -0.0727
11806TIP3    H156833   2.141   4.283  12.019 -1.1931 -1.2761  0.5525
11806TIP3    H256834   2.212   4.397  12.088  0.8713 -0.8174 -2.1522
11807TIP3   OH256835   4.979   1.723  14.647  0.5453  0.0766  0.1260
11807TIP3    H156836   4.925   1.647  14.668  0.1705  0.3050  0.0013
11807TIP3    H256837   4.949   1.751  14.561  0.2882  0.7016  0.4080
11808TIP3   OH256838   3.592   3.619   2.248  0.4561 -0.2935  0.1511
11808TIP3    H156839   3.603   3.524   2.255  0.8263 -0.4168 -1.5903
11808TIP3    H256840   3.528   3.631   2.178  2.0879  0.7370 -1.2597
11809TIP3   OH256841   1.161   3.329   3.791  0.4356  0.2229 -0.3356
11809TIP3    H156842   1.257   3.333   3.794  0.6288 -2.1957 -0.9737
11809TIP3    H256843   1.136   3.293   3.876  0.1849 -0.2459 -0.6094
11810TIP3   OH256844   0.549   0.106   4.724 -0.1666 -0.2369  0.6367
11810TIP3    H156845   0.568   0.147   4.639  0.5138  0.3685  1.0744
11810TIP3    H256846   0.539   0.013   4.703 -1.9927  0.1382 -0.4091
11811TIP3   OH256847   0.035   4.178  13.008  0.6406 -0.7085 -0.2296
11811TIP3    H156848  -0.057   4.196  13.024  0.6711 -0.5862 -0.1940
11811TIP3    H256849   0.059   4.237  12.936  1.6830  2.0737  2.2319
11812TIP3   OH256850   2.969   6.367   1.382  0.3134 -0.4226 -0.2193
11812TIP3    H156851   2.932   6.282   1.356 -0.3128 -0.8697  1.9038
11812TIP3    H256852   2.912   6.432   1.341 -1.1505 -1.0841  0.7054
11813TIP3   OH256853   5.163   0.861  14.299  0.1998  0.2819 -0.9865
11813TIP3    H156854   5.096   0.898  14.357 -0.9748  0.5411 -2.4412
11813TIP3    H256855   5.193   0.935  14.246  0.1078 -0.2207 -1.7697
11814TIP3   OH256856   6.046   6.251  11.887 -0.0121 -0.0159  0.4046
11814TIP3    H156857   6.007   6.245  11.975  0.8449  4.5886  1.3425
11814TIP3    H256858   5.976   6.287  11.832  0.3366 -0.0664 -0.0733
11815TIP3   OH256859   5.393   1.040  13.923  0.1402 -0.6529  0.8793
11815TIP3    H156860   5.415   1.083  14.006 -0.1934 -1.1029  1.2035
11815TIP3    H256861   5.299   1.056  13.912  0.7029  2.0842 -0.9690
11816TIP3   OH256862   4.083   6.519   3.088  0.3569  0.1831 -0.5811
11816TIP3    H156863   4.150   6.483   3.030 -1.8280 -2.1370 -1.8746
11816TIP3    H256864   4.106   6.486   3.175  1.3583  0.1749 -0.8405
11817TIP3   OH256865   5.983   2.908   4.709 -0.2971  0.5463 -0.0464
11817TIP3    H156866   6.069   2.869   4.689 -0.9356 -0.8229 -0.2457
11817TIP3    H256867   5.923   2.865   4.649 -1.2160  1.1144  0.4512
11818TIP3   OH256868   1.229   3.012   0.694  0.9733  0.7457  0.3468
11818TIP3    H156869   1.270   2.965   0.767 -0.8429 -1.3491  0.1202
11818TIP3    H256870   1.164   2.951   0.659  0.9591  2.1154 -2.3067
11819TIP3   OH256871   3.243   3.701   1.197  0.6429  0.2514 -0.7942
11819TIP3    H156872   3.229   3.792   1.224  1.6173  0.6066 -1.4173
11819TIP3    H256873   3.160   3.674   1.159  0.6028  1.1704 -1.3840
11820TIP3   OH256874   2.874   6.304   5.192  0.3127  0.0635  0.0124
11820TIP3    H156875   2.903   6.263   5.111  0.5508 -0.9446  0.5810
11820TIP3    H256876   2.871   6.232   5.256 -0.3946  0.7225  0.7633
11821TIP3   OH256877   1.179   0.163   3.059  0.1324 -0.3002  0.2494
11821TIP3    H156878   1.112   0.116   3.108 -1.2130 -0.0605 -1.2841
11821TIP3    H256879   1.153   0.154   2.967  0.6127  2.2147 -0.1983
11822TIP3   OH256880   4.818   1.106   5.184 -0.3339 -1.0153 -0.1058
11822TIP3    H156881   4.831   1.048   5.108  0.0613  0.6697 -1.3872
11822TIP3    H256882   4.840   1.193   5.151 -0.9302 -0.1195  1.7577
11823TIP3   OH256883   1.884   3.441   1.530  0.4265  0.2626  0.1730
11823TIP3    H156884   1.792   3.431   1.505  0.2848 -2.0951  1.3443
11823TIP3    H256885   1.927   3.364   1.492  1.4462  0.1217  1.5427
11824TIP3   OH256886   5.329   3.300   2.369 -0.1281 -0.1060  0.2446
11824TIP3    H156887   5.290   3.233   2.425 -1.6387 -0.1135 -0.7585
11824TIP3    H256888   5.260   3.367   2.362  0.5950  0.5862 -0.4084
11825TIP3   OH256889   1.100   3.518   1.279  0.0263 -0.8064 -0.4875
11825TIP3    H156890   1.070   3.483   1.363  1.5236 -0.6616  0.1466
11825TIP3    H256891   1.032   3.581   1.254  0.1158  0.0528  1.2454
11826TIP3   OH256892   2.358   4.925   3.830 -0.1566 -0.1742  0.5497
11826TIP3    H156893   2.319   4.846   3.791  1.6520 -0.4631 -0.7692
11826TIP3    H256894   2.364   4.987   3.758  2.3161 -0.3470  0.5369
11827TIP3   OH256895   5.440   5.802  15.703 -0.0483  0.2513  0.3910
11827TIP3    H156896   5.373   5.862  15.735 -0.1543 -0.0407  0.7228
11827TIP3    H256897   5.430   5.723  15.757  0.0084 -0.1115 -0.1181
11828TIP3   OH256898   4.245   5.417  16.290 -0.1929  0.1184 -0.3636
11828TIP3    H156899   4.269   5.363  16.365 -0.4833 -0.7289 -0.8675
11828TIP3    H256900   4.162   5.456  16.314 -1.0531 -1.3463 -0.8176
11829TIP3   OH256901   4.075   3.376  10.767  0.2313 -0.1108 -0.3606
11829TIP3    H156902   3.998   3.366  10.823  0.6940  1.9346  0.7828
11829TIP3    H256903   4.132   3.304  10.792 -0.4976 -0.5024  0.2227
11830TIP3   OH256904   6.448   5.897   0.203  0.9513  0.3734 -0.3831
11830TIP3    H156905   6.495   5.914   0.284  1.7845 -1.1631 -0.4938
11830TIP3    H256906   6.385   5.828   0.225 -0.3607  1.4890 -0.5494
11831TIP3   OH256907   0.870   3.626   5.476  0.2036  0.3695 -0.2270
11831TIP3    H156908   0.954   3.597   5.512  0.6283  1.8921  0.0471
11831TIP3    H256909   0.859   3.573   5.397  0.7943 -0.7397  0.4072
11832TIP3   OH256910   0.552   4.892   0.595  0.5092  0.3709  0.2032
11832TIP3    H156911   0.575   4.820   0.653  1.8584  0.8125  0.2426
11832TIP3    H256912   0.571   4.858   0.507  0.0465  0.2873  0.1312
11833TIP3   OH256913   3.838   6.747   5.354  0.5000 -0.7971  0.4854
11833TIP3    H156914   3.781   6.739   5.431  1.5733 -3.4496  1.1444
11833TIP3    H256915   3.804   6.682   5.292  0.4085  0.4410 -0.8118
11834TIP3   OH256916   2.719   3.683   5.056 -0.0173  0.6086  0.2642
11834TIP3    H156917   2.770   3.652   4.981 -0.4538  1.2009 -0.2939
11834TIP3    H256918   2.629   3.658   5.034 -0.0406  0.0154  1.0040
11835TIP3   OH256919   6.346   2.020   4.170  0.1426 -0.2543  0.2029
11835TIP3    H156920   6.395   1.995   4.091  1.4006  1.2068  0.4545
11835TIP3    H256921   6.364   1.950   4.233  0.3685 -0.6746 -0.3207
11836TIP3   OH256922   2.345   4.657  11.025  0.2472  0.0915  0.1282
11836TIP3    H156923   2.351   4.741  11.070 -0.6233 -0.1463  0.7166
11836TIP3    H256924   2.398   4.598  11.078 -0.1883 -0.0205  0.4462
11837TIP3   OH256925   4.767   2.033  15.203 -0.2161 -0.1723  0.3592
11837TIP3    H156926   4.699   2.100  15.194  0.8764  0.8649 -0.3056
11837TIP3    H256927   4.832   2.056  15.137 -0.0603 -2.1989 -0.2599
11838TIP3   OH256928   0.912   1.726  10.657  0.1963 -0.3054  0.0964
11838TIP3    H156929   0.894   1.818  10.638  0.8926 -0.3881 -1.0599
11838TIP3    H256930   1.008   1.719  10.650  0.1429 -1.1227  0.1042
11839TIP3   OH256931   5.133   4.362  13.889 -0.5010 -0.0984  0.0420
11839TIP3    H156932   5.132   4.306  13.812 -1.4745  0.1562 -0.1407
11839TIP3    H256933   5.043   4.390  13.900 -0.1105  1.1180  0.3637
11840TIP3   OH256934   0.610   5.370  12.176 -0.0266  0.2607 -0.4130
11840TIP3    H156935   0.517   5.367  12.198  0.3898 -0.8257  1.3952
11840TIP3    H256936   0.649   5.299  12.226  1.9536  1.3705 -0.2787
11841TIP3   OH256937   5.944   0.873   5.306  0.6129  0.2171 -0.5165
11841TIP3    H156938   5.930   0.811   5.378  0.3900 -1.2098 -1.7367
11841TIP3    H256939   5.944   0.818   5.228  1.4826  1.6479 -1.5592
11842TIP3   OH256940   3.687   3.098   5.039  0.0768  0.3656 -0.1042
11842TIP3    H156941   3.595   3.105   5.015 -0.5121 -3.6127  0.4568
11842TIP3    H256942   3.693   3.140   5.125 -1.9407 -1.9229  1.2442
11843TIP3   OH256943   0.106   2.649  16.741  0.0897 -0.1503  0.1534
11843TIP3    H156944   0.072   2.585  16.678  0.0788  0.4913 -0.5150
11843TIP3    H256945   0.061   2.730  16.719  0.2871  0.1475  0.8266
11844TIP3   OH256946   2.916   6.032  14.183 -0.2396  0.0859 -0.1561
11844TIP3    H156947   2.842   5.974  14.203 -0.8916  0.8003 -0.4486
11844TIP3    H256948   2.883   6.120  14.201  0.5936  0.4036 -0.1436
11845TIP3   OH256949   0.371   0.309   6.186  0.3947  0.3523  0.1397
11845TIP3    H156950   0.377   0.214   6.192 -0.1262  0.2882 -0.2924
11845TIP3    H256951   0.369   0.327   6.092  0.7312  0.8081  0.2133
11846TIP3   OH256952   1.308   3.220   6.025  0.0678  0.1595  0.1016
11846TIP3    H156953   1.269   3.257   6.105  0.2646  1.2990 -0.3079
11846TIP3    H256954   1.283   3.282   5.956 -1.0955 -1.4214 -0.9525
11847TIP3   OH256955   6.586   0.091   2.143 -0.4564 -0.0862  0.4541
11847TIP3    H156956   6.626   0.004   2.139 -2.0180 -0.8866  1.2171
11847TIP3    H256957   6.524   0.092   2.070 -0.3284  0.4639  0.3483
11848TIP3   OH256958   4.624   6.681   2.063 -0.1944  0.0408  0.3171
11848TIP3    H156959   4.622   6.687   2.158 -1.0891 -1.7001  0.4414
11848TIP3    H256960   4.715   6.695   2.040  0.0183  0.5718  1.4112
11849TIP3   OH256961   3.958   2.230   1.528  0.2713  0.1732 -0.3366
11849TIP3    H156962   3.906   2.309   1.515 -1.1261 -0.7765 -0.8431
11849TIP3    H256963   4.024   2.233   1.459  1.0822  1.5136  0.4489
11850TIP3   OH256964   6.496   5.903   2.764 -0.6592  0.0619  0.6376
11850TIP3    H156965   6.431   5.973   2.759 -1.2260 -0.4798 -4.3158
11850TIP3    H256966   6.447   5.827   2.794 -1.4369  0.4986  0.5124
11851TIP3   OH256967   5.736   6.606  15.229  0.4244  0.0250  0.2942
11851TIP3    H156968   5.759   6.524  15.274 -1.9726 -0.8991 -0.0231
11851TIP3    H256969   5.692   6.578  15.149  0.3210  1.6423 -0.2468
11852TIP3   OH256970   0.034   0.551  11.587 -0.2807  0.3331  0.1936
11852TIP3    H156971   0.008   0.483  11.648  0.7613  0.1770  0.4892
11852TIP3    H256972   0.093   0.507  11.525  0.2668  0.9203  0.2869
11853TIP3   OH256973   1.973   2.876   1.346  0.1149  0.2128 -0.2758
11853TIP3    H156974   2.030   2.825   1.288 -1.3242 -0.0448 -1.5207
11853TIP3    H256975   2.002   2.854   1.434  1.4906 -0.4219 -0.8525
11854TIP3   OH256976   5.786   1.258  11.992 -0.6336  0.4094 -0.0009
11854TIP3    H156977   5.826   1.254  11.905 -0.8857  0.6982 -0.1296
11854TIP3    H256978   5.825   1.184  12.039 -2.0775 -1.0865 -1.0191
11855TIP3   OH256979   5.312   3.720  14.478 -0.5004  0.2520  0.3303
11855TIP3    H156980   5.365   3.799  14.463 -0.8199  0.3083 -0.5731
11855TIP3    H256981   5.374   3.657  14.515 -0.5747  1.3961  2.6149
11856TIP3   OH256982   4.719   1.308  12.330  0.1338 -0.3507 -0.0359
11856TIP3    H156983   4.623   1.310  12.338  0.1558 -0.9776  0.5591
11856TIP3    H256984   4.750   1.310  12.420  0.8017  2.6933 -0.2297
11857TIP3   OH256985   5.249   5.868   5.785  0.8561 -0.1455  0.1845
11857TIP3    H156986   5.236   5.907   5.871  2.4400 -0.2540  0.4990
11857TIP3    H256987   5.160   5.857   5.750  0.1703 -0.3821  1.9035
11858TIP3   OH256988   6.570   6.587   4.615  0.6753  0.0652  0.3799
11858TIP3    H156989   6.476   6.570   4.614  0.4338  1.2688  0.9181
11858TIP3    H256990   6.585   6.639   4.536  1.2134 -1.5647 -0.6490
11859TIP3   OH256991   5.928   4.543  11.931 -0.2141  0.1579  0.4181
11859TIP3    H156992   5.936   4.633  11.899  2.0019 -0.5325 -1.1987
11859TIP3    H256993   5.929   4.489  11.852  0.5394 -1.3868  1.4415
11860TIP3   OH256994   0.616   6.313   2.028  0.6039 -0.5461 -0.5037
11860TIP3    H156995   0.603   6.371   1.953  3.2671  0.3114 -0.3812
11860TIP3    H256996   0.563   6.353   2.097 -2.0651 -1.4654 -1.8731
11861TIP3   OH256997   2.805   6.288   5.572 -0.7623 -0.0415  0.0162
11861TIP3    H156998   2.757   6.316   5.650 -2.1838  0.3453 -0.9856
11861TIP3    H256999   2.744   6.234   5.523 -0.1870  0.4283 -1.2774
11862TIP3   OH257000   3.805   2.238  15.809  0.7485 -0.2205 -0.7675
11862TIP3    H157001   3.785   2.323  15.849  3.0098  0.5470 -1.0850
11862TIP3    H257002   3.815   2.257  15.716  1.1591 -0.8382 -0.8584
11863TIP3   OH257003   3.144   2.646  15.390 -0.0057 -0.8038  0.5910
11863TIP3    H157004   3.112   2.559  15.413 -1.6289 -0.3510  0.1943
11863TIP3    H257005   3.165   2.686  15.475 -0.6276 -1.0899  0.8930
11864TIP3   OH257006   4.921   2.858  11.966  0.1486 -0.1401  0.4494
11864TIP3    H157007   4.987   2.912  12.010  0.9722  1.9858 -2.9854
11864TIP3    H257008   4.845   2.916  11.956  0.2771 -0.2168 -1.4718
11865TIP3   OH257009   4.280   5.085  11.589 -0.1913  0.5625 -0.0207
11865TIP3    H157010   4.264   5.096  11.496  0.5581  0.6853 -0.1440
11865TIP3    H257011   4.224   5.012  11.615 -0.9345  0.9856 -0.4138
11866TIP3   OH257012   6.048   1.860  14.850  0.3012  0.1560  0.0755
11866TIP3    H157013   5.991   1.877  14.775  3.0788  3.2346 -1.5920
11866TIP3    H257014   6.133   1.838  14.811  2.2113  3.2019  2.1117
11867TIP3   OH257015   3.419   4.006   0.465 -0.2556  0.3962  0.0779
11867TIP3    H157016   3.324   3.995   0.463 -0.5356  1.6094  2.6617
11867TIP3    H257017   3.433   4.097   0.440  0.2316  0.2416 -0.2181
11868TIP3   OH257018   0.005   4.029   2.638  0.3898 -0.1108  0.0310
11868TIP3    H157019   0.064   4.024   2.713  0.3448  0.7967  0.1457
11868TIP3    H257020   0.055   4.076   2.571 -0.5017  1.5735  0.4707
11869TIP3   OH257021   0.925   3.340  12.847  0.5017 -0.0784 -0.0321
11869TIP3    H157022   0.964   3.301  12.769  0.0230  2.2597 -1.5554
11869TIP3    H257023   0.996   3.392  12.886  0.9428 -1.7682  1.5788
11870TIP3   OH257024   4.267   0.252  14.733  0.0866 -0.3293  0.5441
11870TIP3    H157025   4.325   0.177  14.740 -1.2695 -1.6718 -1.4941
11870TIP3    H257026   4.190   0.219  14.688 -1.6132  1.7528  1.7275
11871TIP3   OH257027   1.041   5.594  13.043  0.3588  0.4224  0.0005
11871TIP3    H157028   1.017   5.686  13.050  2.1771  0.9624 -0.3064
11871TIP3    H257029   1.004   5.565  12.959  1.7265  1.5490 -1.0375
11872TIP3   OH257030   3.825   1.941   4.779  0.0113 -0.0402  0.7322
11872TIP3    H157031   3.787   2.028   4.781  1.8241  0.8889 -1.2822
11872TIP3    H257032   3.920   1.955   4.784  0.3819 -1.8189 -0.1321
11873TIP3   OH257033   0.100   1.177   5.733 -0.1534  0.0806 -0.5299
11873TIP3    H157034   0.144   1.180   5.648 -1.0906  0.2460 -1.0210
11873TIP3    H257035   0.111   1.265   5.769 -2.5568  1.0568 -1.9628
11874TIP3   OH257036   5.978   2.695   2.119 -0.2439 -0.0488 -0.1438
11874TIP3    H157037   6.020   2.625   2.169 -1.2963  0.0651  0.9460
11874TIP3    H257038   6.027   2.699   2.037 -1.5144 -3.5969 -1.2563
11875TIP3   OH257039   3.594   3.208  14.337 -0.2449  0.0513 -0.6273
11875TIP3    H157040   3.661   3.196  14.270  1.1467 -0.3673  0.7793
11875TIP3    H257041   3.620   3.288  14.384 -0.2747 -0.5335  0.4259
11876TIP3   OH257042   0.895   3.946   0.759 -0.5400 -0.3695 -0.5857
11876TIP3    H157043   0.934   3.875   0.810 -2.6370 -0.2217  1.3717
11876TIP3    H257044   0.818   3.906   0.718 -0.0742  0.0653 -1.9242
11877TIP3   OH257045   0.609   5.736   1.193  0.4231  0.4292 -0.1788
11877TIP3    H157046   0.567   5.658   1.155 -0.6983  1.0969 -0.3631
11877TIP3    H257047   0.688   5.748   1.141 -0.5780  0.7448 -1.6964
11878TIP3   OH257048   5.326   5.750   4.618  0.1894 -0.6723  0.0763
11878TIP3    H157049   5.286   5.832   4.589 -0.4127 -1.1928 -0.6162
11878TIP3    H257050   5.392   5.730   4.550 -0.1155 -1.0841 -0.1035
11879TIP3   OH257051   4.602   3.884  12.168  0.0616 -0.0323 -0.1990
11879TIP3    H157052   4.622   3.945  12.096 -0.0286 -0.3715 -0.5150
11879TIP3    H257053   4.559   3.811  12.125 -1.3671  0.4324  0.3992
11880TIP3   OH257054   5.188   2.363   4.907 -0.7441  0.0410 -0.7255
11880TIP3    H157055   5.266   2.416   4.923 -1.9752  1.3050  1.4829
11880TIP3    H257056   5.219   2.273   4.913  0.0884  0.4233  3.5666
11881TIP3   OH257057   0.007   3.448  16.016  0.6526  0.2661  0.2341
11881TIP3    H157058   0.013   3.542  16.032 -0.4467  0.7097 -1.6470
11881TIP3    H257059  -0.083   3.425  16.039  0.9818 -0.4082  0.9183
11882TIP3   OH257060   4.084   0.157   5.443 -0.1613 -0.0797 -0.7012
11882TIP3    H157061   4.030   0.081   5.420  1.1094 -0.9452 -0.9532
11882TIP3    H257062   4.041   0.195   5.519 -0.9143 -0.9720 -0.6589
11883TIP3   OH257063   5.988   3.586   5.316  0.0678  0.0302  0.0433
11883TIP3    H157064   6.053   3.543   5.372  0.9618  0.4035 -0.6749
11883TIP3    H257065   5.945   3.649   5.373  1.0015  0.4470  0.3155
11884TIP3   OH257066   3.588   4.031  14.175  0.1598 -0.1287 -0.2776
11884TIP3    H157067   3.612   4.069  14.090 -0.0853 -0.5414 -0.5366
11884TIP3    H257068   3.671   3.997  14.210  0.6048  1.5942  0.4709
11885TIP3   OH257069   0.449   5.062   0.048  0.5839 -0.4185  1.1647
11885TIP3    H157070   0.416   5.035   0.133  0.8395  1.0680  1.7669
11885TIP3    H257071   0.543   5.042   0.051  0.1484 -3.0114  0.1119
11886TIP3   OH257072   1.830   2.534  12.626  0.2996  0.0778 -0.1643
11886TIP3    H157073   1.822   2.522  12.531  0.1473 -1.2399 -0.0104
11886TIP3    H257074   1.918   2.504  12.647 -0.6305 -2.4794  0.4558
11887TIP3   OH257075   2.991   0.552  12.780 -0.3769 -0.3194 -0.1243
11887TIP3    H157076   2.900   0.522  12.774 -0.6421 -0.2093  2.2210
11887TIP3    H257077   2.988   0.626  12.840  1.1109  0.5501 -1.0595
11888TIP3   OH257078   4.195   4.591   4.875  0.5356 -0.1319  0.2471
11888TIP3    H157079   4.170   4.677   4.910  0.1029  0.4451 -1.3745
11888TIP3    H257080   4.120   4.564   4.822  0.3892 -1.8611  1.2701
11889TIP3   OH257081   3.364   4.063  11.923 -0.0172 -0.5404  0.1792
11889TIP3    H157082   3.294   4.097  11.867  1.3693 -0.5798 -1.6494
11889TIP3    H257083   3.434   4.040  11.863  1.9515  0.3359  2.0209
11890TIP3   OH257084   5.424   4.876   2.766  0.1903 -0.0617 -0.2700
11890TIP3    H157085   5.498   4.823   2.795  1.8357  1.0430 -2.1974
11890TIP3    H257086   5.460   4.932   2.696 -2.5839  0.1252 -1.6898
11891TIP3   OH257087   6.320   5.062  12.375 -0.2989 -0.1992 -0.3753
11891TIP3    H157088   6.272   5.045  12.293 -2.0076 -0.1588  0.5606
11891TIP3    H257089   6.259   5.034  12.443  2.1962 -3.1543  0.8951
11892TIP3   OH257090   3.887   4.069   2.872  0.6034 -0.0476  0.0242
11892TIP3    H157091   3.824   3.997   2.876  2.3751 -1.6397  0.4647
11892TIP3    H257092   3.917   4.069   2.781 -0.2208  0.9247 -0.2693
11893TIP3   OH257093   0.931   5.481   0.174 -0.1654 -0.0715  0.4253
11893TIP3    H157094   0.979   5.483   0.091  0.2465  0.2300  0.6674
11893TIP3    H257095   0.841   5.503   0.150  0.1164  0.8425  0.1587
11894TIP3   OH257096   5.702   5.263  13.848  0.1810 -0.3937  0.1579
11894TIP3    H157097   5.708   5.169  13.869  1.2607 -0.5336 -0.6747
11894TIP3    H257098   5.786   5.299  13.877  0.4332 -0.0098 -1.0080
11895TIP3   OH257099   4.012   5.413   0.510  0.1991  0.3208 -0.4123
11895TIP3    H157100   4.022   5.340   0.572  1.1166  0.5187 -0.3178
11895TIP3    H257101   4.068   5.390   0.436 -1.2503 -0.1413 -1.4179
11896TIP3   OH257102   5.966   4.334   6.190  0.6876 -0.6010  0.1782
11896TIP3    H157103   5.925   4.247   6.194 -0.0135 -0.3057 -0.4889
11896TIP3    H257104   5.913   4.388   6.249  0.9448 -0.5456  0.3617
11897TIP3   OH257105   5.272   5.353   1.289 -0.5668  0.1678 -0.2989
11897TIP3    H157106   5.287   5.409   1.213  1.3867 -1.0899 -0.9506
11897TIP3    H257107   5.199   5.297   1.263 -0.7840  0.6309 -0.7104
11898TIP3   OH257108   5.002   4.428  13.333  0.0117 -0.1289  0.2720
11898TIP3    H157109   5.063   4.415  13.261 -0.8919  3.2591 -1.3293
11898TIP3    H257110   4.939   4.356  13.326  1.1638 -1.0516 -0.9330
11899TIP3   OH257111   3.651   2.771  11.164  0.4229 -0.0685 -0.9341
11899TIP3    H157112   3.613   2.692  11.126  0.6565 -0.8323  0.3486
11899TIP3    H257113   3.696   2.813  11.091  1.2208 -1.7066 -1.4493
11900TIP3   OH257114   2.468   2.294  12.387  0.2658  1.0114 -0.4669
11900TIP3    H157115   2.377   2.309  12.413  0.4463 -1.0557  1.7319
11900TIP3    H257116   2.476   2.199  12.380  2.4029  1.0960  0.0915
11901TIP3   OH257117   5.669   4.655  15.488 -0.1750  0.6202 -0.0263
11901TIP3    H157118   5.749   4.706  15.496  1.5989 -1.7202 -1.5323
11901TIP3    H257119   5.673   4.617  15.400 -1.9744 -1.1182  0.5508
11902TIP3   OH257120   0.013   6.267  14.593  0.7846  0.1086  0.2010
11902TIP3    H157121  -0.055   6.212  14.555  1.5997 -0.7775 -0.0329
11902TIP3    H257122   0.054   6.212  14.659  0.1217  1.2439  1.6167
11903TIP3   OH257123   5.777   6.346  12.701  0.0168  0.1409  0.4465
11903TIP3    H157124   5.830   6.302  12.635 -1.2866 -0.4946 -0.2316
11903TIP3    H257125   5.687   6.335  12.670 -0.6199  0.1047  2.1738
11904TIP3   OH257126   0.598   6.377   4.869 -0.2636 -0.2028 -0.0315
11904TIP3    H157127   0.581   6.400   4.960  1.6519  0.4552  0.1974
11904TIP3    H257128   0.569   6.453   4.819  0.0058  0.0252  0.1586
11905TIP3   OH257129   2.012   4.147  15.962 -0.1938 -0.5097 -0.0051
11905TIP3    H157130   2.090   4.189  15.927  0.5578 -2.2510 -0.5144
11905TIP3    H257131   1.976   4.096  15.889 -0.3235 -1.7731  0.8996
11906TIP3   OH257132   5.021   6.140  13.356 -0.2828 -0.2164  0.3981
11906TIP3    H157133   5.089   6.112  13.295  1.1372  1.7758  0.9595
11906TIP3    H257134   5.040   6.232  13.373  0.7108 -1.0241  5.3360
11907TIP3   OH257135   0.095   3.149   3.755 -0.7954 -0.7852 -0.3428
11907TIP3    H157136   0.087   3.059   3.724  0.9951 -0.7208 -1.1808
11907TIP3    H257137   0.054   3.150   3.841 -0.8768 -2.3961 -0.3475
11908TIP3   OH257138   2.601   4.531   3.664  0.1645 -0.3153  0.7144
11908TIP3    H157139   2.649   4.484   3.596 -1.1487 -1.1679  0.3312
11908TIP3    H257140   2.642   4.504   3.746 -0.8702 -2.6130  0.5446
11909TIP3   OH257141   5.836   3.472  15.659 -0.0484 -0.1749 -0.5022
11909TIP3    H157142   5.919   3.461  15.705  0.7966 -1.0061 -2.1311
11909TIP3    H257143   5.782   3.524  15.718  1.9679  1.2291  0.1917
11910TIP3   OH257144   2.979   0.331   6.290 -0.4155  0.4181 -0.1710
11910TIP3    H157145   3.048   0.288   6.340  0.1960  0.3406 -1.0589
11910TIP3    H257146   2.996   0.425   6.301 -0.3308  0.4010 -0.1530
11911TIP3   OH257147   6.741   0.898  16.208  0.0583 -0.1592  0.2688
11911TIP3    H157148   6.651   0.889  16.239 -0.8248  2.7166 -1.1209
11911TIP3    H257149   6.745   0.985  16.169  3.0557 -0.7750 -1.1323
11912TIP3   OH257150   2.206   5.120  13.416  0.3191 -0.4563  0.4581
11912TIP3    H157151   2.221   5.138  13.323 -0.8420 -2.6620 -0.2131
11912TIP3    H257152   2.120   5.158  13.434  2.1669  3.7756  1.8825
11913TIP3   OH257153   0.328   1.624   0.359  0.7620  0.6335 -0.3766
11913TIP3    H157154   0.290   1.565   0.424  2.0530  0.0272 -0.1490
11913TIP3    H257155   0.291   1.595   0.276 -0.0733  0.7344 -0.0540
11914TIP3   OH257156   2.183   4.818   4.014 -0.9132 -0.1749  0.2174
11914TIP3    H157157   2.271   4.852   4.029  0.2005 -2.9082  0.5056
11914TIP3    H257158   2.184   4.788   3.923 -0.9344 -1.6655  0.6698
11915TIP3   OH257159   4.703   0.724   0.430 -0.1654  0.2030 -0.1810
11915TIP3    H157160   4.715   0.817   0.412 -0.7986  0.1352 -0.9604
11915TIP3    H257161   4.777   0.681   0.387 -0.9843  0.1609 -1.5814
11916TIP3   OH257162   4.948   1.959  15.612  0.5853 -0.6295 -0.1927
11916TIP3    H157163   4.960   2.042  15.659 -0.4692 -0.0987 -0.8169
11916TIP3    H257164   5.035   1.939  15.577  0.9074  0.0851  0.1694
11917TIP3   OH257165   3.163   1.614   2.164  0.2778  0.1666  0.2903
11917TIP3    H157166   3.093   1.589   2.104 -0.3201 -0.0026  1.0402
11917TIP3    H257167   3.203   1.531   2.189  0.0632  0.1746  0.6673
11918TIP3   OH257168   5.936   6.126   6.431  0.0992  0.6412  0.6948
11918TIP3    H157169   5.850   6.106   6.469 -0.9164 -1.7564 -2.3750
11918TIP3    H257170   5.916   6.168   6.347  1.8212 -0.4788 -0.3477
11919TIP3   OH257171   2.347   0.273  11.463 -0.8037 -0.8783  0.1088
11919TIP3    H157172   2.361   0.286  11.370  0.2781 -2.2719  0.0329
11919TIP3    H257173   2.254   0.250  11.471 -1.1769  0.3908 -0.4627
11920TIP3   OH257174   3.235   6.312   1.785 -0.5485 -0.2671  0.1572
11920TIP3    H157175   3.211   6.387   1.730 -0.3162 -1.1793 -1.2247
11920TIP3    H257176   3.221   6.344   1.875 -0.4565  1.4207 -0.3835
11921TIP3   OH257177   6.386   5.665   1.731  0.1711  0.1297 -0.4574
11921TIP3    H157178   6.475   5.636   1.710 -0.1731 -1.0831 -0.3283
11921TIP3    H257179   6.362   5.614   1.809 -0.3650  0.9946 -0.0421
11922TIP3   OH257180   0.887   1.531   4.620 -0.3351 -0.0371  0.4734
11922TIP3    H157181   0.878   1.606   4.560 -1.0205 -0.0132  0.5928
11922TIP3    H257182   0.972   1.544   4.662  0.4124 -0.3468 -0.8927
11923TIP3   OH257183   4.866   4.429  17.003 -0.5994 -0.1767  1.2257
11923TIP3    H157184   4.840   4.370  16.932 -1.4661  0.5828  0.8887
11923TIP3    H257185   4.834   4.388  17.082 -1.4594 -0.0403  0.9626
11924TIP3   OH257186   2.178   6.498  12.256 -0.2559  0.2765 -0.0166
11924TIP3    H157187   2.154   6.519  12.166  0.6335 -1.1438 -0.6268
11924TIP3    H257188   2.262   6.542  12.269  1.1139 -1.8998 -0.9574
11925TIP3   OH257189   2.962   1.060   5.298  0.4103  0.0718 -0.4237
11925TIP3    H157190   2.893   1.115   5.336  0.2825 -0.7793  0.6160
11925TIP3    H257191   2.955   1.075   5.204  0.4064  1.8637 -0.1753
11926TIP3   OH257192   2.823   0.329   5.451 -0.3830  0.0044  0.0198
11926TIP3    H157193   2.804   0.362   5.363 -1.0555 -0.2630  0.0565
11926TIP3    H257194   2.841   0.407   5.502  0.8647  0.1089 -0.5456
11927TIP3   OH257195   4.492   2.692  11.584  0.1819  0.0113  0.1745
11927TIP3    H157196   4.409   2.699  11.630  1.4356 -0.9196  2.8243
11927TIP3    H257197   4.470   2.657  11.498 -2.2510  1.1481  0.2707
11928TIP3   OH257198   3.213   6.077   3.507 -0.9144 -0.0020  0.0240
11928TIP3    H157199   3.159   6.155   3.514  1.5630  1.8002  0.4500
11928TIP3    H257200   3.222   6.062   3.413 -1.0145  0.5284 -0.0716
11929TIP3   OH257201   5.551   3.227  12.017  0.0562 -0.7730  0.0947
11929TIP3    H157202   5.618   3.228  12.086  0.8724 -0.5921 -0.6805
11929TIP3    H257203   5.474   3.265  12.058  1.5002  2.6397 -0.0131
11930TIP3   OH257204   6.503   2.239  15.152 -0.3694 -0.3853 -0.2389
11930TIP3    H157205   6.422   2.273  15.113  0.1030  0.6645 -0.3457
11930TIP3    H257206   6.550   2.200  15.079 -0.4391 -0.3216 -0.3187
11931TIP3   OH257207   1.766   0.733   2.554 -0.0015  0.0988 -0.2410
11931TIP3    H157208   1.763   0.739   2.458  0.8832 -1.5637 -0.4211
11931TIP3    H257209   1.677   0.750   2.582 -0.4244 -0.0528 -1.4174
11932TIP3   OH257210   0.891   0.646  11.399  0.1674  0.1698  0.1846
11932TIP3    H157211   0.951   0.571  11.406  1.5585  1.0898 -1.1186
11932TIP3    H257212   0.806   0.606  11.377  0.5295 -1.1035  0.9684
11933TIP3   OH257213   6.520   2.289  11.680 -0.0549 -0.1333  0.9774
11933TIP3    H157214   6.474   2.309  11.599 -0.1647  0.1300  1.1057
11933TIP3    H257215   6.575   2.214  11.658 -1.5096 -1.3098  1.1564
11934TIP3   OH257216   3.545   0.116  13.726 -0.1640 -0.3231 -0.2461
11934TIP3    H157217   3.556   0.138  13.818  1.3248  0.6468 -0.6249
11934TIP3    H257218   3.594   0.035  13.714  2.1036  1.0519 -0.7468
11935TIP3   OH257219   2.582   0.161   4.705 -0.3572 -0.3622 -0.5287
11935TIP3    H157220   2.624   0.083   4.741  1.8092 -0.3757 -2.7889
11935TIP3    H257221   2.588   0.150   4.610 -1.6923  1.7002 -0.9227
11936TIP3   OH257222   1.545   1.487   1.431  0.0152 -0.0152  0.4106
11936TIP3    H157223   1.542   1.448   1.518 -0.3680 -0.4735  0.1959
11936TIP3    H257224   1.470   1.449   1.385 -0.5652  1.2125  0.3023
11937TIP3   OH257225   6.702   6.589  12.978 -0.4211  0.1879 -0.4412
11937TIP3    H157226   6.791   6.610  12.947  0.3512 -2.8136 -0.5229
11937TIP3    H257227   6.708   6.597  13.073 -0.1612  0.2810 -0.4626
11938TIP3   OH257228   1.758   3.950   1.801  0.3605  0.8300 -0.4202
11938TIP3    H157229   1.735   3.857   1.801  0.2168  0.8342 -2.3105
11938TIP3    H257230   1.802   3.964   1.717 -0.1078  2.5783 -0.4123
11939TIP3   OH257231   3.049   6.710   1.528  0.6535  0.3285  0.2622
11939TIP3    H157232   3.064   6.792   1.575 -1.3282  1.0599 -0.2415
11939TIP3    H257233   2.960   6.684   1.554 -0.6731  0.9194 -3.1619
11940TIP3   OH257234   0.070   2.485   3.220 -0.1641  0.0430 -0.5213
11940TIP3    H157235   0.025   2.471   3.304  0.2200 -2.0895 -0.5920
11940TIP3    H257236   0.038   2.569   3.189 -1.2844  0.2968  1.1694
11941TIP3   OH257237   1.253   0.637  11.233  0.0286 -0.5309  0.5040
11941TIP3    H157238   1.283   0.662  11.145 -2.7182 -0.2354 -0.4561
11941TIP3    H257239   1.333   0.614  11.280  1.7215  0.4947 -1.6806
11942TIP3   OH257240   1.675   3.409  15.791  0.1433 -0.0680  0.1397
11942TIP3    H157241   1.649   3.318  15.801  1.0529 -0.4944 -1.1342
11942TIP3    H257242   1.771   3.406  15.786  0.1537  0.9027 -0.4103
11943TIP3   OH257243   4.263   6.249  14.360 -0.4835  0.1022 -0.0784
11943TIP3    H157244   4.290   6.339  14.375 -0.5262  0.3048 -1.1833
11943TIP3    H257245   4.168   6.253  14.352 -0.4844 -0.0443 -0.1384
11944TIP3   OH257246   0.248   1.780   4.839  0.0545 -0.2194 -0.0398
11944TIP3    H157247   0.264   1.716   4.769 -0.4326 -0.2233 -0.1508
11944TIP3    H257248   0.269   1.864   4.801  1.5233 -0.3810  0.3688
11945TIP3   OH257249   0.525   1.842  11.672 -0.3469 -0.0346 -0.3206
11945TIP3    H157250   0.554   1.803  11.754 -1.0694  0.6754  0.2910
11945TIP3    H257251   0.511   1.768  11.614  0.6021 -0.5181  0.0468
11946TIP3   OH257252   5.383   1.039   0.718  0.2605 -0.0046  0.2978
11946TIP3    H157253   5.443   1.040   0.793  0.8577  1.2954 -0.1637
11946TIP3    H257254   5.440   1.038   0.641 -0.3451 -1.1107 -0.1600
11947TIP3   OH257255   1.022   3.886   6.077  0.4126 -0.3946 -0.1767
11947TIP3    H157256   0.976   3.907   6.158  0.2547 -2.1470  0.2443
11947TIP3    H257257   1.103   3.844   6.106 -0.4517 -2.7247 -0.8425
11948TIP3   OH257258   5.258   0.684   2.138  0.2424 -0.0281 -0.1854
11948TIP3    H157259   5.348   0.702   2.166  0.3318 -1.9109  0.9478
11948TIP3    H257260   5.244   0.743   2.064  2.2857  0.5501 -0.1936
11949TIP3   OH257261   5.780   1.742  16.677 -0.2863  0.1331 -0.3163
11949TIP3    H157262   5.773   1.683  16.603  0.7692  1.8545 -1.8772
11949TIP3    H257263   5.690   1.752  16.709 -0.6670 -1.0908 -0.9622
11950TIP3   OH257264   4.772   0.942   3.847  0.4284 -0.3311 -0.3795
11950TIP3    H157265   4.867   0.938   3.861  0.4262  0.2703 -0.1347
11950TIP3    H257266   4.762   0.973   3.757  0.4965  1.4777  0.1898
11951TIP3   OH257267   4.766   3.829   5.568 -0.1330 -0.8794 -0.0768
11951TIP3    H157268   4.756   3.767   5.640 -1.1839 -1.3809 -0.6361
11951TIP3    H257269   4.848   3.805   5.526  1.3950  0.4996  1.9606
11952TIP3   OH257270   0.332   1.615   3.087 -0.3944 -0.4948  0.8461
11952TIP3    H157271   0.368   1.698   3.116 -1.8905  0.4733  0.0605
11952TIP3    H257272   0.239   1.620   3.108 -1.0932 -0.7172 -1.8255
11953TIP3   OH257273   6.568   3.384   3.180 -0.0866  0.5194  0.2844
11953TIP3    H157274   6.616   3.302   3.190  1.7917  1.2089 -2.1582
11953TIP3    H257275   6.609   3.443   3.243  0.2746  0.2955  0.2616
11954TIP3   OH257276   3.922   1.663  13.095 -0.1959 -0.2216  0.0745
11954TIP3    H157277   3.917   1.568  13.091 -1.4755 -0.1532 -0.1350
11954TIP3    H257278   3.918   1.683  13.189 -1.2115 -0.3243  0.0638
11955TIP3   OH257279   6.472   3.862   5.611 -0.4536  0.3749 -0.6651
11955TIP3    H157280   6.399   3.820   5.657  0.5030  0.5227  1.0230
11955TIP3    H257281   6.435   3.943   5.577 -1.3185 -0.0054 -0.6619
11956TIP3   OH257282   3.069   4.410   2.966 -0.2280 -0.1915  0.1562
11956TIP3    H157283   3.054   4.496   2.926  1.6801 -0.3910 -1.1711
11956TIP3    H257284   3.163   4.410   2.985  0.0743 -2.4189 -1.0369
11957TIP3   OH257285   1.600   1.163  17.123 -0.2644 -0.0546 -0.3812
11957TIP3    H157286   1.528   1.109  17.093 -0.5082 -1.3018  2.1639
11957TIP3    H257287   1.602   1.150  17.218  1.0265  2.7830  0.0936
11958TIP3   OH257288   3.357   4.624   3.291 -0.6498 -0.4370 -0.5002
11958TIP3    H157289   3.356   4.587   3.379  0.5519 -0.1857 -0.3636
11958TIP3    H257290   3.369   4.718   3.304  0.3655 -0.4865 -0.9227
11959TIP3   OH257291   1.890   6.155  16.306  0.2745 -0.1581 -0.6797
11959TIP3    H157292   1.832   6.192  16.373  0.9913  0.4923 -0.4136
11959TIP3    H257293   1.830   6.132  16.234 -0.0498  4.0439 -2.0684
11960TIP3   OH257294   6.604   2.283   3.062 -0.1887 -0.3189  0.4807
11960TIP3    H157295   6.585   2.211   3.002  1.0860 -0.2235 -0.0913
11960TIP3    H257296   6.615   2.241   3.147  0.4111 -0.8080  0.1775
11961TIP3   OH257297   0.838   1.674  15.680  0.1788  0.5077 -0.2229
11961TIP3    H157298   0.782   1.621  15.737  1.1103  0.1844  0.4264
11961TIP3    H257299   0.914   1.696  15.735 -0.6603  3.5058 -0.0709
11962TIP3   OH257300   0.334   0.346  12.321 -0.0951  0.6358  0.3886
11962TIP3    H157301   0.327   0.258  12.283  1.3030 -0.2840  2.1007
11962TIP3    H257302   0.260   0.393  12.285 -0.3555 -0.9493 -1.3397
11963TIP3   OH257303   5.262   6.499  13.505  0.1485  0.3795 -0.1764
11963TIP3    H157304   5.229   6.454  13.582 -1.7122 -1.2124 -1.7762
11963TIP3    H257305   5.345   6.455  13.485 -0.8004 -1.2355 -0.7120
11964TIP3   OH257306   2.204   2.650   2.890 -0.0564  0.2019  0.3869
11964TIP3    H157307   2.248   2.728   2.924 -1.3028 -0.2355  3.3422
11964TIP3    H257308   2.123   2.643   2.941 -0.5519 -2.3748 -0.5626
11965TIP3   OH257309   6.283   5.058   4.518  0.0108  0.2548  0.7178
11965TIP3    H157310   6.199   5.015   4.527  0.1070 -0.3644 -0.9583
11965TIP3    H257311   6.347   4.994   4.549 -0.1098  0.7022  1.9329
11966TIP3   OH257312   3.624   2.095  14.265 -0.2384  0.3630 -0.2551
11966TIP3    H157313   3.629   2.001  14.249  0.1185  0.4445 -0.6260
11966TIP3    H257314   3.532   2.111  14.286  0.1148 -0.4689  2.3628
11967TIP3   OH257315   0.803   5.027  14.906 -0.0219 -0.5981 -0.2558
11967TIP3    H157316   0.755   5.105  14.933  1.2125  0.2909 -0.5161
11967TIP3    H257317   0.839   4.991  14.987 -0.9087 -1.1457 -0.0870
11968TIP3   OH257318   4.970   0.128  11.907 -1.0662 -0.1058  0.7033
11968TIP3    H157319   4.893   0.091  11.863 -0.1167 -1.4906  0.1490
11968TIP3    H257320   5.043   0.106  11.850 -0.1730  0.6772  1.5181
11969TIP3   OH257321   3.405   6.584  15.383 -0.2577  0.3332 -0.3379
11969TIP3    H157322   3.363   6.580  15.469 -0.3494  2.3074 -0.2371
11969TIP3    H257323   3.338   6.553  15.322  0.2814 -2.5074  0.3698
11970TIP3   OH257324   3.849   0.703  16.768  0.0462  0.3642  0.2956
11970TIP3    H157325   3.906   0.778  16.787 -1.0428  1.2481  0.1609
11970TIP3    H257326   3.850   0.696  16.673  0.7139 -0.2665  0.3359
11971TIP3   OH257327   1.808   0.559  15.293  0.2321 -0.1209 -0.0631
11971TIP3    H157328   1.724   0.596  15.320 -0.0274  0.1951 -1.2719
11971TIP3    H257329   1.865   0.635  15.280  0.2145 -0.2392 -0.8559
11972TIP3   OH257330   1.662   4.995   4.238  0.4543  0.6079  0.2737
11972TIP3    H157331   1.571   5.022   4.250 -0.2750 -0.3025 -2.4757
11972TIP3    H257332   1.688   5.034   4.155  1.5857 -1.5134 -0.4456
11973TIP3   OH257333   4.761   5.331   3.576  0.1362 -0.3037  0.0126
11973TIP3    H157334   4.823   5.306   3.508  2.1628 -1.8183  2.2954
11973TIP3    H257335   4.795   5.414   3.610  0.0782 -0.4148  0.3364
11974TIP3   OH257336   5.988   4.855   2.437  0.0327 -0.0611 -0.2404
11974TIP3    H157337   5.929   4.925   2.410  1.8539  1.8201  0.3815
11974TIP3    H257338   5.997   4.866   2.532 -0.6959 -2.0639  0.1169
11975TIP3   OH257339   5.055   6.641  13.932  0.4424 -0.0865 -0.5365
11975TIP3    H157340   5.118   6.705  13.965 -0.7075 -0.9922  4.1122
11975TIP3    H257341   5.091   6.556  13.958 -0.3926 -1.0132 -2.2515
11976TIP3   OH257342   2.575   6.504   4.581 -0.3907  0.4284 -0.0996
11976TIP3    H157343   2.667   6.492   4.559  0.1592  1.7923  1.2666
11976TIP3    H257344   2.527   6.476   4.503  1.0385 -2.3013 -0.1230
11977TIP3   OH257345   6.040   2.084  12.603  0.4587  0.1197 -0.1013
11977TIP3    H157346   5.944   2.075  12.600  0.5283 -1.7956  1.5280
11977TIP3    H257347   6.063   2.060  12.693  2.6130 -1.0832 -0.9199
11978TIP3   OH257348   1.895   3.138  14.403 -0.0113  0.9098  0.1872
11978TIP3    H157349   1.830   3.081  14.443  0.2138 -0.8007 -1.7416
11978TIP3    H257350   1.843   3.202  14.353 -0.2569  0.4185 -0.1999
11979TIP3   OH257351   5.770   0.793   1.654 -0.3488 -0.1380 -0.2854
11979TIP3    H157352   5.698   0.846   1.619  0.0480  0.9194  0.4469
11979TIP3    H257353   5.754   0.789   1.748  0.2537 -0.3458 -0.1855
11980TIP3   OH257354   3.316   6.591  10.649  0.7703  0.0411  0.0890
11980TIP3    H157355   3.258   6.648  10.698  0.9703 -0.1221  0.5202
11980TIP3    H257356   3.394   6.644  10.632  1.3362 -0.3671  1.2713
11981TIP3   OH257357   2.551   2.050  16.837 -0.2668 -0.3300 -0.4921
11981TIP3    H157358   2.610   2.073  16.908 -2.1972  0.2161  1.0090
11981TIP3    H257359   2.592   2.088  16.759  2.0983 -1.2636  0.1885
11982TIP3   OH257360   5.177   0.046  13.419 -0.2479  0.5795  0.0296
11982TIP3    H157361   5.222   0.047  13.503 -1.1179  2.1293  0.5102
11982TIP3    H257362   5.246   0.034  13.354  0.3010 -2.2965  0.9900
11983TIP3   OH257363   4.466   0.083   0.713  0.1934 -0.0305  0.7254
11983TIP3    H157364   4.499   0.110   0.799 -1.2485 -0.8396  1.5626
11983TIP3    H257365   4.375   0.113   0.711  0.5388  1.0712 -1.0414
11984TIP3   OH257366   1.995   2.604   3.068 -0.0987  0.2170  0.5639
11984TIP3    H157367   1.957   2.633   2.985  1.7711 -1.1338 -0.8629
11984TIP3    H257368   1.921   2.567   3.116 -0.9053 -0.9785 -1.4501
11985TIP3   OH257369   3.617   0.389  13.910 -0.0548 -0.4296  0.7191
11985TIP3    H157370   3.702   0.372  13.870  0.6364  0.4591  1.7552
11985TIP3    H257371   3.634   0.455  13.976 -1.7863  0.7181  0.0894
11986TIP3   OH257372   0.102   4.776  14.025  0.3962  0.1435  0.1367
11986TIP3    H157373   0.014   4.783  14.063  0.6585 -1.4007  1.1375
11986TIP3    H257374   0.153   4.731  14.092  2.2089  1.7759 -0.0595
11987TIP3   OH257375   3.226   3.232  14.616  0.1005  0.1808  0.5022
11987TIP3    H157376   3.284   3.306  14.636 -0.5106  0.7577  0.1877
11987TIP3    H257377   3.282   3.169  14.571  0.7679  0.1890  1.2876
11988TIP3   OH257378   0.415   5.479   3.534 -0.1554  0.3876 -0.2920
11988TIP3    H157379   0.496   5.487   3.484  0.0605  1.2393  0.1800
11988TIP3    H257380   0.418   5.551   3.597 -1.2542  0.4009 -0.2358
11989TIP3   OH257381   2.051   0.611  12.104  0.0297  0.1702  0.0728
11989TIP3    H157382   2.051   0.598  12.199  2.2275  0.6384  0.1909
11989TIP3    H257383   2.144   0.617  12.080 -0.4761  3.2051 -1.6661
11990TIP3   OH257384   6.161   1.002   5.235 -0.0920 -0.1888 -0.0561
11990TIP3    H157385   6.070   0.983   5.259 -0.1272 -0.3595 -0.3230
11990TIP3    H257386   6.154   1.069   5.167 -0.0172 -0.2609 -0.1336
11991TIP3   OH257387   5.209   5.301   4.136 -0.1591 -0.5306  0.0050
11991TIP3    H157388   5.149   5.227   4.141 -0.2925 -0.4271 -0.0639
11991TIP3    H257389   5.241   5.313   4.226  1.4054 -1.9433 -0.3204
11992TIP3   OH257390   6.395   5.825   3.013  0.2980  0.5612  0.2541
11992TIP3    H157391   6.483   5.858   3.000 -1.3356  5.2666 -0.5257
11992TIP3    H257392   6.365   5.867   3.093 -1.6114 -0.0608 -0.0811
11993TIP3   OH257393   6.118   2.453   1.867 -0.0066  0.5730 -0.0786
11993TIP3    H157394   6.190   2.389   1.865 -0.0232  0.5589 -1.1288
11993TIP3    H257395   6.055   2.417   1.929  0.8935  0.5924  0.8693
11994TIP3   OH257396   0.512   3.832   4.465  0.2142  0.0899  1.0129
11994TIP3    H157397   0.450   3.833   4.538  1.6460  0.9875  2.2686
11994TIP3    H257398   0.575   3.900   4.486  2.9413 -2.2191  0.9653
11995TIP3   OH257399   4.403   0.410  11.793  0.1874  0.5732 -0.2482
11995TIP3    H157400   4.333   0.459  11.750 -0.5171 -0.2529 -0.0498
11995TIP3    H257401   4.451   0.369  11.721  0.0723  0.6050 -0.3438
11996TIP3   OH257402   3.450   1.985  15.455  0.6206  0.2106 -0.3371
11996TIP3    H157403   3.492   2.010  15.537  1.0239 -0.7966 -0.2236
11996TIP3    H257404   3.438   1.890  15.462 -1.1824  0.3813 -0.6004
11997TIP3   OH257405   0.366   2.726   4.084  0.1277 -0.3690  0.2492
11997TIP3    H157406   0.279   2.746   4.049  0.4967 -0.2133 -0.6124
11997TIP3    H257407   0.351   2.659   4.150 -0.5702 -0.8788 -0.4135
11998TIP3   OH257408   5.817   3.901  14.044 -0.1689  0.3834  0.8188
11998TIP3    H157409   5.782   3.939  13.964  1.7478  0.3801 -0.0723
11998TIP3    H257410   5.870   3.826  14.014 -1.7053 -1.4049  2.3197
11999TIP3   OH257411   5.353   6.339   3.778 -0.0399 -0.3392  0.4451
11999TIP3    H157412   5.433   6.381   3.807 -0.3000  0.3876  0.1149
11999TIP3    H257413   5.289   6.358   3.848 -0.1281 -0.2941  0.3520
12000TIP3   OH257414   3.725   5.978   3.295 -0.3912 -0.7359  0.9015
12000TIP3    H157415   3.681   5.919   3.234  0.0010 -0.0062 -0.1042
12000TIP3    H257416   3.655   6.034   3.328 -0.2101  0.7264 -1.0399
12001TIP3   OH257417   1.242   1.956   0.404  0.1293  0.0215 -0.1405
12001TIP3    H157418   1.175   2.023   0.415 -1.7543 -1.9099  0.9354
12001TIP3    H257419   1.292   1.984   0.327  0.7175  3.6051  1.3755
12002TIP3   OH257420   3.373   1.938  13.759 -0.4207 -0.3276 -0.4020
12002TIP3    H157421   3.425   1.858  13.762  0.9099  0.5299  1.3900
12002TIP3    H257422   3.355   1.952  13.666  0.8185 -1.7736 -0.8927
12003TIP3   OH257423   0.017   2.979   5.900  0.4372 -0.4190  0.1107
12003TIP3    H157424  -0.072   2.973   5.864 -0.0994 -0.3087  1.3862
12003TIP3    H257425   0.060   2.900   5.869 -0.0500 -0.4090 -0.6372
12004TIP3   OH257426   6.332   2.149  13.830  0.0324  0.2309 -1.0837
12004TIP3    H157427   6.367   2.101  13.754 -1.9957  0.1204 -2.0304
12004TIP3    H257428   6.241   2.167  13.806 -0.5910  0.4374  1.2408
12005TIP3   OH257429   1.164   6.393   0.429  0.0522  0.0961  0.4798
12005TIP3    H157430   1.143   6.439   0.510 -1.9047  1.6602 -0.8292
12005TIP3    H257431   1.213   6.457   0.378  1.6316 -1.0183  0.5294
12006TIP3   OH257432   2.612   3.253   5.031 -0.4174 -0.1240  0.0994
12006TIP3    H157433   2.606   3.206   5.114  2.8420 -2.2320 -0.6487
12006TIP3    H257434   2.526   3.292   5.019 -1.8992 -2.0836  3.0825
12007TIP3   OH257435   2.801   3.276   4.811 -0.0489 -0.0298  0.3867
12007TIP3    H157436   2.797   3.269   4.716 -0.1720  0.2166  0.3734
12007TIP3    H257437   2.721   3.232   4.842  1.3421 -2.7167  0.5280
12008TIP3   OH257438   1.624   0.248  13.487 -0.1473  0.1615  0.2911
12008TIP3    H157439   1.714   0.216  13.495 -0.3253 -0.3138  0.4850
12008TIP3    H257440   1.633   0.336  13.451  0.3291 -0.4003 -1.0465
12009TIP3   OH257441   3.495   5.769  11.669  0.2611  0.0236 -0.0752
12009TIP3    H157442   3.530   5.705  11.607 -0.0142 -0.2516  0.0541
12009TIP3    H257443   3.507   5.853  11.625 -2.7752 -0.3697 -1.9491
12010TIP3   OH257444   4.368   2.516   1.720 -0.3294  0.0909  0.1376
12010TIP3    H157445   4.448   2.508   1.668 -0.1055  0.8397  0.3526
12010TIP3    H257446   4.374   2.446   1.785  0.1807  0.1785  0.1909
12011TIP3   OH257447   3.967   4.807  16.721 -0.3563 -0.1211  0.0277
12011TIP3    H157448   4.027   4.866  16.765 -0.7974  1.0798 -0.8948
12011TIP3    H257449   3.936   4.857  16.645 -2.5158 -0.6625  0.4582
12012TIP3   OH257450   0.088   1.462   1.795 -0.1394  0.0931  0.8298
12012TIP3    H157451   0.030   1.409   1.741  0.5417  0.0480  0.1207
12012TIP3    H257452   0.029   1.511   1.852 -1.1308  2.1974 -1.7496
12013TIP3   OH257453   3.690   1.127   1.864  0.0917  0.1627  0.3300
12013TIP3    H157454   3.640   1.160   1.789 -0.8537 -0.5959  0.6112
12013TIP3    H257455   3.624   1.093   1.924  0.7659  1.4113  1.8537
12014TIP3   OH257456   4.166   5.454   2.771  0.4941 -0.0094  0.1502
12014TIP3    H157457   4.237   5.514   2.747  1.8843 -2.2524 -1.8234
12014TIP3    H257458   4.203   5.397   2.837  0.9066 -1.6873 -1.4382
12015TIP3   OH257459   4.649   3.574  12.253  0.0596  0.5874 -0.1420
12015TIP3    H157460   4.721   3.522  12.217  0.1672  1.3988 -1.1822
12015TIP3    H257461   4.571   3.522  12.235  0.3739 -0.3894  1.1661
12016TIP3   OH257462   5.366   6.743  16.301  0.3473  0.7000  0.6315
12016TIP3    H157463   5.317   6.684  16.359  0.1969  0.7252  0.5329
12016TIP3    H257464   5.392   6.689  16.227 -1.3875  1.1465 -0.3770
12017TIP3   OH257465   0.946   2.781   5.150  0.1093  0.0394 -0.1688
12017TIP3    H157466   0.966   2.800   5.242 -1.5829 -0.5701  0.3503
12017TIP3    H257467   1.028   2.747   5.115  1.1379  1.4081  0.7757
12018TIP3   OH257468   1.534   3.647  14.871 -1.0417 -0.3243 -0.0464
12018TIP3    H157469   1.578   3.562  14.866 -0.2610  0.0619  0.0763
12018TIP3    H257470   1.509   3.657  14.963  0.0800  0.1658  0.2159
12019TIP3   OH257471   5.044   2.826   3.453  0.0020  0.2173 -0.2313
12019TIP3    H157472   4.978   2.764   3.483  0.3514  0.9712  2.2920
12019TIP3    H257473   4.997   2.907   3.437  0.1609  0.4886  0.6468
12020TIP3   OH257474   3.648   5.499  15.453 -0.9224 -0.1796  0.1360
12020TIP3    H157475   3.697   5.482  15.372 -0.3012 -1.0482  0.6710
12020TIP3    H257476   3.701   5.562  15.501 -1.6882  0.9644 -0.4621
12021TIP3   OH257477   0.303   3.025  11.353  0.5235 -0.0922 -0.4654
12021TIP3    H157478   0.220   3.071  11.364  1.1756  1.1207 -0.4943
12021TIP3    H257479   0.314   2.975  11.433 -1.0530 -1.6533 -1.1522
12022TIP3   OH257480   4.041   4.199   5.573 -0.0214 -0.3519  0.1109
12022TIP3    H157481   4.071   4.109   5.585  0.2720 -0.1255  1.2753
12022TIP3    H257482   4.030   4.209   5.479 -1.5895 -2.0908  0.0437
12023TIP3   OH257483   0.111   3.071  12.087  0.8767  0.0996 -0.1428
12023TIP3    H157484   0.107   3.033  12.175 -1.1912  0.7051  0.0577
12023TIP3    H257485   0.097   3.164  12.101  0.0739  0.1342 -1.1573
12024TIP3   OH257486   2.328   0.081  12.826 -0.1070 -0.1503 -0.0315
12024TIP3    H157487   2.376   0.163  12.816 -0.1239 -0.0134  0.9008
12024TIP3    H257488   2.376   0.018  12.772 -0.1844  0.4959 -0.8812
12025TIP3   OH257489   3.272   0.133  10.599  0.3993 -0.2907 -0.0532
12025TIP3    H157490   3.347   0.075  10.584  0.9727  0.9294 -2.3411
12025TIP3    H257491   3.203   0.075  10.629  1.5231 -1.8572 -0.3723
12026TIP3   OH257492   0.505   6.164   0.035 -0.0565 -0.2453  0.1316
12026TIP3    H157493   0.568   6.212  -0.019 -0.7317  2.6056  1.7040
12026TIP3    H257494   0.420   6.182  -0.005 -0.2004 -1.9644 -0.4623
12027TIP3   OH257495   4.069   6.286   5.900  0.5620  0.0950 -0.4503
12027TIP3    H157496   4.034   6.347   5.834  0.9872  0.1334 -0.6428
12027TIP3    H257497   3.994   6.268   5.957  0.0378 -0.3763 -1.2674
12028TIP3   OH257498   3.480   0.290  10.396  0.5249  0.2531 -0.0677
12028TIP3    H157499   3.564   0.250  10.419  0.2048 -1.2477 -1.3264
12028TIP3    H257500   3.429   0.287  10.476  0.5986 -1.7346 -0.0436
12029TIP3   OH257501   1.675   1.648  11.799  0.6359  0.2811  0.2209
12029TIP3    H157502   1.748   1.676  11.854  1.1472  2.9517 -1.6358
12029TIP3    H257503   1.715   1.598  11.728  0.2504 -0.9302  0.8175
12030TIP3   OH257504   4.525   4.816  10.680  0.4642  0.2877 -0.5857
12030TIP3    H157505   4.469   4.893  10.667  0.5711  0.3274 -0.8274
12030TIP3    H257506   4.467   4.741  10.667 -0.0239  0.3068  1.3101
12031TIP3   OH257507   5.903   5.039   5.458  0.2932 -0.0769  0.5032
12031TIP3    H157508   5.983   5.085   5.483  0.8187 -0.2979 -0.7010
12031TIP3    H257509   5.901   5.044   5.362 -0.5981 -0.9652  0.4523
12032TIP3   OH257510   0.731   4.068  16.318 -0.0099  0.6061  0.2131
12032TIP3    H157511   0.742   4.041  16.227 -0.6652 -1.1094  0.5904
12032TIP3    H257512   0.809   4.120  16.337  1.1215 -0.6326 -0.7891
12033TIP3   OH257513   4.692   2.869   3.887  0.4830 -0.0607  0.0221
12033TIP3    H157514   4.735   2.853   3.971  1.3562 -0.1378 -0.4288
12033TIP3    H257515   4.697   2.786   3.841  0.4813  0.1263 -0.3186
12034TIP3   OH257516   3.279   6.224   4.994 -0.6712  0.1738  0.6526
12034TIP3    H157517   3.349   6.160   4.987 -2.2841 -1.5153 -1.0399
12034TIP3    H257518   3.317   6.296   5.044  2.4313 -0.3814 -0.7241
12035TIP3   OH257519   4.872   5.501   5.259 -0.0168 -0.2351  0.0564
12035TIP3    H157520   4.866   5.437   5.188  0.2368 -0.3376  0.1282
12035TIP3    H257521   4.890   5.448   5.337  2.6111  0.1046 -0.2424
12036TIP3   OH257522   0.355   5.445  15.306 -0.3174  0.2228  0.0804
12036TIP3    H157523   0.444   5.445  15.269 -0.4217 -1.2832 -0.2386
12036TIP3    H257524   0.300   5.479  15.236 -0.1529 -0.0822 -0.2046
12037TIP3   OH257525   4.762   1.006  14.257  0.2301  0.6189 -0.4248
12037TIP3    H157526   4.842   1.001  14.309 -0.1556  0.4540  0.1594
12037TIP3    H257527   4.697   1.045  14.316 -0.3803 -0.1577 -0.5602
12038TIP3   OH257528   3.105   3.080  12.342 -0.3817 -0.2570  0.0461
12038TIP3    H157529   3.142   3.149  12.397  0.2407  0.0085 -0.6828
12038TIP3    H257530   3.124   2.999  12.389  0.2784 -0.0485  0.1580
12039TIP3   OH257531   1.195   6.323   0.916 -0.2795  0.1185 -0.3372
12039TIP3    H157532   1.175   6.399   0.971 -2.9582 -1.6982  1.4758
12039TIP3    H257533   1.120   6.316   0.857  1.0086  0.1057 -2.0556
12040TIP3   OH257534   1.158   1.980   1.299  0.6401  0.2652 -0.3465
12040TIP3    H157535   1.223   2.018   1.240  0.4098 -0.5683 -1.1551
12040TIP3    H257536   1.141   2.049   1.363  1.8950  0.6937 -0.4549
12041TIP3   OH257537   4.520   2.844  16.431  0.6260  0.1783 -1.0180
12041TIP3    H157538   4.571   2.899  16.491 -0.1385 -0.2600  0.0564
12041TIP3    H257539   4.520   2.893  16.348 -1.9060  2.9828  0.4431
12042TIP3   OH257540   0.800   3.163   3.729 -0.3071 -0.0117  0.2949
12042TIP3    H157541   0.763   3.242   3.690  0.3551  0.0336 -0.2727
12042TIP3    H257542   0.788   3.096   3.662  1.6469  0.2702 -0.4179
12043TIP3   OH257543   0.007   2.409  11.518 -0.5163  0.3053  0.1634
12043TIP3    H157544  -0.080   2.397  11.557 -0.1106 -1.8748  0.5420
12043TIP3    H257545   0.068   2.381  11.586  0.3158 -1.1731 -1.1197
12044TIP3   OH257546   2.274   2.195   4.152  0.3274 -0.3611 -0.1215
12044TIP3    H157547   2.277   2.106   4.189  0.6763 -1.1261 -1.8890
12044TIP3    H257548   2.261   2.181   4.058 -0.1347  1.4910 -0.3653
12045TIP3   OH257549   5.191   3.719   3.790  0.2911  0.1179  0.3897
12045TIP3    H157550   5.215   3.801   3.746 -0.4359  0.1332 -0.0042
12045TIP3    H257551   5.271   3.667   3.790  0.3750  0.2225 -0.7277
12046TIP3   OH257552   2.238   1.048  14.708  0.0241  0.3384 -0.5869
12046TIP3    H157553   2.303   0.978  14.703 -0.2719  0.0329 -0.3247
12046TIP3    H257554   2.157   1.007  14.676 -0.4187  0.2088  0.6216
12047TIP3   OH257555   1.028   3.023  12.483  0.2798  0.2121 -0.2283
12047TIP3    H157556   0.949   3.074  12.501 -0.3009 -0.1184 -1.6514
12047TIP3    H257557   0.999   2.957  12.420  1.1998 -1.3397  0.9180
12048TIP3   OH257558   4.098   6.679   1.206 -0.3413 -0.1861 -0.3881
12048TIP3    H157559   4.079   6.771   1.186 -0.2402  0.3130  1.6512
12048TIP3    H257560   4.177   6.682   1.260 -1.0095 -1.3618  0.6998
12049TIP3   OH257561   1.389   2.825  11.884 -0.3472  0.2959 -0.2189
12049TIP3    H157562   1.361   2.778  11.963  0.8669 -0.4341 -0.1961
12049TIP3    H257563   1.484   2.833  11.894 -0.0973 -0.2815 -1.8517
12050TIP3   OH257564   1.922   1.683   0.803 -0.9301 -0.0933  0.4603
12050TIP3    H157565   1.883   1.681   0.891  0.3349 -1.8005  1.0323
12050TIP3    H257566   1.991   1.749   0.809 -0.4449 -0.6381  0.9411
12051TIP3   OH257567   6.580   3.231   4.466 -0.1939  0.0894  0.5390
12051TIP3    H157568   6.547   3.207   4.552 -0.4406 -0.5127  0.2852
12051TIP3    H257569   6.504   3.265   4.419 -0.3149 -0.6284  0.1934
12052TIP3   OH257570   6.051   5.716  12.206  0.0003 -0.0000  0.1627
12052TIP3    H157571   6.130   5.745  12.159  0.4099 -1.6583 -0.2449
12052TIP3    H257572   5.986   5.783  12.186  1.3220  1.4880  0.6203
12053TIP3   OH257573   2.472   2.405  12.116 -0.4684  0.4026  0.1128
12053TIP3    H157574   2.481   2.365  12.202 -0.9718 -3.0741 -1.2919
12053TIP3    H257575   2.549   2.461  12.106  1.1177 -1.4141  1.6958
12054TIP3   OH257576   6.596   3.902  13.446 -0.3543  0.3364  0.1548
12054TIP3    H157577   6.547   3.943  13.518 -1.1244  0.2652 -0.3220
12054TIP3    H257578   6.687   3.906  13.474 -0.5465  1.2454  0.6735
12055TIP3   OH257579   5.712   0.423   5.588 -0.4834  0.4911 -0.1955
12055TIP3    H157580   5.682   0.513   5.601 -1.1044  0.1387  1.0185
12055TIP3    H257581   5.806   0.426   5.605 -0.8269  0.5718  1.9970
12056TIP3   OH257582   6.264   1.613  17.186  0.1664  0.2708 -0.1451
12056TIP3    H157583   6.298   1.696  17.153 -0.6351  0.5204 -0.3870
12056TIP3    H257584   6.182   1.601  17.138  0.3819 -0.7745 -0.2685
12057TIP3   OH257585   5.799   6.573  15.570  0.8843  0.4981 -0.0147
12057TIP3    H157586   5.712   6.537  15.587  0.8696 -0.4652 -1.9205
12057TIP3    H257587   5.853   6.497  15.549  1.1447  1.3633 -2.9543
12058TIP3   OH257588   3.550   1.344  14.851 -0.0007  0.3745  0.5973
12058TIP3    H157589   3.641   1.321  14.834  0.1992  1.9039 -0.6795
12058TIP3    H257590   3.549   1.440  14.852 -1.6596  0.4005  0.1190
12059TIP3   OH257591   1.300   1.461  13.963 -0.0034  0.5668  0.0233
12059TIP3    H157592   1.254   1.495  14.039 -1.9656 -0.4136 -0.6576
12059TIP3    H257593   1.287   1.528  13.895  0.9105  0.9808  0.2299
12060TIP3   OH257594   0.558   0.544  14.133  0.5754 -0.1849  0.2775
12060TIP3    H157595   0.535   0.461  14.174  1.3998 -0.3070  0.5209
12060TIP3    H257596   0.652   0.553  14.149  1.1991 -0.7703 -2.5112
12061TIP3   OH257597   1.177   3.199   2.284  0.0298  0.0873 -0.3464
12061TIP3    H157598   1.209   3.136   2.348  1.1918  1.9186  0.9424
12061TIP3    H257599   1.247   3.205   2.219  0.5916  1.0907  0.3205
12062TIP3   OH257600   5.805   6.507   1.658  0.8341  0.3209  0.3647
12062TIP3    H157601   5.779   6.446   1.589  2.0148 -0.9772  1.0038
12062TIP3    H257602   5.753   6.585   1.642 -1.0020 -0.9536 -0.3111
12063TIP3   OH257603   1.372   2.870  16.966  0.1381 -0.4797  0.0308
12063TIP3    H157604   1.327   2.845  16.885  0.0049 -0.9251  0.2415
12063TIP3    H257605   1.388   2.964  16.956 -0.4899 -0.3953 -0.2143
12064TIP3   OH257606   0.149   4.093  14.131 -0.4077 -0.1109 -0.4039
12064TIP3    H157607   0.062   4.098  14.171  0.5144 -0.2394  1.7681
12064TIP3    H257608   0.188   4.178  14.150 -0.0015 -0.1036 -1.2584
12065TIP3   OH257609   5.567   4.538   4.536  0.1473  0.1170  0.6169
12065TIP3    H157610   5.624   4.578   4.470 -1.0998  1.3071  0.2165
12065TIP3    H257611   5.581   4.444   4.527  0.6153  0.3037 -0.7798
12066TIP3   OH257612   3.694   5.021   4.032 -0.4233  0.0637 -0.6425
12066TIP3    H157613   3.789   5.010   4.034 -0.5680 -1.4268  1.5778
12066TIP3    H257614   3.678   5.080   3.958  2.0484 -1.1339 -2.2507
12067TIP3   OH257615   5.178   1.344   1.810  0.3643 -0.4530  0.2767
12067TIP3    H157616   5.252   1.313   1.758  0.0508 -0.2134 -0.3207
12067TIP3    H257617   5.158   1.271   1.870  1.9429 -0.0141  1.4035
12068TIP3   OH257618   2.226   5.933   5.294  0.2218 -0.6140  0.5882
12068TIP3    H157619   2.251   5.907   5.205  0.5244  1.8261 -0.1198
12068TIP3    H257620   2.130   5.935   5.292  0.2316  0.0561  0.0674
12069TIP3   OH257621   1.959   5.317  16.254  0.3576 -0.5121  0.1122
12069TIP3    H157622   1.954   5.366  16.172 -2.1258  2.1914  1.6986
12069TIP3    H257623   1.927   5.229  16.231  0.5856 -0.1045 -1.9567
12070TIP3   OH257624   0.315   3.498  11.699 -0.2701  0.1037  0.0181
12070TIP3    H157625   0.339   3.407  11.717 -0.4135  0.2980  1.3263
12070TIP3    H257626   0.230   3.510  11.743 -0.7482  0.5929 -1.0029
12071TIP3   OH257627   4.933   6.711  12.474 -0.1827  0.3518  0.1844
12071TIP3    H157628   4.882   6.786  12.505  0.1174  1.0769 -0.9830
12071TIP3    H257629   4.916   6.708  12.380  0.3106 -0.6676  0.1127
12072TIP3   OH257630   3.351   6.556  14.416 -0.3603 -0.1525  0.7294
12072TIP3    H157631   3.299   6.476  14.427 -0.2562 -0.1256  1.4244
12072TIP3    H257632   3.287   6.627  14.414 -0.4675 -0.2595 -0.0684
12073TIP3   OH257633   5.292   4.365   3.306  0.2415 -0.4837  0.6552
12073TIP3    H157634   5.226   4.296   3.301  0.0134 -0.3937  2.0515
12073TIP3    H257635   5.334   4.352   3.391  2.2514 -0.7091 -0.3162
12074TIP3   OH257636   6.551   3.181   0.767 -0.2550 -0.2908 -0.8522
12074TIP3    H157637   6.520   3.149   0.852 -0.2128 -0.1194 -0.7718
12074TIP3    H257638   6.616   3.117   0.739  0.6185  0.2938 -0.1863
12075TIP3   OH257639   2.669   4.421   6.232 -0.0002  1.0436  0.1342
12075TIP3    H157640   2.725   4.386   6.301 -1.6304 -1.6095  0.2811
12075TIP3    H257641   2.626   4.496   6.272 -0.7885 -0.3301  2.0248
12076TIP3   OH257642   4.811   6.618   5.718 -0.2875 -0.4022  0.2508
12076TIP3    H157643   4.870   6.691   5.735  1.2983 -1.4862 -0.3268
12076TIP3    H257644   4.760   6.645   5.641  0.7603 -0.1622 -0.3712
12077TIP3   OH257645   3.253   3.569   0.213  0.1932 -0.5368 -0.5744
12077TIP3    H157646   3.163   3.593   0.189  0.3568  1.1030  0.3697
12077TIP3    H257647   3.261   3.591   0.306  2.0821  0.9950 -1.0338
12078TIP3   OH257648   4.444   1.195  11.910 -0.0610  0.1860 -0.1879
12078TIP3    H157649   4.389   1.185  11.988  0.7211 -1.3526  0.2025
12078TIP3    H257650   4.414   1.277  11.870 -0.5756  0.9450  1.6380
12079TIP3   OH257651   2.417   3.558  15.593 -0.6625  0.3663 -0.3701
12079TIP3    H157652   2.511   3.565  15.610 -1.0489  1.4611  1.6684
12079TIP3    H257653   2.408   3.579  15.501  1.0300  0.8715 -0.4659
12080TIP3   OH257654   3.791   3.377  14.121 -0.4214 -0.0231  0.7942
12080TIP3    H157655   3.737   3.325  14.062  0.5057 -1.9357  1.5600
12080TIP3    H257656   3.879   3.371  14.084 -0.4510  1.9937  0.2752
12081TIP3   OH257657   2.679   5.188  12.855  0.0154 -0.3245 -0.1788
12081TIP3    H157658   2.770   5.183  12.886  0.0005 -0.2389 -0.1207
12081TIP3    H257659   2.686   5.228  12.768 -0.1019  1.2120  0.4904
12082TIP3   OH257660   4.729   3.245  15.782  0.3003 -0.5345 -0.1672
12082TIP3    H157661   4.754   3.238  15.690  1.8000 -1.0130  0.2425
12082TIP3    H257662   4.702   3.337  15.792  0.2489 -0.4449 -1.0548
12083TIP3   OH257663   3.094   0.665   2.470 -0.5022  0.4103  0.0661
12083TIP3    H157664   3.019   0.705   2.426 -0.8993 -1.9311 -1.5322
12083TIP3    H257665   3.057   0.612   2.540 -0.2556  0.0748 -0.0548
12084TIP3   OH257666   4.768   2.401  16.717  0.1659 -0.1694  0.2197
12084TIP3    H157667   4.700   2.352  16.672  0.5136 -0.2136 -0.2701
12084TIP3    H257668   4.845   2.344  16.713  0.4874  0.2770 -0.0766
12085TIP3   OH257669   4.289   2.036   1.854 -1.0843  0.7065  0.6784
12085TIP3    H157670   4.250   2.046   1.767  0.9891 -1.8203 -0.6899
12085TIP3    H257671   4.258   1.950   1.884  0.5027  0.2498  1.1076
12086TIP3   OH257672   0.039   0.543  14.480  0.7013 -0.6399  0.0453
12086TIP3    H157673   0.036   0.591  14.562 -1.3929 -1.3736  0.4565
12086TIP3    H257674   0.118   0.490  14.486  0.9195 -0.2076  1.2955
12087TIP3   OH257675   2.564   4.795   4.000  0.3149 -0.1497 -0.4245
12087TIP3    H157676   2.515   4.855   3.944  0.4554  2.1211  1.7333
12087TIP3    H257677   2.654   4.801   3.969 -0.0697 -1.4178 -1.9455
12088TIP3   OH257678   3.626   2.323  14.923  0.0731 -0.3762 -0.6601
12088TIP3    H157679   3.592   2.308  15.011  2.5254 -3.5178 -0.0581
12088TIP3    H257680   3.693   2.390  14.935  0.1556 -0.5389 -0.1775
12089TIP3   OH257681   4.171   1.291   4.083 -0.2258 -0.1058  0.6201
12089TIP3    H157682   4.159   1.386   4.079  0.8611  0.0219  0.0230
12089TIP3    H257683   4.086   1.256   4.056 -0.4071  0.7144  0.0597
12090TIP3   OH257684   5.849   3.656  13.602  0.2998 -0.3528 -0.1735
12090TIP3    H157685   5.761   3.619  13.604 -0.8870  2.2743  1.3178
12090TIP3    H257686   5.842   3.730  13.541  1.3601  0.1381  0.2791
12091TIP3   OH257687   1.678   3.277   0.222  0.3725  0.0538 -0.4808
12091TIP3    H157688   1.690   3.362   0.263 -0.4529  0.2998 -0.7339
12091TIP3    H257689   1.710   3.214   0.287 -2.6041  0.2854  1.4026
12092TIP3   OH257690   6.193   2.770  16.130 -0.2005 -0.1006 -0.1567
12092TIP3    H157691   6.213   2.860  16.103 -0.2810  0.4343  1.4468
12092TIP3    H257692   6.240   2.715  16.067 -1.7943  0.9787 -2.4450
12093TIP3   OH257693   1.175   0.209  16.107 -0.0779 -0.3389 -0.1770
12093TIP3    H157694   1.185   0.165  16.023 -1.4279 -0.0406 -0.5187
12093TIP3    H257695   1.100   0.166  16.148 -1.7199  1.8201 -0.7072
12094TIP3   OH257696   6.540   5.347   1.857  0.1973  0.4871 -0.3291
12094TIP3    H157697   6.474   5.346   1.788  0.9296 -1.0426 -1.0545
12094TIP3    H257698   6.499   5.302   1.931  0.4559 -0.6471 -0.8499
12095TIP3   OH257699   3.577   0.146  12.240  0.6520 -0.4773 -0.2994
12095TIP3    H157700   3.658   0.195  12.256  1.1088 -1.7652  1.7311
12095TIP3    H257701   3.507   0.206  12.264  1.0431  0.2428 -0.9178
12096TIP3   OH257702   5.569   3.928  12.837  0.2655 -0.2558 -0.3413
12096TIP3    H157703   5.597   3.878  12.760  0.8414  0.5752 -0.6857
12096TIP3    H257704   5.473   3.920  12.837  0.2457 -0.1672 -1.2157
12097TIP3   OH257705   6.607   5.938  16.919  0.0459 -0.3422 -0.4128
12097TIP3    H157706   6.702   5.924  16.928  0.1376  0.6891  0.4148
12097TIP3    H257707   6.592   5.938  16.825  0.9129 -0.3022 -0.5634
12098TIP3   OH257708   2.724   5.716  15.812  0.1704 -0.3772  0.0187
12098TIP3    H157709   2.640   5.694  15.771 -1.5382  3.1780  1.2029
12098TIP3    H257710   2.715   5.686  15.902  0.8363 -1.3985 -0.2502
12099TIP3   OH257711   5.072   3.602  15.239  0.5775 -0.3910  0.0593
12099TIP3    H157712   4.997   3.581  15.184 -1.8921  0.7813  2.7597
12099TIP3    H257713   5.093   3.520  15.284 -0.7780 -0.1940  1.1244
12100TIP3   OH257714   4.877   1.700   0.616  0.2629  0.2667  0.9117
12100TIP3    H157715   4.825   1.644   0.558  1.8628  0.6234 -0.9731
12100TIP3    H257716   4.945   1.642   0.651  0.9164  0.6217  0.2691
12101TIP3   OH257717   5.816   5.352  12.331 -0.4396 -0.0154 -0.0039
12101TIP3    H157718   5.883   5.290  12.300 -0.8476  0.9667 -3.2898
12101TIP3    H257719   5.748   5.296  12.370  1.0196 -1.2535  0.8471
12102TIP3   OH257720   2.422   6.310  12.812 -0.6047 -0.2659 -0.4830
12102TIP3    H157721   2.443   6.314  12.718 -0.9065  0.5201 -0.5239
12102TIP3    H257722   2.327   6.293  12.814 -0.5528 -0.5541 -0.3102
12103TIP3   OH257723   0.567   2.404  13.677 -0.1865 -0.9185 -0.5741
12103TIP3    H157724   0.490   2.460  13.663 -1.1114 -1.9921  0.0351
12103TIP3    H257725   0.566   2.386  13.771  0.3925 -1.5372 -0.6845
12104TIP3   OH257726   1.338   3.400  14.960  0.1972 -0.5706 -0.4765
12104TIP3    H157727   1.385   3.335  14.908 -0.6312 -0.8759 -0.8606
12104TIP3    H257728   1.319   3.356  15.042  0.4435 -0.4974 -0.3787
12105TIP3   OH257729   5.078   2.840   1.407 -0.3290  0.6545  0.4029
12105TIP3    H157730   5.053   2.795   1.488  0.2600  1.5533  1.1031
12105TIP3    H257731   5.168   2.813   1.391 -0.4962  0.3500 -0.0600
12106TIP3   OH257732   0.625   3.423  13.752 -0.1005 -0.0943  0.5744
12106TIP3    H157733   0.659   3.374  13.827 -0.7745  0.0545  0.9910
12106TIP3    H257734   0.532   3.437  13.773 -0.5054 -0.7860 -0.6756
12107TIP3   OH257735   6.402   3.346   3.407 -0.0162 -0.3759  0.1779
12107TIP3    H157736   6.452   3.316   3.331 -0.7216 -0.7454 -0.1596
12107TIP3    H257737   6.407   3.273   3.469 -3.5098 -2.3061 -1.4766
12108TIP3   OH257738   6.245   1.236   1.161 -0.0285 -0.1477 -0.0931
12108TIP3    H157739   6.307   1.166   1.143  0.9762  0.9875 -1.2645
12108TIP3    H257740   6.294   1.300   1.212 -0.9292 -0.2656  0.9560
12109TIP3   OH257741   1.728   5.848   4.700  0.0804 -0.7107 -0.0126
12109TIP3    H157742   1.661   5.810   4.756  0.4814 -0.0840  0.9054
12109TIP3    H257743   1.683   5.866   4.617 -1.2158  0.8204  0.9757
12110TIP3   OH257744   0.061   3.636   4.592 -0.4473 -0.1351 -0.5050
12110TIP3    H157745   0.010   3.557   4.574  0.0160 -0.7648  0.7907
12110TIP3    H257746   0.070   3.637   4.687  0.3844  0.9592 -0.5775
12111TIP3   OH257747   5.932   3.138  16.787  0.6265  1.0780  0.3943
12111TIP3    H157748   5.913   3.221  16.742 -0.5073  1.3512  1.3352
12111TIP3    H257749   6.026   3.142  16.805  1.1153  1.0058 -1.7998
12112TIP3   OH257750   5.688   6.349  15.999  0.3878  0.3643 -0.3137
12112TIP3    H157751   5.704   6.440  15.974  0.8235  0.9580  1.8838
12112TIP3    H257752   5.602   6.328  15.964 -0.4442  2.1977  0.5432
12113TIP3   OH257753   5.632   1.716   2.182  0.3010 -0.7180  0.5486
12113TIP3    H157754   5.582   1.748   2.258  0.8015  0.2511  0.4875
12113TIP3    H257755   5.658   1.627   2.206 -2.2955 -1.6606  0.1607
12114TIP3   OH257756   4.373   3.301   2.103  0.0526 -0.4620 -0.4269
12114TIP3    H157757   4.301   3.361   2.124 -1.0989 -1.9331  0.0771
12114TIP3    H257758   4.379   3.244   2.180  2.3373  0.1138 -0.1174
12115TIP3   OH257759   4.469   5.018   5.050  0.1770 -0.2384 -0.0780
12115TIP3    H157760   4.480   4.932   5.011  2.3498 -0.9349  1.8799
12115TIP3    H257761   4.547   5.067   5.025  0.2567  0.2375  1.0166
12116TIP3   OH257762   0.620   5.000  12.820  0.0727  0.2693 -0.2240
12116TIP3    H157763   0.591   4.911  12.839  1.3122  0.0982  0.9801
12116TIP3    H257764   0.714   4.999  12.839 -0.0560  2.0614  0.6314
12117TIP3   OH257765   4.265   0.106  15.973 -0.0863  0.5162 -0.1368
12117TIP3    H157766   4.199   0.155  15.925  1.0111  1.3970 -0.7794
12117TIP3    H257767   4.214   0.046  16.029 -1.4921  2.6702  1.0432
12118TIP3   OH257768   5.037   4.975  15.382  0.2850  0.4631 -0.0999
12118TIP3    H157769   5.029   4.969  15.477 -1.9793  0.5142 -0.2342
12118TIP3    H257770   5.068   4.888  15.355  0.0781  0.1641  0.6120
12119TIP3   OH257771   4.945   0.415  15.449  0.0693  0.3451 -0.8877
12119TIP3    H157772   5.017   0.424  15.512 -0.4302  0.0791 -0.2736
12119TIP3    H257773   4.882   0.482  15.475 -0.3803 -0.1193 -0.7783
12120TIP3   OH257774   3.693   6.729   0.812 -0.5799 -0.4196 -0.1870
12120TIP3    H157775   3.610   6.759   0.851 -0.0835 -0.0289  0.6009
12120TIP3    H257776   3.709   6.645   0.853  0.1028  0.1347  0.7194
12121TIP3   OH257777   1.374   0.360   3.369 -0.2898 -0.7714  0.2001
12121TIP3    H157778   1.436   0.382   3.299 -1.9873 -0.2597 -1.2286
12121TIP3    H257779   1.288   0.370   3.328 -1.3204 -3.0487  1.6358
12122TIP3   OH257780   0.617   5.231   0.709 -0.3340 -0.2956 -0.0690
12122TIP3    H157781   0.544   5.171   0.697 -0.9356 -0.2305  2.5568
12122TIP3    H257782   0.633   5.268   0.622 -3.0120 -0.7751 -0.8609
12123TIP3   OH257783   0.120   2.363  14.280 -0.0395  0.0835  0.2828
12123TIP3    H157784   0.034   2.397  14.307 -0.4177  0.9755 -1.8725
12123TIP3    H257785   0.178   2.439  14.284  0.4299 -0.2888  0.7276
12124TIP3   OH257786   0.860   1.030  15.833 -0.5156  0.2664 -0.2797
12124TIP3    H157787   0.875   1.108  15.780  0.7934  1.0147  1.1124
12124TIP3    H257788   0.780   1.049  15.881 -1.4843 -0.2491 -1.6232
12125TIP3   OH257789   2.693   2.394   4.003 -0.4437  0.2735  0.2176
12125TIP3    H157790   2.771   2.450   4.010  0.7354 -1.2456 -0.2630
12125TIP3    H257791   2.683   2.356   4.090  0.2453 -0.6538 -0.0967
12126TIP3   OH257792   4.603   0.584   1.639 -0.4078  0.6732  0.4152
12126TIP3    H157793   4.637   0.495   1.640 -1.4111  0.2749  0.3045
12126TIP3    H257794   4.675   0.637   1.604  0.2637 -0.0563  0.6633
12127TIP3   OH257795   5.993   5.136  12.278 -0.0046 -0.4400  0.4786
12127TIP3    H157796   6.071   5.087  12.253 -0.8765 -1.9688  0.6335
12127TIP3    H257797   5.958   5.089  12.354  0.6287  2.0600  2.4540
12128TIP3   OH257798   0.472   2.881  16.123  0.0529 -0.0290  0.2651
12128TIP3    H157799   0.522   2.903  16.202  0.2420  0.6225 -0.0215
12128TIP3    H257800   0.464   2.965  16.077  1.5269 -0.6867 -1.3088
12129TIP3   OH257801   4.133   3.531  16.900  0.1635  0.2936  0.2269
12129TIP3    H157802   4.216   3.535  16.852  0.2848  0.6424  0.4596
12129TIP3    H257803   4.067   3.554  16.836  0.1915 -0.5068 -0.0913
12130TIP3   OH257804   1.314   2.484   2.257 -0.7748  0.9027  0.0228
12130TIP3    H157805   1.230   2.439   2.244 -0.6644  0.7471 -0.1657
12130TIP3    H257806   1.310   2.519   2.346 -1.3780  1.6131 -0.2710
12131TIP3   OH257807   1.718   2.486  14.710 -0.2089  0.1075  0.0119
12131TIP3    H157808   1.643   2.545  14.702 -0.2268  0.1502  0.4776
12131TIP3    H257809   1.706   2.443  14.795 -0.2250 -0.6033 -0.3367
12132TIP3   OH257810   2.766   2.494  15.257  0.7893  0.2913  0.8310
12132TIP3    H157811   2.820   2.456  15.188  1.6210  0.3153  1.4418
12132TIP3    H257812   2.702   2.548  15.211  2.3218  1.5910  0.1182
12133TIP3   OH257813   5.291   0.459   2.595 -0.2674  0.3459 -0.3276
12133TIP3    H157814   5.228   0.498   2.536 -3.8175 -4.3374 -0.2045
12133TIP3    H257815   5.329   0.385   2.546  0.9800 -0.2502  1.4047
12134TIP3   OH257816   6.658   0.763  13.427  0.7230 -0.5563  0.0746
12134TIP3    H157817   6.703   0.777  13.510  3.3677  1.2996 -1.5032
12134TIP3    H257818   6.692   0.680  13.395  1.1215 -0.3860  0.0456
12135TIP3   OH257819   3.060   4.127   1.603 -0.2687 -0.3248 -0.8165
12135TIP3    H157820   2.996   4.103   1.671  1.0282 -1.0652  0.1873
12135TIP3    H257821   3.132   4.168   1.651  0.1730  0.1967 -1.8890
12136TIP3   OH257822   1.394   5.253   2.688  0.2748 -0.0058 -0.2236
12136TIP3    H157823   1.399   5.327   2.749  1.5319 -1.7865  1.9933
12136TIP3    H257824   1.417   5.291   2.603 -1.1718  2.5096  0.4154
12137TIP3   OH257825   5.887   6.568  14.465 -0.4848  0.4757 -0.3735
12137TIP3    H157826   5.910   6.478  14.488  1.4722  1.4336  1.7535
12137TIP3    H257827   5.912   6.576  14.373  3.0670 -0.1348  0.3775
12138TIP3   OH257828   6.567   6.523  13.657 -0.5329  0.6515 -0.2599
12138TIP3    H157829   6.506   6.553  13.724 -0.4923  2.8714 -1.1290
12138TIP3    H257830   6.561   6.589  13.588 -0.8659 -1.7213 -2.6692
12139TIP3   OH257831   5.491   4.117   0.532  0.0891  0.1406 -0.0125
12139TIP3    H157832   5.408   4.104   0.577 -0.1028 -0.1565 -0.4384
12139TIP3    H257833   5.550   4.052   0.570  0.1343  0.3657  0.3046
12140TIP3   OH257834   6.265   5.997   3.263 -0.6516  0.5964 -0.6214
12140TIP3    H157835   6.286   5.949   3.343  0.6944  1.3819 -0.4864
12140TIP3    H257836   6.171   6.014   3.270 -0.6548  0.1808  0.5202
12141TIP3   OH257837   3.264   0.117  16.212 -0.0355  0.1183  0.0984
12141TIP3    H157838   3.216   0.102  16.131  2.3680  0.3390 -1.4613
12141TIP3    H257839   3.289   0.210  16.209  0.2300  0.0927  1.0107
12142TIP3   OH257840   3.442   1.055  16.584  0.4997 -0.2284 -0.0993
12142TIP3    H157841   3.524   1.089  16.621  0.4439  0.5986 -0.6972
12142TIP3    H257842   3.454   1.064  16.489 -0.6092  0.7144 -0.1678
12143TIP3   OH257843   5.908   1.960  16.079 -0.2961 -0.1222 -0.1966
12143TIP3    H157844   5.962   1.885  16.057  0.4816  0.0125  1.1126
12143TIP3    H257845   5.905   1.960  16.175 -1.6824  0.5364 -0.2197
12144TIP3   OH257846   1.077   1.727  16.813 -0.2142 -0.6174 -0.0592
12144TIP3    H157847   1.087   1.822  16.823 -0.6300 -0.7319  1.7981
12144TIP3    H257848   1.003   1.717  16.753  0.5044  0.2030 -1.1387
12145TIP3   OH257849   6.417   4.287   5.622 -0.5445 -0.1580  0.6040
12145TIP3    H157850   6.349   4.236   5.579 -0.5364  0.4065 -0.1218
12145TIP3    H257851   6.397   4.282   5.715 -0.8919 -0.9654  0.4897
12146TIP3   OH257852   5.653   0.145  12.788 -0.4821 -0.0860 -0.0802
12146TIP3    H157853   5.636   0.144  12.694  2.4922  0.6187 -0.7294
12146TIP3    H257854   5.698   0.228  12.803  0.9707 -1.1099  1.5541
12147TIP3   OH257855   5.821   1.054   5.544  0.5115  0.3489 -0.2551
12147TIP3    H157856   5.894   1.028   5.600  0.6986 -1.2539 -1.2045
12147TIP3    H257857   5.842   1.144   5.518  1.0296  0.6924  1.2201
12148TIP3   OH257858   5.801   0.035   5.126 -0.2009  0.5993  0.1352
12148TIP3    H157859   5.733   0.101   5.115 -0.2771  0.2884 -1.7000
12148TIP3    H257860   5.759  -0.035   5.177 -0.5237  1.3973  0.9756
12149TIP3   OH257861   5.127   3.027   2.453  0.5414 -0.1275 -0.4014
12149TIP3    H157862   5.069   3.095   2.487 -0.0730  0.4199 -2.3745
12149TIP3    H257863   5.068   2.956   2.427  1.0371 -0.7821  0.2389
12150TIP3   OH257864   3.721   4.527   0.135 -0.4824 -0.6197  0.6314
12150TIP3    H157865   3.802   4.529   0.186  0.6891  0.4551 -1.1778
12150TIP3    H257866   3.684   4.441   0.154  1.6343 -1.5888  0.7193
12151TIP3   OH257867   4.231   1.077   4.895  0.8194  0.1813  0.7173
12151TIP3    H157868   4.226   0.999   4.839 -1.3183 -0.6153  1.9254
12151TIP3    H257869   4.248   1.043   4.983 -0.2333  1.0344  1.2785
12152TIP3   OH257870   1.510   0.637   2.321  0.0253 -0.2828 -0.0411
12152TIP3    H157871   1.574   0.704   2.300  0.1485 -0.3731  0.0460
12152TIP3    H257872   1.556   0.554   2.307  1.1576 -0.4172  3.5024
12153TIP3   OH257873   3.521   2.771   2.328 -0.0213  0.2590  0.1250
12153TIP3    H157874   3.548   2.854   2.368 -1.1400  0.7958 -0.1711
12153TIP3    H257875   3.514   2.792   2.234  1.0483 -0.5609 -0.1548
12154TIP3   OH257876   1.722   4.126  15.146  0.1064 -0.6269 -0.1214
12154TIP3    H157877   1.760   4.042  15.171  1.1915  0.6128  2.9010
12154TIP3    H257878   1.679   4.158  15.226 -0.6588  1.4858 -1.2984
12155TIP3   OH257879   4.153   2.358  12.261 -0.0969 -0.8292 -0.1803
12155TIP3    H157880   4.129   2.451  12.265  1.0497 -0.4908 -0.7284
12155TIP3    H257881   4.069   2.312  12.249 -0.4806  0.3606 -2.9755
12156TIP3   OH257882   3.652   5.188   2.404  0.1386 -0.0780 -0.1243
12156TIP3    H157883   3.646   5.240   2.323 -0.1577 -1.3977 -0.9874
12156TIP3    H257884   3.680   5.251   2.470  0.9917  0.9243 -1.3766
12157TIP3   OH257885   1.112   5.896   1.425 -0.1882 -0.3156 -0.2176
12157TIP3    H157886   1.120   5.991   1.418 -1.0689  0.0241  2.1781
12157TIP3    H257887   1.076   5.868   1.341 -0.8764  1.6192 -0.6087
12158TIP3   OH257888   1.613   5.377  13.415  0.1155  0.2758  0.0989
12158TIP3    H157889   1.543   5.406  13.473 -1.4002  2.5019 -2.5871
12158TIP3    H257890   1.568   5.340  13.339  2.0121 -2.5093  0.1754
12159TIP3   OH257891   3.778   0.481   0.184 -0.1956  0.4686  0.2660
12159TIP3    H157892   3.871   0.476   0.208  0.1918 -1.6259 -1.3833
12159TIP3    H257893   3.733   0.433   0.254 -0.3990  3.3714  2.2842
12160TIP3   OH257894   5.153   1.205  15.381 -0.0237 -0.2910 -0.5429
12160TIP3    H157895   5.098   1.157  15.320 -3.2616  0.5082  1.4593
12160TIP3    H257896   5.120   1.295  15.378  1.8792  0.4865  0.0715
12161TIP3   OH257897   2.658   4.142  17.371 -0.1171  0.2467 -0.0791
12161TIP3    H157898   2.642   4.179  17.284 -0.2984  2.1798  0.7181
12161TIP3    H257899   2.572   4.140  17.412 -0.4506 -2.8852 -0.6776
12162TIP3   OH257900   3.430   6.481  14.940 -0.4344  0.1706  0.2429
12162TIP3    H157901   3.350   6.471  14.992 -0.2184 -0.4280  0.4723
12162TIP3    H257902   3.486   6.409  14.969  0.1725  0.5611  0.0491
12163TIP3   OH257903   6.333   3.643  15.120 -0.2442  0.0101  0.6995
12163TIP3    H157904   6.419   3.624  15.158 -1.1138 -0.8654  2.3017
12163TIP3    H257905   6.318   3.572  15.058  1.1607  1.4226 -1.4285
12164TIP3   OH257906   0.116   1.679   4.044 -0.0144 -0.5331 -0.4725
12164TIP3    H157907   0.082   1.608   3.990 -1.8712 -0.2629  0.2592
12164TIP3    H257908   0.084   1.659   4.133 -0.8027  1.2886 -0.2917
12165TIP3   OH257909   3.644   1.765   3.886  0.0083  0.3264 -0.5372
12165TIP3    H157910   3.600   1.715   3.954  0.7687  1.0632  0.5312
12165TIP3    H257911   3.737   1.758   3.907  0.2099  1.1349 -1.0952
12166TIP3   OH257912   0.302   3.115   2.619 -0.2590  0.2757 -0.0902
12166TIP3    H157913   0.264   3.199   2.592  1.5286  1.7784  1.6875
12166TIP3    H257914   0.384   3.110   2.570  0.3382  0.3233  0.8683
12167TIP3   OH257915   4.398   1.721   2.923 -0.1727 -0.9600  0.6023
12167TIP3    H157916   4.466   1.766   2.873 -0.0252  0.1231  1.7146
12167TIP3    H257917   4.424   1.629   2.922  0.6707 -0.7271  0.0271
12168TIP3   OH257918   0.149   4.559   3.425  1.1020  0.0093 -0.3369
12168TIP3    H157919   0.063   4.538   3.388  1.4397 -0.2152 -1.0086
12168TIP3    H257920   0.129   4.610   3.503  0.2667 -2.0400  0.8854
12169TIP3   OH257921   4.090   3.982   5.036 -0.4228  0.0255 -0.0277
12169TIP3    H157922   4.132   3.922   5.097  0.3006  0.6540  0.1149
12169TIP3    H257923   4.151   3.989   4.962 -1.9410 -1.8697 -1.5667
12170TIP3   OH257924   3.296   0.809   2.169 -0.0961 -0.0732  0.5638
12170TIP3    H157925   3.259   0.858   2.243  0.8634  0.3053  0.8179
12170TIP3    H257926   3.389   0.797   2.192  0.4458  0.8403 -0.9610
12171TIP3   OH257927   6.136   5.721  15.653 -0.3777  0.8732 -0.0222
12171TIP3    H157928   6.153   5.628  15.668 -0.4874  0.7855 -0.4316
12171TIP3    H257929   6.064   5.723  15.589  0.3519  1.2298 -0.8589
12172TIP3   OH257930   0.542   5.157  15.283 -0.1042  0.7047 -0.3650
12172TIP3    H157931   0.504   5.076  15.248 -0.4179  1.5660 -2.1363
12172TIP3    H257932   0.471   5.197  15.333 -0.2029  0.2669 -0.1538
12173TIP3   OH257933   0.098   0.125   0.493  0.1952 -0.6923 -0.8059
12173TIP3    H157934   0.173   0.108   0.550 -1.7993 -2.5549  1.4568
12173TIP3    H257935   0.085   0.220   0.498  1.6824 -0.4918 -0.3259
12174TIP3   OH257936   3.166   0.538   0.866  0.6884 -0.1756 -0.0800
12174TIP3    H157937   3.179   0.577   0.953  2.6525 -1.2620  0.1504
12174TIP3    H257938   3.213   0.596   0.806 -0.5164  0.4727 -0.4397
12175TIP3   OH257939   5.425   5.688   4.349  0.0746  0.2405 -0.5005
12175TIP3    H157940   5.375   5.746   4.291  0.8579  1.2980 -0.1399
12175TIP3    H257941   5.502   5.664   4.298  0.8569  1.3168  0.1234
12176TIP3   OH257942   0.395   2.173   0.283 -0.2528 -0.0849  0.0842
12176TIP3    H157943   0.431   2.110   0.221  0.4922 -0.2567  0.6838
12176TIP3    H257944   0.448   2.163   0.362 -0.0951  1.3008  0.1854
12177TIP3   OH257945   4.252   4.196   6.270  0.2105 -0.1128  0.1291
12177TIP3    H157946   4.313   4.131   6.304 -0.7073 -0.2045  1.7117
12177TIP3    H257947   4.302   4.278   6.267  1.0065 -0.6055 -0.6922
12178TIP3   OH257948   1.465   4.921  14.308  0.5799 -0.1492  0.0782
12178TIP3    H157949   1.437   4.832  14.331  2.3888 -0.9668 -0.6434
12178TIP3    H257950   1.424   4.938  14.224  1.8474 -1.1770 -0.7879
12179TIP3   OH257951   6.686   0.224   1.025 -0.4504  0.0739  0.1374
12179TIP3    H157952   6.645   0.294   0.974 -0.1071  0.1472 -0.0443
12179TIP3    H257953   6.628   0.212   1.100 -0.6444  0.3799  0.0397
12180TIP3   OH257954   5.421   4.977  13.810 -0.1590  0.6566 -0.1108
12180TIP3    H157955   5.432   4.981  13.905 -1.7800  0.2102  0.1167
12180TIP3    H257956   5.353   5.041  13.791  0.7396  1.3475 -1.0906
12181TIP3   OH257957   5.409   4.277  11.122 -0.1773  0.0514 -0.3868
12181TIP3    H157958   5.383   4.366  11.146 -0.8414 -0.5508  1.1888
12181TIP3    H257959   5.490   4.261  11.172 -0.9402 -0.7923  0.6216
12182TIP3   OH257960   3.040   1.244  10.951 -0.2857  0.1378  0.1679
12182TIP3    H157961   2.953   1.205  10.946 -0.2322 -0.5096  2.9127
12182TIP3    H257962   3.028   1.334  10.920 -1.4910 -0.4905 -1.2917
12183TIP3   OH257963   1.410   3.139  15.587  0.2942 -0.2985 -0.2544
12183TIP3    H157964   1.448   3.128  15.674  0.9911 -0.5449 -0.5831
12183TIP3    H257965   1.316   3.132  15.601  0.4449 -1.2309  0.3576
12184TIP3   OH257966   0.433   2.756  14.060 -0.2318  0.0765 -0.6517
12184TIP3    H157967   0.488   2.685  14.094  0.7672  1.0114 -0.2805
12184TIP3    H257968   0.455   2.760  13.967  0.3585  0.4658 -0.4992
12185TIP3   OH257969   2.842   2.325   6.614 -0.0798 -0.3914  0.5718
12185TIP3    H157970   2.771   2.379   6.648  0.0450  0.0994  0.0636
12185TIP3    H257971   2.805   2.237   6.607 -0.5928 -0.1642  0.4326
12186TIP3   OH257972   0.915   3.657   0.142 -0.0169 -0.6697 -0.5322
12186TIP3    H157973   1.001   3.699   0.148 -0.0364 -0.5405 -1.0636
12186TIP3    H257974   0.907   3.634   0.049 -0.8312 -0.0678 -0.6240
12187TIP3   OH257975   2.776   5.568   5.371  0.2219 -0.4635 -0.6973
12187TIP3    H157976   2.808   5.531   5.454  0.0675 -0.8260 -0.7982
12187TIP3    H257977   2.721   5.641   5.398 -1.2338 -1.6268 -0.3936
12188TIP3   OH257978   4.073   6.123  15.374  0.3895  0.0314  0.0669
12188TIP3    H157979   4.087   6.214  15.402  0.3728 -0.1193  0.5684
12188TIP3    H257980   4.162   6.086  15.369  0.3959  0.0756 -0.1332
12189TIP3   OH257981   4.415   0.264   1.258  0.6022 -0.9314  0.1185
12189TIP3    H157982   4.413   0.218   1.342  0.4842 -0.2905  0.4748
12189TIP3    H257983   4.464   0.344   1.276 -2.9057  1.2645  0.6760
12190TIP3   OH257984   1.400   6.224  16.180  0.2833  0.2619  0.3216
12190TIP3    H157985   1.458   6.298  16.197  1.2295 -0.4703  0.3777
12190TIP3    H257986   1.424   6.194  16.092 -0.9811  0.7944 -0.2326
12191TIP3   OH257987   5.542   3.452   4.796  0.0977 -0.3592 -0.2357
12191TIP3    H157988   5.609   3.392   4.764 -1.0799 -0.5848 -2.4384
12191TIP3    H257989   5.459   3.409   4.777 -0.7329  0.6508  0.9187
12192TIP3   OH257990   1.637   0.158  12.403 -0.1492  0.8111 -0.7414
12192TIP3    H157991   1.602   0.078  12.443  1.4525 -0.0449 -0.9675
12192TIP3    H257992   1.560   0.206  12.373 -1.2629  0.3939  1.3186
12193TIP3   OH257993   3.486   2.994   2.487 -0.3108  0.0842  0.1933
12193TIP3    H157994   3.391   3.001   2.483 -0.4265 -1.4999 -1.9727
12193TIP3    H257995   3.504   2.962   2.575 -1.8403 -0.1148  0.4641
12194TIP3   OH257996   4.624   6.498   3.270 -0.3187 -0.0593  0.3809
12194TIP3    H157997   4.682   6.476   3.197  1.4806  1.6453  1.2166
12194TIP3    H257998   4.624   6.419   3.324 -0.3845 -0.7714 -0.6281
12195TIP3   OH257999   2.852   2.100   6.354  0.2688  0.2962 -0.2645
12195TIP3    H158000   2.943   2.123   6.372  1.1390 -1.9460 -1.4260
12195TIP3    H258001   2.827   2.042   6.425  0.9867 -1.9306 -1.7290
12196TIP3   OH258002   0.865   2.839   1.930  0.6577  0.6864  0.6209
12196TIP3    H158003   0.779   2.836   1.973  1.0805  0.4816  1.4755
12196TIP3    H258004   0.927   2.817   1.999  1.5015  1.8648  0.2770
12197TIP3   OH258005   6.402   6.420  16.363 -0.2091  0.1716 -1.1512
12197TIP3    H158006   6.320   6.463  16.338 -1.1326 -0.4299  0.6774
12197TIP3    H258007   6.463   6.492  16.378 -0.7901  0.6956 -1.2474
12198TIP3   OH258008   6.474   0.185   5.433  0.3149  0.2886  0.1767
12198TIP3    H158009   6.424   0.143   5.363 -0.6636  2.1953 -0.3504
12198TIP3    H258010   6.563   0.191   5.398  0.0918  0.1538 -0.4258
12199TIP3   OH258011   4.717   5.997  16.776 -0.8373  0.5889  0.2846
12199TIP3    H158012   4.737   6.087  16.800 -0.2824  0.5861 -0.1429
12199TIP3    H258013   4.700   6.001  16.682  2.1178 -0.1795 -0.3912
12200TIP3   OH258014   6.636   4.326   1.446 -0.1361 -0.2156  0.6299
12200TIP3    H158015   6.582   4.375   1.384 -0.6869  1.3228  2.2508
12200TIP3    H258016   6.609   4.235   1.435  0.3936 -0.1452 -1.9456
12201TIP3   OH258017   0.342   5.173   4.873 -0.2569  0.0498 -0.3577
12201TIP3    H158018   0.272   5.238   4.872 -0.6342 -0.2319  2.1546
12201TIP3    H258019   0.310   5.104   4.931  1.1180 -1.2505 -1.0765
12202TIP3   OH258020   4.393   2.548  16.886 -0.6907 -0.4326 -0.3926
12202TIP3    H158021   4.470   2.533  16.940 -0.9092 -3.0373 -0.6437
12202TIP3    H258022   4.427   2.583  16.804  0.0009  0.3318  0.2170
12203TIP3   OH258023   3.790   3.856   1.526 -0.2797  0.4244 -0.1826
12203TIP3    H158024   3.809   3.916   1.453 -1.0539  0.6683 -0.1904
12203TIP3    H258025   3.695   3.843   1.523 -0.3443  0.5565  0.8742
12204TIP3   OH258026   3.958   4.016   3.488 -0.2317 -0.4680 -0.3715
12204TIP3    H158027   4.014   3.946   3.454  1.8246  1.6446 -1.6581
12204TIP3    H258028   3.869   3.981   3.482  0.4775 -2.1124 -3.3138
12205TIP3   OH258029   1.820   5.520   4.018  0.4912 -0.8623 -0.0236
12205TIP3    H158030   1.834   5.510   3.924  1.4889 -1.7665  0.2116
12205TIP3    H258031   1.725   5.510   4.029  0.3146 -0.3321 -0.9677
12206TIP3   OH258032   2.692   2.562  14.277 -0.1168  0.4851 -0.4581
12206TIP3    H158033   2.776   2.520  14.259 -0.9870 -0.1744 -3.6820
12206TIP3    H258034   2.710   2.656  14.269  0.3216  0.3360 -1.4292
12207TIP3   OH258035   6.099   2.277  14.604  0.3240 -0.7409  0.0767
12207TIP3    H158036   6.190   2.304  14.600  0.6489 -1.6875  0.7237
12207TIP3    H258037   6.084   2.254  14.696 -0.9286  0.5811  0.2427
12208TIP3   OH258038   0.278   2.939  11.893 -0.8356  0.2033 -0.5212
12208TIP3    H158039   0.242   3.023  11.921 -0.8323  0.4499 -1.2248
12208TIP3    H258040   0.351   2.923  11.953  0.4098  1.6697 -1.5537
12209TIP3   OH258041   4.740   2.830  13.633  0.2481 -0.1841  0.5283
12209TIP3    H158042   4.829   2.852  13.607  0.2202 -0.8320 -0.1456
12209TIP3    H258043   4.745   2.740  13.666 -0.4448 -0.9160 -1.2270
12210TIP3   OH258044   4.154   6.537   2.009 -0.1836 -0.1943 -0.3095
12210TIP3    H158045   4.060   6.541   1.990 -0.4139  1.6955  0.9889
12210TIP3    H258046   4.182   6.628   2.013  1.5448 -0.7052  0.1964
12211TIP3   OH258047   4.815   4.372   0.755 -0.3973  0.8469 -0.1576
12211TIP3    H158048   4.851   4.445   0.805  0.3833  0.4428 -0.1257
12211TIP3    H258049   4.842   4.389   0.665 -0.3103  0.6604 -0.1674
12212TIP3   OH258050   3.110   5.037  15.848  0.5988 -0.2506 -0.3200
12212TIP3    H158051   3.153   5.025  15.933  1.3620  1.7835 -0.3690
12212TIP3    H258052   3.181   5.057  15.788 -0.0871 -0.2862 -1.1682
12213TIP3   OH258053   4.337   3.073   0.324  0.1048  0.1977 -0.1747
12213TIP3    H158054   4.283   3.112   0.393  1.0087  0.6282  0.3082
12213TIP3    H258055   4.278   3.065   0.249 -0.8835 -0.2266  0.6195
12214TIP3   OH258056   2.609   0.938   3.415  0.7544  0.0822  0.0579
12214TIP3    H158057   2.701   0.954   3.391  0.3592 -0.4965 -2.0305
12214TIP3    H258058   2.609   0.851   3.454  1.0714 -0.0098 -0.1420
12215TIP3   OH258059   2.575   3.051  13.383  0.3055  0.2027 -0.3681
12215TIP3    H158060   2.603   2.984  13.445 -1.0029 -1.5891 -1.5997
12215TIP3    H258061   2.657   3.080  13.341  0.8941 -0.8419  0.0036
12216TIP3   OH258062   4.804   2.861  17.313  0.0132 -0.5240 -0.7934
12216TIP3    H158063   4.848   2.814  17.383  1.0884 -1.4246 -2.0249
12216TIP3    H258064   4.871   2.921  17.279 -0.7658  0.5577 -0.4953
12217TIP3   OH258065   1.835   2.480  11.357  0.0899  0.0200 -0.0776
12217TIP3    H158066   1.920   2.521  11.370  0.2094  0.3597 -1.6873
12217TIP3    H258067   1.847   2.424  11.280 -1.3178  0.6562 -0.8028
12218TIP3   OH258068   6.168   3.009  14.605 -0.0975  0.2194  0.3487
12218TIP3    H158069   6.211   3.087  14.570 -0.0948  1.2689  2.5385
12218TIP3    H258070   6.236   2.964  14.654 -0.7998  0.4617  1.5931
12219TIP3   OH258071   6.404   1.702   4.177 -0.3296  0.1178  0.1749
12219TIP3    H158072   6.418   1.699   4.083 -1.0934  1.7223 -0.0294
12219TIP3    H258073   6.309   1.692   4.188 -0.3624  0.8777  0.6823
12220TIP3   OH258074   2.874   2.749   4.417 -0.4462 -0.0850  0.2460
12220TIP3    H158075   2.891   2.747   4.323  2.4656  0.0227  0.7034
12220TIP3    H258076   2.855   2.658   4.440 -0.5995 -0.2010 -0.3157
12221TIP3   OH258077   5.983   6.295  14.443 -0.1451  0.5235  1.0141
12221TIP3    H158078   6.024   6.273  14.359 -1.1256  0.6607  0.4906
12221TIP3    H258079   5.983   6.213  14.492 -0.3709  0.2310  0.5328
12222TIP3   OH258080   1.083   2.930  17.341 -0.2675  0.0134 -0.3575
12222TIP3    H158081   0.995   2.943  17.305 -0.5562  0.7004  0.5583
12222TIP3    H258082   1.121   3.017  17.343 -0.4075  0.0650  1.3422
12223TIP3   OH258083   3.157   2.845  11.562 -0.6346 -0.5326  0.2323
12223TIP3    H158084   3.241   2.823  11.523  0.7588  1.3261  1.9517
12223TIP3    H258085   3.093   2.825  11.494  1.5494  1.9860 -2.8747
12224TIP3   OH258086   5.816   2.804   5.237  0.7577  0.2016  0.2277
12224TIP3    H158087   5.732   2.758   5.236  0.5579  0.5081 -1.8986
12224TIP3    H258088   5.862   2.768   5.313 -0.9347 -0.6007  0.9307
12225TIP3   OH258089   3.064   6.687  16.748  0.2966  0.2425  0.2724
12225TIP3    H158090   2.997   6.737  16.702  0.3512 -0.0639 -0.1439
12225TIP3    H258091   3.066   6.603  16.703 -0.0482 -0.2748  1.1933
12226TIP3   OH258092   5.273   1.086   2.528  0.4799  0.5529 -0.1848
12226TIP3    H158093   5.323   1.153   2.575  0.4782  1.0186 -0.8280
12226TIP3    H258094   5.290   1.005   2.575 -0.6340  1.2370  1.4694
12227TIP3   OH258095   6.658   4.393   1.951 -0.3721 -0.1221  0.0576
12227TIP3    H158096   6.651   4.320   1.889  0.5765 -0.1533 -0.0360
12227TIP3    H258097   6.642   4.471   1.897 -2.2267 -0.2826  0.3239
12228TIP3   OH258098   6.057   3.306   1.144 -0.5806 -0.7037  0.0537
12228TIP3    H158099   6.111   3.361   1.087 -1.7314  1.3027  0.7891
12228TIP3    H258100   6.036   3.362   1.218 -0.2270 -2.8248  1.8470
12229TIP3   OH258101   6.537   4.410   3.673  0.8446 -0.3678  0.1392
12229TIP3    H158102   6.473   4.423   3.743  1.4281  2.6478  0.2238
12229TIP3    H258103   6.484   4.388   3.596 -0.2083  0.7355  0.5229
12230TIP3   OH258104   5.046   1.962   5.057 -0.5226 -0.2403 -0.3085
12230TIP3    H158105   5.086   1.985   4.973 -2.1062 -0.4841 -1.1772
12230TIP3    H258106   5.092   1.883   5.085  2.3216  1.6441  0.7911
12231TIP3   OH258107   4.703   2.607   3.824 -0.0990 -0.2743  0.7278
12231TIP3    H158108   4.753   2.587   3.903 -1.1597  2.1114  2.1112
12231TIP3    H258109   4.653   2.527   3.807  1.1291 -1.2834  1.6973
12232TIP3   OH258110   6.078   6.726   1.246  0.0835  0.0102  0.6306
12232TIP3    H158111   6.091   6.813   1.284 -0.9760 -0.3028  1.7384
12232TIP3    H258112   6.162   6.682   1.260  1.8347  1.8284 -2.8138
12233TIP3   OH258113   1.868   1.018   2.071 -0.7732 -0.1258 -0.1581
12233TIP3    H158114   1.920   1.062   2.138 -1.0163  0.8163 -0.5658
12233TIP3    H258115   1.926   1.012   1.995 -1.4025  1.5193 -0.8350
12234TIP3   OH258116   2.555   5.083  13.428 -0.3475  0.0060 -0.0251
12234TIP3    H158117   2.491   5.063  13.360 -3.8903  3.1512  1.9663
12234TIP3    H258118   2.568   5.000  13.474 -1.6526 -1.1297 -1.5935
12235TIP3   OH258119   5.774   3.834   1.373 -0.0691  0.1571  0.0481
12235TIP3    H158120   5.718   3.822   1.450 -0.7434  0.3537 -0.4028
12235TIP3    H258121   5.721   3.886   1.312  1.0236  1.3535  0.0600
12236TIP3   OH258122   5.774   3.499   3.116  0.0414  0.8253  0.3569
12236TIP3    H158123   5.698   3.481   3.060  0.7275 -0.3472 -0.2278
12236TIP3    H258124   5.783   3.594   3.113  0.3413  0.7877 -1.9473
12237TIP3   OH258125   0.858   5.038  11.336 -0.0271  0.0131 -0.2656
12237TIP3    H158126   0.897   5.071  11.256  0.2462  2.4442  0.7737
12237TIP3    H258127   0.788   4.980  11.307  1.7673 -1.3321 -2.1775
12238TIP3   OH258128   4.934   4.848   1.038  0.5566  0.0560  0.3026
12238TIP3    H158129   5.029   4.859   1.030  0.7441 -1.7811 -0.5564
12238TIP3    H258130   4.914   4.881   1.126  1.9924  0.4603  0.5117
12239TIP3   OH258131   0.838   6.556   0.341  0.1072 -0.3727 -0.2600
12239TIP3    H158132   0.818   6.524   0.429 -2.7890 -0.8487 -0.9691
12239TIP3    H258133   0.847   6.477   0.288 -0.2931 -0.0973 -0.7551
12240TIP3   OH258134   3.049   3.368   0.203  0.0430 -0.6588 -0.2405
12240TIP3    H158135   3.143   3.385   0.207 -0.2891  1.5556 -0.5859
12240TIP3    H258136   3.012   3.416   0.277 -0.8998 -0.8673 -0.5549
12241TIP3   OH258137   0.681   3.763   0.867  0.2291 -0.6645  0.7893
12241TIP3    H158138   0.710   3.675   0.889  0.2469 -1.0178 -0.5909
12241TIP3    H258139   0.609   3.750   0.805 -0.6381  0.2706  1.5753
12242TIP3   OH258140   4.005   0.509   3.578  0.2378  0.2636  0.0235
12242TIP3    H158141   3.969   0.542   3.661 -1.2674 -0.2086 -0.4055
12242TIP3    H258142   3.930   0.511   3.518  0.4643 -2.4688 -0.4355
12243TIP3   OH258143   1.667   3.538  17.275 -0.3761 -0.3604  0.5866
12243TIP3    H158144   1.746   3.486  17.262 -1.0928 -1.1842 -0.7625
12243TIP3    H258145   1.677   3.577  17.362  1.5363 -0.3729  0.4200
12244TIP3   OH258146   0.800   0.071  17.049  0.4193  0.0252 -0.0125
12244TIP3    H158147   0.709   0.099  17.056  0.0254 -1.1122 -0.4423
12244TIP3    H258148   0.849   0.152  17.033 -0.6120  0.5456 -0.6301
12245TIP3   OH258149   4.921   5.375  10.905  0.1004 -0.0565 -0.1580
12245TIP3    H158150   4.925   5.470  10.899  1.0013  0.0903  1.8861
12245TIP3    H258151   4.897   5.346  10.817  1.4640  1.9611 -1.2774
12246TIP3   OH258152   1.483   5.383   1.262  0.1221 -0.1556 -0.5744
12246TIP3    H158153   1.469   5.470   1.226  0.5332  0.0805 -0.1802
12246TIP3    H258154   1.530   5.336   1.194  0.2220  0.0454 -0.6461
12247TIP3   OH258155   4.354   6.728   5.236 -0.1208  0.0118 -0.4329
12247TIP3    H158156   4.294   6.675   5.288  0.6258 -1.3203 -0.8813
12247TIP3    H258157   4.377   6.802   5.292  0.0299 -0.9595  0.8215
12248TIP3   OH258158   2.446   1.893   5.934 -0.0172 -0.0144 -0.4155
12248TIP3    H158159   2.455   1.919   6.026  1.8013 -0.9226 -0.2917
12248TIP3    H258160   2.515   1.941   5.888 -1.7796  1.5283 -1.6236
12249TIP3   OH258161   3.471   0.201   0.006  0.4252 -0.1739 -0.7307
12249TIP3    H158162   3.449   0.109  -0.009 -1.2466  0.4156 -2.2384
12249TIP3    H258163   3.565   0.206  -0.008  0.5829 -1.7172 -0.3203
12250TIP3   OH258164   2.336   5.786  15.865  0.5878  0.0213  1.0279
12250TIP3    H158165   2.419   5.748  15.837  0.3214  0.7743 -0.9131
12250TIP3    H258166   2.274   5.763  15.796 -0.0686  2.1157  0.8419
12251TIP3   OH258167   0.442   4.709   3.444  0.2318 -0.9648 -0.1898
12251TIP3    H158168   0.403   4.704   3.531  1.5203 -0.0927  0.4632
12251TIP3    H258169   0.524   4.660   3.452  1.2323  0.6072 -0.3825
12252TIP3   OH258170   2.645   6.185  15.053 -0.0834 -0.2328 -0.0967
12252TIP3    H158171   2.738   6.166  15.064  0.4072  1.9063 -0.1901
12252TIP3    H258172   2.614   6.116  14.994  1.2723 -1.3516  0.4227
12253TIP3   OH258173   0.337   1.587   2.617 -0.0578  0.0095 -0.8274
12253TIP3    H158174   0.358   1.552   2.703 -0.2023  0.4778 -0.6008
12253TIP3    H258175   0.422   1.607   2.577 -0.0232  1.0238 -0.2769
12254TIP3   OH258176   5.323   1.991   5.985 -0.4789 -1.1654 -0.1817
12254TIP3    H158177   5.234   2.025   5.987 -0.0565  0.0674 -0.7847
12254TIP3    H258178   5.364   2.029   6.064  0.7015  1.9623 -2.1033
12255TIP3   OH258179   4.893   6.082   3.270  0.6521  0.3504 -0.7631
12255TIP3    H158180   4.816   6.031   3.245 -0.1746  0.9736  0.4297
12255TIP3    H258181   4.963   6.048   3.214 -0.0661 -1.4619 -0.6187
12256TIP3   OH258182   3.796   0.062   1.265  0.4601  0.5784  0.6741
12256TIP3    H158183   3.774   0.000   1.195 -2.2281  0.9827  1.0728
12256TIP3    H258184   3.778   0.148   1.227 -1.8469  0.7753  2.0225
12257TIP3   OH258185   3.348   0.735   6.222 -0.0782 -0.1395  0.2729
12257TIP3    H158186   3.308   0.662   6.175  2.2155 -0.4172 -1.4058
12257TIP3    H258187   3.395   0.694   6.295  0.6118 -0.2910 -0.2469
12258TIP3   OH258188   1.309   4.675  14.574  0.8803  0.1356 -0.0170
12258TIP3    H158189   1.380   4.708  14.630 -0.7726  2.1691  1.0182
12258TIP3    H258190   1.251   4.629  14.635  0.9388 -0.9305 -0.7444
12259TIP3   OH258191   4.228   5.456   2.435  0.0271  0.3810 -0.4115
12259TIP3    H158192   4.159   5.406   2.478 -0.3477  1.3260  0.1151
12259TIP3    H258193   4.187   5.492   2.356 -0.2369  1.3207  0.1363
12260TIP3   OH258194   5.237   0.458   4.185 -0.2184 -0.2435 -0.2471
12260TIP3    H158195   5.223   0.369   4.220  1.8468 -1.2090 -1.7002
12260TIP3    H258196   5.307   0.494   4.240 -1.2486  0.6588  0.5269
12261TIP3   OH258197   5.771   1.882  13.525  0.0696  0.7470 -0.0511
12261TIP3    H158198   5.772   1.911  13.616  1.2319  1.5056 -0.2817
12261TIP3    H258199   5.697   1.822  13.520 -0.7479  1.6117  1.1040
12262TIP3   OH258200   3.507   4.992   6.247  0.7974  0.6197 -0.0908
12262TIP3    H158201   3.553   5.007   6.330  2.8892  0.5646 -1.1547
12262TIP3    H258202   3.540   5.061   6.189  2.5087 -1.6431 -2.0027
12263TIP3   OH258203   2.712   5.315   2.260  0.2385  0.0717 -0.2754
12263TIP3    H158204   2.789   5.371   2.251  2.0780 -1.8551  1.9692
12263TIP3    H258205   2.692   5.318   2.354 -0.4206 -1.9172 -0.3065
12264TIP3   OH258206   0.006   4.895  15.215 -0.2602 -0.3840 -0.4147
12264TIP3    H158207  -0.040   4.946  15.148 -0.3897  0.6067  0.4019
12264TIP3    H258208  -0.052   4.821  15.232 -1.6676  0.8715  0.6403
12265TIP3   OH258209   2.962   2.844  16.345  0.1672  0.6481  0.1455
12265TIP3    H158210   2.910   2.923  16.333  1.4584  1.5958  0.5265
12265TIP3    H258211   2.907   2.773  16.311 -1.5370  1.5265  0.9574
12266TIP3   OH258212   0.582   5.469   3.817 -0.4922  0.2791  0.2840
12266TIP3    H158213   0.533   5.395   3.852 -0.7155 -0.1698 -0.9491
12266TIP3    H258214   0.515   5.534   3.796 -0.7466 -0.7440 -2.4111
12267TIP3   OH258215   2.257   0.134  11.693  0.2336  0.3061  0.1237
12267TIP3    H158216   2.258   0.208  11.753 -1.3705  1.4008 -1.0783
12267TIP3    H258217   2.340   0.139  11.646  0.5236  0.7958  0.6851
12268TIP3   OH258218   1.515   3.872   1.658 -0.5644 -0.2031 -0.0607
12268TIP3    H158219   1.505   3.965   1.679  0.9720  0.0359 -0.2221
12268TIP3    H258220   1.593   3.869   1.603  0.1869 -1.7113  1.0191
12269TIP3   OH258221   2.853   1.650  13.799 -0.1159 -0.0510 -0.4585
12269TIP3    H158222   2.859   1.661  13.894  1.2803  0.8018 -0.6104
12269TIP3    H258223   2.818   1.561  13.787 -2.5761  0.6536  0.8238
12270TIP3   OH258224   2.714   1.016   0.147 -0.5957 -0.3573  0.4944
12270TIP3    H158225   2.668   0.948   0.196 -2.5722  0.1012 -0.6396
12270TIP3    H258226   2.646   1.076   0.119  1.0832  2.0857  1.3748
12271TIP3   OH258227   5.365   6.439  16.183 -0.2216 -0.0968  0.0858
12271TIP3    H158228   5.454   6.472  16.169  0.2201 -0.8075  1.0937
12271TIP3    H258229   5.323   6.448  16.098  0.7428  0.4737 -0.3532
12272TIP3   OH258230   6.224   3.656  11.528 -0.8580 -1.0085 -0.4597
12272TIP3    H158231   6.282   3.581  11.515  1.5753  0.6738 -0.1440
12272TIP3    H258232   6.199   3.652  11.620 -0.6758 -1.3935 -0.4243
12273TIP3   OH258233   6.052   0.106  13.579  0.3119  0.2922 -0.3380
12273TIP3    H158234   6.041   0.121  13.485 -0.7362  0.3462 -0.2251
12273TIP3    H258235   5.993   0.171  13.620 -0.2216 -0.5832  0.3109
12274TIP3   OH258236   4.020   0.600   6.597 -0.1817 -0.1682  0.0582
12274TIP3    H158237   4.093   0.618   6.655  1.0247 -1.4272 -1.0136
12274TIP3    H258238   3.945   0.586   6.655 -0.1513  3.2605  1.1188
12275TIP3   OH258239   5.532   4.307   1.058  0.9238 -0.2705 -0.4514
12275TIP3    H158240   5.445   4.341   1.079  0.1747 -1.4489 -1.4447
12275TIP3    H258241   5.571   4.374   1.002 -0.6604 -1.0729 -2.6784
12276TIP3   OH258242   1.103   0.091  16.477 -0.3292 -0.3463 -0.2204
12276TIP3    H158243   1.128  -0.001  16.489 -2.2984 -0.6149  2.6551
12276TIP3    H258244   1.008   0.091  16.477 -0.4094  1.5924 -1.8871
12277TIP3   OH258245   4.779   2.738   1.518 -0.0101  0.3615  0.3663
12277TIP3    H158246   4.796   2.662   1.462  0.1715  1.0036 -0.4705
12277TIP3    H258247   4.860   2.751   1.567 -0.7614 -1.3286  2.2081
12278TIP3   OH258248   3.888   6.410  16.883 -0.8860  0.0804 -0.0910
12278TIP3    H158249   3.869   6.328  16.837  0.3392  0.0606 -0.6180
12278TIP3    H258250   3.970   6.441  16.843  0.4185 -0.0877  2.2367
12279TIP3   OH258251   4.775   1.672  15.610  0.3528  0.3184  0.2198
12279TIP3    H158252   4.846   1.611  15.590 -0.5134 -0.1316 -1.7976
12279TIP3    H258253   4.815   1.759  15.603  1.1562  0.0371  1.1734
12280TIP3   OH258254   0.641   0.648   5.002  0.1762 -0.8615  0.4496
12280TIP3    H158255   0.569   0.685   4.951  2.4456  1.7195 -1.1641
12280TIP3    H258256   0.670   0.572   4.952  1.6396  0.9802 -1.6818
12281TIP3   OH258257   4.099   2.626   5.249  0.2212 -0.4308  0.3473
12281TIP3    H158258   4.157   2.673   5.188  0.7315  0.3686  1.4191
12281TIP3    H258259   4.016   2.673   5.244  0.3835 -0.1193  0.5625
12282TIP3   OH258260   2.276   0.829   5.838 -0.8354 -0.5280 -0.1594
12282TIP3    H158261   2.368   0.854   5.842 -1.3125  1.1705  2.4436
12282TIP3    H258262   2.258   0.820   5.744  1.0147  2.9357 -1.0097
12283TIP3   OH258263   1.738   1.670  13.422  0.0165  0.3317 -0.4472
12283TIP3    H158264   1.741   1.761  13.393 -1.0495 -0.2624 -2.6629
12283TIP3    H258265   1.738   1.619  13.341 -3.7095 -1.4716  0.4618
12284TIP3   OH258266   4.987   5.870  14.710 -0.8949  0.0148  0.0722
12284TIP3    H158267   5.033   5.793  14.743 -0.2111  0.2610 -0.2934
12284TIP3    H258268   4.960   5.846  14.621  2.0727  1.2397 -1.3054
12285TIP3   OH258269   2.593   5.720   3.291  0.4055 -0.3887 -0.3664
12285TIP3    H158270   2.620   5.643   3.240  0.8547 -0.2897 -0.2722
12285TIP3    H258271   2.599   5.793   3.229  1.2768 -0.2130 -0.0815
12286TIP3   OH258272   4.500   2.446  15.574 -0.3432 -0.1255  0.1985
12286TIP3    H158273   4.492   2.525  15.627 -2.3426 -0.2455  0.1382
12286TIP3    H258274   4.445   2.381  15.617  0.1255 -1.0620 -0.5500
12287TIP3   OH258275   5.759   1.272   0.008  0.1073 -0.3873  0.3235
12287TIP3    H158276   5.849   1.249   0.032  0.3872  0.0470 -0.2669
12287TIP3    H258277   5.716   1.293   0.091  0.8588  0.4383  0.5241
12288TIP3   OH258278   5.929   0.084  15.506 -0.0582 -0.5695 -0.2713
12288TIP3    H158279   6.011   0.076  15.554 -1.1604  1.2066  2.1308
12288TIP3    H258280   5.901  -0.007  15.492  0.0591 -1.2912  3.1640
12289TIP3   OH258281   1.767   6.406   4.339  0.3779 -0.1849  0.5021
12289TIP3    H158282   1.752   6.356   4.419  1.3665 -0.4978  0.5013
12289TIP3    H258283   1.807   6.344   4.278  0.4024  0.2640  0.0487
12290TIP3   OH258284   0.643   3.525   1.960  0.1233  0.1402  0.8514
12290TIP3    H158285   0.675   3.444   1.919  0.5217  0.0624  1.3148
12290TIP3    H258286   0.550   3.509   1.974  0.4253 -0.7000  2.0038
12291TIP3   OH258287   2.642   0.756  14.775 -0.3043  0.6341 -0.0230
12291TIP3    H158288   2.677   0.792  14.857  1.4855  1.1361 -0.9653
12291TIP3    H258289   2.717   0.754  14.716 -0.6743 -3.0760 -0.5921
12292TIP3   OH258290   2.051   6.206  17.181  0.3487 -0.1861  0.4869
12292TIP3    H158291   1.989   6.210  17.254  1.9131  0.6646  1.8168
12292TIP3    H258292   2.069   6.112  17.171 -2.3286 -0.6601 -1.0386
12293TIP3   OH258293   1.532   3.697   0.851 -0.2729  0.3077 -0.3828
12293TIP3    H158294   1.563   3.773   0.801 -0.2138 -0.4010 -1.4440
12293TIP3    H258295   1.551   3.622   0.796  1.0700 -0.6642  1.2880
12294TIP3   OH258296   6.323   1.412   0.676  0.1711 -0.0880  0.4013
12294TIP3    H158297   6.353   1.322   0.661 -0.5873 -0.1919 -0.5660
12294TIP3    H258298   6.249   1.402   0.736  0.0473 -0.1082  0.2434
12295TIP3   OH258299   1.553   0.258   3.146 -0.1107 -0.3738 -0.1282
12295TIP3    H158300   1.516   0.279   3.061 -1.1048  0.1232  0.4167
12295TIP3    H258301   1.511   0.175   3.171 -1.0114  0.2674  0.5573
12296TIP3   OH258302   3.075   3.759   3.304 -0.0754  0.0226  0.0121
12296TIP3    H158303   3.155   3.729   3.261 -0.3380  0.9570 -1.1753
12296TIP3    H258304   3.032   3.679   3.334 -0.0775 -0.7020 -1.8157
12297TIP3   OH258305   3.987   1.542  12.640  0.5117  0.2851 -0.1093
12297TIP3    H158306   3.933   1.504  12.710  0.2396  0.4534 -0.2270
12297TIP3    H258307   3.926   1.594  12.589  0.5096 -0.6306 -1.0678
12298TIP3   OH258308   1.344   2.157  10.494 -0.2701  0.0489 -0.9273
12298TIP3    H158309   1.328   2.180  10.402  0.1264 -0.9624 -1.2690
12298TIP3    H258310   1.406   2.084  10.489  2.8301  2.3454  0.2095
12299TIP3   OH258311   5.608   4.686  13.328  0.0047 -0.5628  0.4694
12299TIP3    H158312   5.623   4.600  13.367  0.1996 -0.7021  0.0897
12299TIP3    H258313   5.531   4.720  13.373 -1.2870 -1.7688 -0.7394
12300TIP3   OH258314   6.354   0.304  14.043  0.8841  0.3776  0.3375
12300TIP3    H158315   6.442   0.323  14.009  1.3548 -1.0781  0.6466
12300TIP3    H258316   6.312   0.255  13.973  0.3635  0.9299  0.2582
12301TIP3   OH258317   3.338   6.554  13.292  0.4673 -0.6633 -0.5115
12301TIP3    H158318   3.263   6.522  13.342 -0.5422  0.5831 -1.1687
12301TIP3    H258319   3.310   6.545  13.200  1.9492 -2.1114 -0.8733
12302TIP3   OH258320   0.322   4.601   2.168  0.2493 -0.2314 -0.6050
12302TIP3    H158321   0.411   4.598   2.203  0.8101 -2.3305 -2.0262
12302TIP3    H258322   0.266   4.604   2.246  1.5164  0.7511  0.3170
12303TIP3   OH258323   6.740   5.976   5.873  0.9692  0.2490 -0.5745
12303TIP3    H158324   6.746   6.033   5.950  0.6081  0.5003 -0.7312
12303TIP3    H258325   6.656   5.933   5.881  1.3390 -0.4405 -0.3409
12304TIP3   OH258326   2.268   5.599  17.326 -0.1100 -0.1414  0.7707
12304TIP3    H158327   2.280   5.541  17.402  0.1881  1.0679  1.6898
12304TIP3    H258328   2.353   5.643  17.316 -0.6587  0.9804  0.8430
12305TIP3   OH258329   4.346   6.147  12.423 -0.3146 -0.2492  0.2787
12305TIP3    H158330   4.357   6.227  12.475 -0.5574 -0.4110  0.5845
12305TIP3    H258331   4.269   6.164  12.369  0.0298 -0.0196 -0.1511
12306TIP3   OH258332   2.907   3.390  12.321 -0.2905  0.2597 -0.2795
12306TIP3    H158333   2.824   3.421  12.357 -0.9645 -0.5678 -1.0969
12306TIP3    H258334   2.969   3.461  12.341 -1.3010  1.1292 -0.1283
12307TIP3   OH258335   1.402   2.881  15.496 -0.4923 -0.3989  0.2385
12307TIP3    H158336   1.394   2.973  15.520 -0.8360 -0.1497 -0.7879
12307TIP3    H258337   1.496   2.866  15.488 -0.4104 -0.2705  0.8698
12308TIP3   OH258338   0.990   0.252  17.024 -0.4716 -0.1200  0.2210
12308TIP3    H158339   0.988   0.341  17.058 -0.1948 -0.4044  1.0060
12308TIP3    H258340   1.075   0.217  17.051  0.2548  0.0052 -1.7508
12309TIP3   OH258341   2.003   1.925  14.932 -0.0380 -0.2393 -0.1640
12309TIP3    H158342   1.966   1.978  15.003  2.7093  1.3989  0.1914
12309TIP3    H258343   2.092   1.959  14.921 -0.5608  0.2035 -5.0504
12310TIP3   OH258344   2.607   6.410  10.672  0.0347  0.1666 -0.1810
12310TIP3    H158345   2.685   6.392  10.724  0.2170  1.2701 -0.0568
12310TIP3    H258346   2.638   6.406  10.581 -0.1138 -0.9466 -0.2026
12311TIP3   OH258347   2.974   3.764  17.295  0.3890  0.3133  0.1310
12311TIP3    H158348   3.047   3.738  17.239  2.4110 -0.7086  2.9891
12311TIP3    H258349   2.904   3.703  17.273  0.4593  1.0214 -2.3637
12312TIP3   OH258350   6.450   5.519  12.530  0.5026 -0.4208 -0.6617
12312TIP3    H158351   6.402   5.594  12.496 -0.7341 -0.8469  0.0621
12312TIP3    H258352   6.417   5.445  12.479 -1.7714 -1.1521  1.6675
12313TIP3   OH258353   4.936   6.439   5.086 -0.3103  0.1680 -0.0870
12313TIP3    H158354   4.912   6.528   5.112  1.4731  0.3040  1.3554
12313TIP3    H258355   5.030   6.444   5.069 -0.3929 -1.2185 -1.1020
12314TIP3   OH258356   4.772   2.701  11.563 -0.8993  0.3883 -0.2568
12314TIP3    H158357   4.804   2.784  11.526 -1.8156  0.5181 -0.7806
12314TIP3    H258358   4.677   2.704  11.550 -0.8291 -1.3988 -1.6822
12315TIP3   OH258359   5.519   0.171   1.701  0.0154  0.3010  0.0815
12315TIP3    H158360   5.564   0.133   1.625  1.9292 -1.7935  2.1035
12315TIP3    H258361   5.467   0.099   1.736 -0.0933  0.9372  1.2784
12316TIP3   OH258362   6.471   5.709   1.419 -0.2222  0.3784 -0.0157
12316TIP3    H158363   6.505   5.713   1.509  0.2762  0.2093 -0.1925
12316TIP3    H258364   6.507   5.628   1.384  0.2677  0.8608 -0.6407
12317TIP3   OH258365   2.100   4.502  14.714  0.3051 -0.5697  0.0201
12317TIP3    H158366   2.064   4.418  14.743  1.9127 -0.9897  0.9072
12317TIP3    H258367   2.164   4.478  14.646 -1.5012  0.2113 -2.0756
12318TIP3   OH258368   0.307   4.029   0.167 -0.5389 -0.0925 -0.1040
12318TIP3    H158369   0.230   4.077   0.135 -0.4671 -0.6896 -1.2495
12318TIP3    H258370   0.358   4.011   0.087 -0.3620 -1.6946  0.3460
12319TIP3   OH258371   4.789   1.516   0.880  0.2295 -0.2306  0.4033
12319TIP3    H158372   4.728   1.447   0.853 -0.6951  1.2175 -1.3936
12319TIP3    H258373   4.875   1.477   0.867 -0.2679 -1.2892  0.1017
12320TIP3   OH258374   6.355   2.696  17.002  0.0620 -0.7339  0.9030
12320TIP3    H158375   6.305   2.740  16.932 -0.9651 -2.7253  0.3142
12320TIP3    H258376   6.443   2.687  16.966  0.4266  1.1460  1.2081
12321TIP3   OH258377   1.371   0.839  13.045 -0.4613  0.2931  0.3755
12321TIP3    H158378   1.304   0.781  13.081 -1.0058  1.4429  1.2743
12321TIP3    H258379   1.402   0.794  12.966 -2.9452  0.1809 -0.6071
12322TIP3   OH258380   1.246   5.767   1.646 -0.2762  0.2222  0.1806
12322TIP3    H158381   1.324   5.717   1.667 -1.5935 -2.6836 -1.2135
12322TIP3    H258382   1.176   5.723   1.695 -1.5213  0.7017 -1.1189
12323TIP3   OH258383   4.375   6.001  14.433  0.0341  0.2392  0.1564
12323TIP3    H158384   4.378   5.935  14.364  0.5509 -0.1236  0.5142
12323TIP3    H258385   4.337   6.078  14.391  0.6655  0.1405 -0.6320
12324TIP3   OH258386   1.632   1.944  12.000 -0.0681 -0.1061 -0.1440
12324TIP3    H158387   1.634   1.932  11.906 -1.5209  1.3429 -0.3988
12324TIP3    H258388   1.570   2.016  12.015  0.2439 -0.1750  1.8972
12325TIP3   OH258389   0.843   5.017   3.226  0.4771  0.4254  0.1485
12325TIP3    H158390   0.769   4.973   3.265  0.5258  0.7649  0.6306
12325TIP3    H258391   0.807   5.098   3.189 -0.1656 -1.2049 -3.2017
12326TIP3   OH258392   6.620   6.491  11.766 -0.3349 -0.1160 -0.1815
12326TIP3    H158393   6.707   6.528  11.757 -1.0477  1.8131  0.4444
12326TIP3    H258394   6.596   6.463  11.678  1.1204 -1.2287 -0.2557
12327TIP3   OH258395   4.897   3.773  11.313 -0.9210 -0.2335  0.5516
12327TIP3    H158396   4.906   3.679  11.304 -2.3766 -0.5392  1.9357
12327TIP3    H258397   4.864   3.787  11.402 -0.4379  1.6039  0.4963
12328TIP3   OH258398   1.294   4.251   2.247  0.0245  0.1160  0.3521
12328TIP3    H158399   1.268   4.235   2.156  0.3120  2.5229 -0.2185
12328TIP3    H258400   1.232   4.316   2.279  1.6320  1.4452  0.9148
12329TIP3   OH258401   1.914   6.287   0.667 -0.6204  0.0004 -0.1129
12329TIP3    H158402   1.937   6.311   0.757 -2.0338 -0.4821  0.3984
12329TIP3    H258403   1.874   6.366   0.631  0.2243  0.2916 -0.4362
12330TIP3   OH258404   1.139   5.101   1.389  0.0740  0.1847 -0.1240
12330TIP3    H158405   1.191   5.178   1.413 -0.2330  0.7155 -1.0943
12330TIP3    H258406   1.198   5.046   1.338 -0.6177  1.4816 -2.5315
12331TIP3   OH258407   3.630   0.808  13.425  0.6223  0.3731  0.4293
12331TIP3    H158408   3.614   0.801  13.519  0.2350 -0.4759  0.3096
12331TIP3    H258409   3.576   0.739  13.386  1.1100  0.4333 -0.3771
12332TIP3   OH258410   0.011   1.875  16.993  0.0835 -0.2440 -0.6144
12332TIP3    H158411  -0.083   1.882  17.007  0.2245  1.2265 -0.2723
12332TIP3    H258412   0.048   1.951  17.038  1.5513 -1.4037  0.2376
12333TIP3   OH258413   3.695   0.795   3.723 -0.0211  0.3497  0.1718
12333TIP3    H158414   3.732   0.841   3.798 -0.8773 -0.6113  1.2226
12333TIP3    H258415   3.756   0.813   3.651  2.9206 -1.7523  1.9476
12334TIP3   OH258416   5.769   4.886   1.442 -0.1238  0.2796 -0.4144
12334TIP3    H158417   5.815   4.919   1.365  2.0993 -0.2752  0.5835
12334TIP3    H258418   5.837   4.880   1.509 -1.7443 -0.3933  1.2447
12335TIP3   OH258419   1.060   1.341  12.681 -0.1827 -0.2043 -0.1641
12335TIP3    H158420   1.129   1.333  12.747  0.1496  1.0350 -0.3492
12335TIP3    H258421   0.992   1.393  12.723  1.0477  2.7430 -1.5015
12336TIP3   OH258422   5.724   1.296   6.120 -0.1213 -0.0237 -0.2013
12336TIP3    H158423   5.781   1.339   6.183  1.1387  0.2506 -1.4742
12336TIP3    H258424   5.681   1.227   6.169  1.1669 -0.1109  0.8457
12337TIP3   OH258425   4.149   0.434   5.893 -0.1937 -0.6487  0.0628
12337TIP3    H158426   4.164   0.379   5.969 -0.0051 -0.4740  0.1535
12337TIP3    H258427   4.163   0.523   5.925 -2.1436 -0.4059  0.3543
12338TIP3   OH258428   5.850   0.726   3.097  0.1024 -0.4891 -0.1760
12338TIP3    H158429   5.783   0.779   3.055 -0.7161 -0.5194  1.0415
12338TIP3    H258430   5.854   0.647   3.043 -2.9672 -1.8039  1.2777
12339TIP3   OH258431   3.620   0.725  11.787 -0.2162  0.0633  0.1873
12339TIP3    H158432   3.673   0.803  11.770 -1.3576  0.5316 -1.4235
12339TIP3    H258433   3.672   0.653  11.750  0.5514  0.1127  1.1229
12340TIP3   OH258434   6.562   4.314  13.403  0.5396 -0.5798  0.0104
12340TIP3    H158435   6.581   4.352  13.489 -1.9295 -2.7153  1.6589
12340TIP3    H258436   6.631   4.249  13.390  0.8631 -0.3299  0.4374
12341TIP3   OH258437   4.989   4.328  11.877  0.4572  0.0793  0.8055
12341TIP3    H158438   4.943   4.392  11.932 -1.7866 -2.1467  1.6641
12341TIP3    H258439   5.009   4.256  11.936  1.9264 -0.5513 -0.3944
12342TIP3   OH258440   5.946   5.489   1.598 -0.4259  0.4359  0.3735
12342TIP3    H158441   6.034   5.529   1.596 -0.6865  1.0123  0.1766
12342TIP3    H258442   5.960   5.399   1.569  0.1414  0.4530  0.5796
12343TIP3   OH258443   1.796   6.487  14.407 -0.1569 -0.0478 -0.4449
12343TIP3    H158444   1.830   6.417  14.351  0.5145 -0.4895  0.4962
12343TIP3    H258445   1.701   6.481  14.396 -0.0527 -0.2956 -1.3250
12344TIP3   OH258446   4.063   3.905  12.744 -0.6247  0.9006  0.3205
12344TIP3    H158447   4.089   3.973  12.682 -2.7815  0.0392 -1.6876
12344TIP3    H258448   4.135   3.843  12.744 -1.3294 -0.1180 -3.0323
12345TIP3   OH258449   0.437   1.627  14.676  0.0696  0.2057  0.3083
12345TIP3    H158450   0.444   1.544  14.724 -0.1421 -0.3425 -0.5894
12345TIP3    H258451   0.382   1.682  14.732 -0.3775 -0.5037  0.5809
12346TIP3   OH258452   0.610   0.679  14.621  0.8047 -0.1206  0.0100
12346TIP3    H158453   0.637   0.587  14.626  1.7308  0.1639  0.6619
12346TIP3    H258454   0.642   0.717  14.703 -0.4348  0.5663  0.1936
12347TIP3   OH258455   4.493   1.334  12.529  0.0314 -0.4489  0.0577
12347TIP3    H158456   4.416   1.379  12.493 -0.4488  0.2916  1.8999
12347TIP3    H258457   4.465   1.243  12.537  0.4386 -0.8315 -2.1310
12348TIP3   OH258458   4.301   4.507  16.555  0.4288 -0.9143 -0.6772
12348TIP3    H158459   4.261   4.483  16.639 -1.3404  1.1140 -0.8392
12348TIP3    H258460   4.286   4.432  16.498 -0.9950 -1.1880  0.0170
12349TIP3   OH258461   0.679   0.648  16.987 -0.7171  0.0022 -0.1392
12349TIP3    H158462   0.660   0.618  17.076 -0.3424  0.7106  0.1870
12349TIP3    H258463   0.754   0.707  16.997 -0.2823 -0.3796 -1.0052
12350TIP3   OH258464   5.630   0.486   1.229  0.4617  0.0812 -0.1777
12350TIP3    H158465   5.657   0.529   1.310 -0.3613  1.4532 -0.6038
12350TIP3    H258466   5.542   0.520   1.212  0.0306 -1.3135 -0.8780
12351TIP3   OH258467   1.367   3.410   5.594  0.3574 -0.4367 -0.0391
12351TIP3    H158468   1.419   3.379   5.669 -0.6581  1.0054  1.3205
12351TIP3    H258469   1.398   3.499   5.579 -0.9871  0.0873  0.1496
12352TIP3   OH258470   0.831   6.461   3.915  0.1343 -0.0022 -0.2564
12352TIP3    H158471   0.770   6.454   3.989  0.1302  0.7710 -0.1734
12352TIP3    H258472   0.788   6.522   3.855  1.0150  0.9375  0.0202
12353TIP3   OH258473   5.628   0.577  14.663 -0.4013  0.5506  0.0362
12353TIP3    H158474   5.685   0.508  14.628 -0.6293  0.3995 -0.0368
12353TIP3    H258475   5.672   0.606  14.743 -0.0357  0.6877 -0.2116
12354TIP3   OH258476   3.443   3.174  15.514  0.1202 -0.2360  0.4936
12354TIP3    H158477   3.471   3.115  15.445 -0.3783 -0.5663  0.5692
12354TIP3    H258478   3.369   3.222  15.475  1.3982  1.3814 -0.0843
12355TIP3   OH258479   6.167   5.127   4.223 -0.3081  0.1048 -0.8132
12355TIP3    H158480   6.215   5.095   4.299 -0.4204  0.5394 -0.5524
12355TIP3    H258481   6.217   5.203   4.193 -1.1681  0.9629 -0.1419
12356TIP3   OH258482   4.656   3.670  14.518 -0.2938  0.0921 -0.1324
12356TIP3    H158483   4.571   3.651  14.477 -0.7413  0.7903  0.4573
12356TIP3    H258484   4.648   3.635  14.607 -0.4550  1.3240  0.3578
12357TIP3   OH258485   2.880   4.151   1.396  0.3284  0.4631 -1.1306
12357TIP3    H158486   2.944   4.131   1.464  0.9473 -0.6018 -1.9872
12357TIP3    H258487   2.932   4.185   1.323 -0.0044 -0.7732 -1.9806
12358TIP3   OH258488   4.424   1.265   4.644 -0.1932 -0.4373  0.2231
12358TIP3    H158489   4.457   1.275   4.733 -1.5389 -0.8572  0.7968
12358TIP3    H258490   4.413   1.354   4.612 -1.3564 -0.2234  1.1375
12359TIP3   OH258491   5.854   0.184   2.970  0.5807  0.4060  0.4005
12359TIP3    H158492   5.929   0.162   2.914 -0.7568  0.1990 -1.3988
12359TIP3    H258493   5.812   0.099   2.988  0.1984  0.6245  0.5470
12360TIP3   OH258494   4.942   0.966  13.551  0.2099  0.0821  0.1226
12360TIP3    H158495   5.019   0.916  13.580  1.0247  0.4724 -1.2964
12360TIP3    H258496   4.911   0.919  13.474  0.7554  1.5121 -1.0040
12361TIP3   OH258497   0.780   1.070   5.648  0.0505  0.1561 -0.4814
12361TIP3    H158498   0.783   1.016   5.569 -0.3820 -0.3877 -0.1391
12361TIP3    H258499   0.776   1.160   5.617 -0.3638 -0.0668 -1.0830
12362TIP3   OH258500   6.185   6.251   4.125  0.3371 -1.2912 -0.1720
12362TIP3    H158501   6.162   6.261   4.217  1.0947 -0.8006 -0.0235
12362TIP3    H258502   6.102   6.237   4.080 -0.2754  0.4863  0.3307
12363TIP3   OH258503   5.994   6.271   0.809  0.2976  0.1408 -0.0865
12363TIP3    H158504   6.003   6.257   0.715 -1.0231 -0.1594 -0.1905
12363TIP3    H258505   6.084   6.273   0.842  1.0216  3.7099 -1.8070
12364TIP3   OH258506   6.337   4.922  11.915 -0.4423  0.2909  0.1638
12364TIP3    H158507   6.274   4.851  11.898  0.2338 -0.1050 -0.7543
12364TIP3    H258508   6.356   4.959  11.829  2.2387 -1.0451  0.0701
12365TIP3   OH258509   1.318   3.944  11.860 -0.2682 -0.0059  0.3671
12365TIP3    H158510   1.264   3.879  11.815  1.1892 -1.0929  0.1024
12365TIP3    H258511   1.400   3.944  11.811  0.2401  1.0707  1.1861
12366TIP3   OH258512   3.371   0.094   1.645 -0.2654 -0.6080 -0.8840
12366TIP3    H158513   3.352   0.057   1.731  1.7833  2.1846  0.9401
12366TIP3    H258514   3.384   0.018   1.588  1.7754 -2.7189  2.1100
12367TIP3   OH258515   4.669   5.965   3.244 -0.0607  0.3789  0.2208
12367TIP3    H158516   4.583   6.000   3.218 -0.5295 -1.5693 -1.0346
12367TIP3    H258517   4.650   5.906   3.316  0.3564  0.6180  0.5300
12368TIP3   OH258518   2.165   2.870  13.138 -0.3927  0.6649  0.0847
12368TIP3    H158519   2.125   2.950  13.103  0.3475  1.6303  1.4001
12368TIP3    H258520   2.201   2.895  13.223  1.4990 -0.5992 -0.2797
12369TIP3   OH258521   4.056   3.409   6.719  0.0851 -0.2987  0.5787
12369TIP3    H158522   4.061   3.488   6.772  0.0562  0.4880 -0.5718
12369TIP3    H258523   4.146   3.392   6.692 -0.2733  1.1496 -1.7403
12370TIP3   OH258524   2.037   1.943   2.878 -0.0617  0.0319 -0.2987
12370TIP3    H158525   2.006   1.878   2.941 -0.3743  1.2305  0.8215
12370TIP3    H258526   2.021   1.903   2.793 -0.8574 -1.0877  0.3521
12371TIP3   OH258527   1.917   3.247  11.940  0.0615 -0.1926 -0.1903
12371TIP3    H158528   1.854   3.311  11.973 -0.9155 -0.5750 -1.2388
12371TIP3    H258529   1.924   3.182  12.010  0.0688  0.3833  0.3494
12372TIP3   OH258530   4.276   5.378  13.321  0.0065  0.4839 -0.0597
12372TIP3    H158531   4.363   5.390  13.359 -0.0175  0.1528  0.1024
12372TIP3    H258532   4.281   5.417  13.234 -0.0348  1.5760  0.4104
12373TIP3   OH258533   6.670   4.124  12.711 -0.4550 -0.5493 -0.5484
12373TIP3    H158534   6.710   4.048  12.751 -1.7861 -1.4048 -0.7556
12373TIP3    H258535   6.714   4.199  12.751  1.7552 -1.4006 -1.2497
12374TIP3   OH258536   6.194   2.310   1.448 -0.9145  0.6767  0.3779
12374TIP3    H158537   6.113   2.303   1.497 -0.8946 -0.9774  0.2241
12374TIP3    H258538   6.201   2.227   1.401  0.0441  1.4380 -0.8916
12375TIP3   OH258539   2.292   1.199   4.931 -0.2933  0.3965 -0.1816
12375TIP3    H158540   2.347   1.128   4.898  0.7749  1.2892 -0.4114
12375TIP3    H258541   2.259   1.168   5.015 -1.4258 -1.1290 -1.1354
12376TIP3   OH258542   6.186   6.630  14.671 -0.1578  0.0904 -0.0541
12376TIP3    H158543   6.249   6.675  14.614  0.5775 -0.0542  0.6267
12376TIP3    H258544   6.214   6.653  14.759 -0.0034 -1.4100  0.2988
12377TIP3   OH258545   3.373   5.198  12.017  0.2066 -0.0929  0.4533
12377TIP3    H158546   3.327   5.223  12.098 -1.9337  0.4960 -0.8602
12377TIP3    H258547   3.464   5.188  12.044 -0.5102 -0.4685  3.0578
12378TIP3   OH258548   0.431   4.503   0.503 -0.6480  0.6225 -0.0213
12378TIP3    H158549   0.412   4.551   0.584 -1.2138 -1.7372  1.3612
12378TIP3    H258550   0.523   4.520   0.486 -0.6450  1.5884  0.8203
12379TIP3   OH258551   4.550   4.146  11.714  0.0051 -0.3552 -0.1036
12379TIP3    H158552   4.583   4.090  11.643 -3.4804 -1.0581 -1.3690
12379TIP3    H258553   4.595   4.230  11.701  1.2049 -1.1928 -1.6668
12380TIP3   OH258554   0.655   1.692  11.198  0.0680  0.3215  0.1932
12380TIP3    H158555   0.661   1.777  11.242  0.4650  0.5549 -0.3079
12380TIP3    H258556   0.643   1.714  11.105  1.4946 -0.1587 -0.1286
12381TIP3   OH258557   0.670   5.474  13.949 -0.7708 -0.0422 -0.9360
12381TIP3    H158558   0.599   5.434  13.899 -0.5425 -0.7131 -0.7340
12381TIP3    H258559   0.707   5.402  14.001 -0.3457  0.4269 -0.5706
12382TIP3   OH258560   4.400   2.591  15.794 -1.1777 -0.3456  0.0669
12382TIP3    H158561   4.418   2.683  15.775  0.3311 -0.3817  1.0802
12382TIP3    H258562   4.305   2.586  15.803 -1.5542  0.5766 -2.5193
12383TIP3   OH258563   3.388   2.314   0.891  0.2539  0.1678  0.0346
12383TIP3    H158564   3.342   2.355   0.963 -0.0630  2.6247 -1.4516
12383TIP3    H258565   3.370   2.221   0.900 -2.9945  0.7888  0.9131
12384TIP3   OH258566   6.074   4.986  10.779 -0.4744  0.5907  0.1961
12384TIP3    H158567   6.072   4.892  10.761  0.2766  0.7595 -0.8516
12384TIP3    H258568   6.134   5.022  10.714 -2.9063  2.2135 -1.3567
12385TIP3   OH258569   1.270   4.785   5.889 -0.1611  0.0854  0.2090
12385TIP3    H158570   1.230   4.700   5.903  1.1180 -0.5227  0.3033
12385TIP3    H258571   1.349   4.783   5.943  0.2106  1.0941 -0.2760
12386TIP3   OH258572   0.108   1.498   5.811  0.0383 -0.3504  0.0717
12386TIP3    H158573   0.019   1.491   5.777 -0.2931 -3.2510  1.2225
12386TIP3    H258574   0.098   1.496   5.906  1.3377 -2.6829  0.2409
12387TIP3   OH258575   4.589   5.699   2.041  0.0303 -0.0400  0.0908
12387TIP3    H158576   4.674   5.712   1.999  0.8852 -0.6541  1.5472
12387TIP3    H258577   4.530   5.673   1.970  0.8357  1.2392 -1.0857
12388TIP3   OH258578   1.195   0.764   1.764 -0.2663  0.0645 -0.2697
12388TIP3    H158579   1.288   0.760   1.738 -0.3367  1.2334 -0.7541
12388TIP3    H258580   1.192   0.830   1.833 -0.4785 -1.2892  1.0746
12389TIP3   OH258581   1.245   2.226   5.000  0.5132 -0.0527  0.0255
12389TIP3    H158582   1.246   2.320   5.019 -0.1354  0.0338 -0.3401
12389TIP3    H258583   1.313   2.190   5.058  0.2985  0.5401  0.6742
12390TIP3   OH258584   1.014   4.188   3.608 -0.0361 -0.1713 -0.3822
12390TIP3    H158585   1.047   4.187   3.518 -2.1921 -2.4435 -1.2770
12390TIP3    H258586   1.024   4.098   3.638 -0.5955  0.2583  1.1784
12391TIP3   OH258587   5.647   0.477  11.771  0.4331 -0.8824  0.0612
12391TIP3    H158588   5.651   0.393  11.726  1.2561 -0.6032 -0.4174
12391TIP3    H258589   5.737   0.492  11.801  0.3488 -0.0778 -0.0537
12392TIP3   OH258590   3.941   5.092  14.529 -0.2906  0.2674 -0.4576
12392TIP3    H158591   3.921   5.108  14.621  0.2775 -0.1206 -0.2621
12392TIP3    H258592   3.857   5.100  14.485 -1.0410 -1.8911  0.4126
12393TIP3   OH258593   3.545   0.911  14.558  0.4358  0.2269  0.1037
12393TIP3    H158594   3.622   0.864  14.525  0.0399  0.2836 -0.9340
12393TIP3    H258595   3.491   0.843  14.598  0.3317 -0.0485 -0.4974
12394TIP3   OH258596   3.064   5.132  10.644  0.3627  0.0391  0.3776
12394TIP3    H158597   3.098   5.072  10.711  0.4808  1.5605  1.7189
12394TIP3    H258598   2.972   5.107  10.634 -0.1052  0.8567  2.3514
12395TIP3   OH258599   2.388   5.233  14.723  0.4700 -0.7484 -0.1079
12395TIP3    H158600   2.320   5.252  14.659  0.8717  0.9497 -0.0682
12395TIP3    H258601   2.342   5.189  14.794 -0.0103 -2.5264 -1.4375
12396TIP3   OH258602   3.557   6.419   5.861  0.1196  0.4661 -0.1486
12396TIP3    H158603   3.633   6.457   5.905  0.2373 -0.6721  0.6832
12396TIP3    H258604   3.483   6.472   5.890  0.3839  0.5835  0.3130
12397TIP3   OH258605   1.742   1.648  16.968  0.2429  0.9776 -0.4079
12397TIP3    H158606   1.836   1.636  16.952  0.6036  2.3308  0.4665
12397TIP3    H258607   1.702   1.565  16.943  1.4954  0.8387 -2.1044
12398TIP3   OH258608   5.284   4.248  11.791  0.1467 -0.0659  0.3380
12398TIP3    H158609   5.263   4.336  11.760 -0.2025 -0.3757 -0.3150
12398TIP3    H258610   5.305   4.260  11.884  0.9485  0.8248  0.0565
12399TIP3   OH258611   5.484   5.479   2.233  0.5897 -0.1209  0.4374
12399TIP3    H158612   5.507   5.447   2.146  0.8853 -2.0422  1.1718
12399TIP3    H258613   5.405   5.431   2.257 -1.1615  2.4166  0.1715
12400TIP3   OH258614   3.268   6.131  12.060 -0.5900  0.0108 -0.5256
12400TIP3    H158615   3.250   6.185  12.136  2.2922  0.7540 -0.2403
12400TIP3    H258616   3.245   6.186  11.985  1.3268  1.3276 -0.2170
12401TIP3   OH258617   4.997   2.860  15.661 -0.2284  0.3349 -0.3994
12401TIP3    H158618   5.060   2.868  15.588 -2.2922  0.0935 -2.3127
12401TIP3    H258619   4.995   2.766  15.680  0.2764  0.3919 -0.0417
12402TIP3   OH258620   5.464   4.980  16.431 -0.0216 -0.0541 -0.2529
12402TIP3    H158621   5.447   4.892  16.465  0.6438  0.3019  1.0432
12402TIP3    H258622   5.519   5.021  16.497  1.5400  0.5958 -1.8825
12403TIP3   OH258623   2.224   4.198   5.312 -0.3170  0.0915  0.0412
12403TIP3    H158624   2.228   4.123   5.372 -1.6107 -0.6107 -0.7045
12403TIP3    H258625   2.145   4.245   5.339  0.4309  1.1676  0.4379
12404TIP3   OH258626   1.862   2.234  11.786  0.1912  0.1050  0.2336
12404TIP3    H158627   1.883   2.158  11.841  0.2037 -0.7535 -0.9264
12404TIP3    H258628   1.854   2.198  11.698 -0.4327  1.3587 -0.2398
12405TIP3   OH258629   5.180   0.104   5.822  0.8241  0.1170 -0.2356
12405TIP3    H158630   5.096   0.079   5.859  0.5122  1.1350 -0.2357
12405TIP3    H258631   5.244   0.087   5.892  0.4466  0.5855  0.2228
12406TIP3   OH258632   5.692   6.441  12.998 -0.2847 -0.1360  0.5318
12406TIP3    H158633   5.757   6.402  12.939 -0.9649 -1.8869  0.8793
12406TIP3    H258634   5.643   6.501  12.942  1.3484  0.9183  0.1733
12407TIP3   OH258635   0.742   3.013   4.439 -0.9337  0.3055  0.5859
12407TIP3    H158636   0.755   3.031   4.533 -0.0419 -0.3699  0.6056
12407TIP3    H258637   0.686   3.085   4.409 -0.0777  1.3221  1.3357
12408TIP3   OH258638   4.142   6.063   2.052 -0.3425  0.3587 -0.3324
12408TIP3    H158639   4.176   6.144   2.015 -0.4424  0.3135 -0.5248
12408TIP3    H258640   4.109   6.014   1.976 -0.4190  0.2046 -0.1999
12409TIP3   OH258641   6.714   2.853  11.539 -0.1574  0.0740  0.2788
12409TIP3    H158642   6.639   2.875  11.595 -0.1978  1.6618 -0.3649
12409TIP3    H258643   6.735   2.934  11.494 -0.0216 -1.1154 -1.9248
12410TIP3   OH258644   2.180   1.450   4.860 -0.2661 -0.5740 -0.5618
12410TIP3    H158645   2.090   1.420   4.848 -1.4702  1.7974  1.6293
12410TIP3    H258646   2.220   1.384   4.916 -0.7490 -1.3859 -1.1434
12411TIP3   OH258647   4.687   5.704  15.369 -0.3874 -0.2512  0.0719
12411TIP3    H158648   4.774   5.676  15.340 -1.0232 -0.7375 -1.4479
12411TIP3    H258649   4.632   5.626  15.362 -0.4858 -0.6153  3.3254
12412TIP3   OH258650   3.529   1.811  14.281  0.0717 -0.3174 -0.3687
12412TIP3    H158651   3.442   1.826  14.318 -0.6609 -0.1516 -2.0338
12412TIP3    H258652   3.513   1.751  14.208  1.1117  0.8396 -1.6039
12413TIP3   OH258653   4.411   2.638  14.784  0.5585 -0.5067  0.1157
12413TIP3    H158654   4.401   2.546  14.808 -0.9235 -0.1537  1.0136
12413TIP3    H258655   4.374   2.644  14.696  0.7660 -0.7874  0.0076
12414TIP3   OH258656   3.301   2.739  12.842 -0.1509 -0.3529  0.5267
12414TIP3    H158657   3.389   2.713  12.871  0.9995  2.0054 -0.5759
12414TIP3    H258658   3.257   2.656  12.825  1.6696 -1.6330  1.6017
12415TIP3   OH258659   1.713   3.490   5.646  0.1069 -0.0954 -0.0416
12415TIP3    H158660   1.642   3.553   5.637  0.1800 -0.1714 -1.3088
12415TIP3    H258661   1.792   3.541   5.629  0.0203 -1.0499 -4.7197
12416TIP3   OH258662   5.077   1.713   1.811  0.1660 -0.3227 -0.0179
12416TIP3    H158663   4.985   1.739   1.813  0.1797 -0.2275 -0.5241
12416TIP3    H258664   5.076   1.621   1.787  0.2517 -0.0173 -1.2426
12417TIP3   OH258665   3.309   4.802   4.889  0.0418  0.6139 -0.2053
12417TIP3    H158666   3.337   4.727   4.836 -1.9966 -1.1392  1.0538
12417TIP3    H258667   3.304   4.769   4.978 -1.6856  1.9903  0.2774
12418TIP3   OH258668   6.286   0.482  16.377  0.2128 -0.0714 -0.2958
12418TIP3    H158669   6.322   0.405  16.421  0.8036  1.2410  1.6143
12418TIP3    H258670   6.343   0.494  16.300 -1.1306 -2.6674 -1.8501
12419TIP3   OH258671   0.684   1.384  15.424  0.5296  0.2036  0.3485
12419TIP3    H158672   0.590   1.399  15.419  0.2581 -0.2753  2.7811
12419TIP3    H258673   0.702   1.321  15.354 -1.0074  0.0672  0.0472
12420TIP3   OH258674   4.282   1.170  15.566  0.5015 -0.0240 -0.3435
12420TIP3    H158675   4.247   1.216  15.642 -0.3832  0.8151 -1.2299
12420TIP3    H258676   4.280   1.077  15.592 -1.0896  0.1121  0.1794
12421TIP3   OH258677   4.509   6.581   0.646 -0.0533 -0.0841  0.8092
12421TIP3    H158678   4.518   6.675   0.630 -2.4803 -0.2142 -1.9819
12421TIP3    H258679   4.424   6.571   0.689 -0.1944 -1.0619  0.3348
12422TIP3   OH258680   2.421   2.373   3.943  0.1314  0.4874  0.1986
12422TIP3    H158681   2.346   2.411   3.990 -0.0901 -1.3318  1.4773
12422TIP3    H258682   2.496   2.389   4.001  0.1452 -0.3838  0.4375
12423TIP3   OH258683   1.115   5.119   4.392  0.5849 -0.1983 -0.6338
12423TIP3    H158684   1.127   5.024   4.385 -3.2880 -0.8405 -1.3032
12423TIP3    H258685   1.055   5.129   4.467  1.3394  1.8059 -0.2432
12424TIP3   OH258686   5.085   6.287   1.489  0.6455 -0.3238  0.2188
12424TIP3    H158687   5.036   6.266   1.568 -0.0835 -1.1104 -0.4201
12424TIP3    H258688   5.053   6.373   1.462  0.1474 -0.5112  0.2091
12425TIP3   OH258689   0.950   6.251   0.819 -0.0997  0.0329 -0.1488
12425TIP3    H158690   0.893   6.178   0.795  2.2483 -3.0018  2.7250
12425TIP3    H258691   0.901   6.298   0.887  0.0438 -1.4821  1.0402
12426TIP3   OH258692   1.189   0.118  17.181 -0.1970  0.3039 -0.1946
12426TIP3    H158693   1.228   0.068  17.253 -0.5884 -0.6186 -0.6019
12426TIP3    H258694   1.145   0.052  17.128 -0.6983  1.0916 -0.7768
12427TIP3   OH258695   4.897   0.043  12.838 -0.2733  0.3805 -0.0865
12427TIP3    H158696   4.893   0.119  12.896  2.4148  0.8817 -0.4428
12427TIP3    H258697   4.930  -0.028  12.892  1.6134  0.6859 -0.7570
12428TIP3   OH258698   3.858   5.407   3.188 -0.5453  0.3090 -0.0153
12428TIP3    H158699   3.930   5.343   3.197  0.5749  1.5989  0.6137
12428TIP3    H258700   3.784   5.364   3.230  0.6761  0.1139  2.1224
12429TIP3   OH258701   2.169   6.185  11.994  0.4208  0.1425 -0.2687
12429TIP3    H158702   2.239   6.177  12.058  0.4935  0.6116 -0.2885
12429TIP3    H258703   2.193   6.261  11.940  1.0661 -1.0403 -1.7325
12430TIP3   OH258704   4.902   5.310   1.204  0.7618  0.2106 -0.1240
12430TIP3    H158705   4.919   5.310   1.110 -1.2809 -0.1065 -0.5363
12430TIP3    H258706   4.969   5.252   1.241  1.2601 -0.0802 -1.4516
12431TIP3   OH258707   2.341   3.336   5.111 -0.4717  0.4233  0.1346
12431TIP3    H158708   2.274   3.290   5.060  0.4807  0.2212 -0.9944
12431TIP3    H258709   2.294   3.372   5.186 -1.2372 -2.5208  1.1725
12432TIP3   OH258710   3.940   5.056  11.950  0.4385  0.6362 -0.0195
12432TIP3    H158711   3.919   5.149  11.959  0.0720  0.5041  0.5783
12432TIP3    H258712   3.882   5.024  11.881 -2.8326 -0.1353  2.8085
12433TIP3   OH258713   5.161   1.496   3.034 -0.1937  0.2108  0.4713
12433TIP3    H158714   5.088   1.481   2.974 -1.5574  1.1786  1.8266
12433TIP3    H258715   5.163   1.418   3.089  1.7375 -1.1809 -1.3768
12434TIP3   OH258716   1.110   3.836  12.403 -0.0533 -0.9916 -0.1380
12434TIP3    H158717   1.109   3.798  12.315  0.6695 -0.2787 -0.4694
12434TIP3    H258718   1.175   3.906  12.398 -1.5122  0.4487  0.3913
12435TIP3   OH258719   5.070   0.256   2.660  0.1268 -0.1562 -0.2058
12435TIP3    H158720   5.038   0.287   2.744  0.9474 -1.6270  0.6989
12435TIP3    H258721   5.139   0.318   2.636 -0.1105  0.2727  0.2067
12436TIP3   OH258722   3.073   5.806  12.827  0.3584  0.0432  0.3377
12436TIP3    H158723   3.084   5.898  12.801 -1.2632 -0.0214 -0.7611
12436TIP3    H258724   2.983   5.785  12.800  0.3135 -1.5452  1.5968
12437TIP3   OH258725   0.920   4.383   0.928 -0.2128  0.3161  0.0933
12437TIP3    H158726   0.960   4.337   0.854 -0.0331  0.8538 -0.1433
12437TIP3    H258727   0.827   4.390   0.904 -0.1042  0.7457 -0.2195
12438TIP3   OH258728   3.400   5.479   3.318 -0.0030 -0.3172 -0.0266
12438TIP3    H158729   3.388   5.410   3.384  2.9858  1.5219  2.7464
12438TIP3    H258730   3.471   5.447   3.263  0.3437 -0.1391  0.3080
12439TIP3   OH258731   2.317   1.351  13.902 -0.0536  0.4806 -0.0161
12439TIP3    H158732   2.363   1.334  13.983  0.1410  1.5798  0.1268
12439TIP3    H258733   2.278   1.438  13.914 -2.7425 -0.6547  0.1325
12440TIP3   OH258734   5.396   0.735  14.908 -0.0858  0.2826  0.3483
12440TIP3    H158735   5.308   0.766  14.889 -0.0333 -0.8663 -2.1140
12440TIP3    H258736   5.453   0.790  14.855  0.3439 -1.1678 -0.7630
12441TIP3   OH258737   2.731   3.663  16.815 -0.1938  0.2617  0.5690
12441TIP3    H158738   2.811   3.612  16.800 -0.6711  0.2077 -2.5502
12441TIP3    H258739   2.752   3.750  16.783 -1.4278  0.1652 -0.5922
12442TIP3   OH258740   6.118   1.443   3.842 -0.8449 -0.6464  0.0294
12442TIP3    H158741   6.171   1.406   3.771  2.4832  3.1335  0.1775
12442TIP3    H258742   6.143   1.394   3.920 -1.9938 -2.6075 -0.7649
12443TIP3   OH258743   3.991   0.855  14.664  0.4921  0.1624 -0.0386
12443TIP3    H158744   4.026   0.824  14.747  4.1482 -1.7502 -2.0515
12443TIP3    H258745   4.057   0.918  14.632 -0.4750  0.3737 -1.7652
12444TIP3   OH258746   1.600   5.712   0.437 -0.5509  0.2923 -0.0669
12444TIP3    H158747   1.546   5.646   0.480 -1.1010  0.0504 -1.0862
12444TIP3    H258748   1.603   5.785   0.499 -0.6914 -0.3354  0.6895
12445TIP3   OH258749   2.500   3.191   1.182  0.2310 -0.3514  0.2406
12445TIP3    H158750   2.504   3.098   1.205 -0.8031 -1.2670 -2.8877
12445TIP3    H258751   2.591   3.219   1.178  0.5650 -1.2802  0.9606
12446TIP3   OH258752   6.049   4.005   6.237  0.3256  0.0934  0.0347
12446TIP3    H158753   6.027   4.015   6.329 -1.0626  0.2497 -0.2856
12446TIP3    H258754   6.034   3.912   6.219 -1.5644  0.4509 -0.5082
12447TIP3   OH258755   4.360   2.778   1.634 -0.3268  0.1702  0.1153
12447TIP3    H158756   4.420   2.835   1.681  0.8815 -0.2824 -0.8209
12447TIP3    H258757   4.384   2.689   1.663  1.1754 -0.2165 -2.0422
12448TIP3   OH258758   4.637   4.344   5.821 -0.2849 -0.2212 -0.1245
12448TIP3    H158759   4.685   4.270   5.859  1.0262 -0.1644 -1.5717
12448TIP3    H258760   4.634   4.409   5.892  1.0147 -0.5967  0.3123
12449TIP3   OH258761   3.243   1.270  16.502 -0.0875 -0.0269 -0.3804
12449TIP3    H158762   3.235   1.270  16.407  2.1202  1.1256 -0.6258
12449TIP3    H258763   3.281   1.185  16.523  1.5607  0.5829 -0.7931
12450TIP3   OH258764   3.432   0.113   3.457 -0.3220  0.6171 -0.0448
12450TIP3    H158765   3.490   0.126   3.382  0.5395  0.3288  0.5537
12450TIP3    H258766   3.486   0.066   3.521 -1.1239  0.6213  0.6504
12451TIP3   OH258767   1.050   6.615   4.370  0.0887  0.2249  0.2809
12451TIP3    H158768   1.000   6.664   4.437  0.2096  2.7360 -1.3286
12451TIP3    H258769   1.019   6.651   4.287  2.8741  0.2062 -0.8718
12452TIP3   OH258770   2.975   4.570  12.569  0.1518 -0.9982  0.1443
12452TIP3    H158771   3.004   4.653  12.532  1.6547 -1.2088  0.7728
12452TIP3    H258772   2.938   4.522  12.495 -0.1984 -0.0089 -0.3383
12453TIP3   OH258773   6.371   2.503  13.577  0.5676  0.0134  0.2446
12453TIP3    H158774   6.382   2.432  13.514  0.6521 -1.6131  1.9992
12453TIP3    H258775   6.277   2.519  13.580  0.6591  1.0708 -1.2384
12454TIP3   OH258776   0.133   4.295   4.504 -0.1123  0.0511  0.1640
12454TIP3    H158777   0.221   4.323   4.479 -0.8924 -0.1968 -3.4888
12454TIP3    H258778   0.140   4.199   4.508 -0.2833 -0.0084 -0.6892
12455TIP3   OH258779   4.681   3.980  16.403 -0.0692 -0.2308 -0.3989
12455TIP3    H158780   4.775   3.963  16.412  0.0124  0.1511 -0.5066
12455TIP3    H258781   4.676   4.072  16.376 -0.4469 -0.3912 -0.9034
12456TIP3   OH258782   4.815   1.559  12.522 -0.1782 -0.1449  0.5865
12456TIP3    H158783   4.797   1.467  12.543 -0.8765 -0.4157 -1.0961
12456TIP3    H258784   4.747   1.608  12.567  0.1289 -0.4426  1.3986
12457TIP3   OH258785   6.726   4.814  14.268  0.1072 -0.1039  0.1826
12457TIP3    H158786   6.783   4.783  14.338  2.3863 -0.8879 -1.8917
12457TIP3    H258787   6.770   4.892  14.233 -0.3588 -0.3795 -1.0941
12458TIP3   OH258788   1.429   5.467  17.017 -0.7710  0.1091 -0.0598
12458TIP3    H158789   1.483   5.413  17.074  0.0021  1.3044  0.3846
12458TIP3    H258790   1.438   5.428  16.930  1.1437  0.5038 -0.0707
12459TIP3   OH258791   0.129   6.252  16.787  0.0784 -0.2711 -0.4137
12459TIP3    H158792   0.092   6.312  16.852  0.7741 -1.1510  0.8442
12459TIP3    H258793   0.152   6.309  16.713 -0.4298  0.8211  0.2330
12460TIP3   OH258794   2.923   0.300  17.188 -0.3004 -0.0354  0.4768
12460TIP3    H158795   3.000   0.353  17.210  0.0319 -1.2186  2.3972
12460TIP3    H258796   2.958   0.225  17.140 -0.5080  0.3779 -0.3339
12461TIP3   OH258797   6.214   4.459   1.077  0.0800 -0.5647 -0.3942
12461TIP3    H158798   6.236   4.377   1.121  0.9603  0.1620  0.5390
12461TIP3    H258799   6.187   4.518   1.147  1.3023  0.5448 -0.8268
12462TIP3   OH258800   0.202   5.825   5.410 -0.0219  0.3939 -0.3591
12462TIP3    H158801   0.236   5.915   5.411 -1.1303  0.8788 -1.9442
12462TIP3    H258802   0.111   5.835   5.439 -0.2314 -0.1655 -0.8145
12463TIP3   OH258803   2.655   3.192   0.073  0.1000 -0.5503 -0.4153
12463TIP3    H158804   2.611   3.142   0.004  1.2492 -3.3156  0.7458
12463TIP3    H258805   2.613   3.164   0.154  1.2405 -0.1381  0.3407
12464TIP3   OH258806   2.833   1.104   1.090 -0.2403  0.2178  0.1239
12464TIP3    H158807   2.875   1.027   1.127  0.7114  1.2045  1.1766
12464TIP3    H258808   2.895   1.175   1.106 -1.3971  1.3337 -0.1675
12465TIP3   OH258809   5.412   5.693  15.046  0.3147  0.3286 -0.4535
12465TIP3    H158810   5.389   5.742  14.967 -1.2360  2.1861  1.0520
12465TIP3    H258811   5.495   5.730  15.074  0.0167  0.8839 -0.2901
12466TIP3   OH258812   0.625   0.038  14.857 -0.2896  0.0290  0.5172
12466TIP3    H158813   0.691   0.099  14.825 -1.2545  0.6877 -0.2554
12466TIP3    H258814   0.598   0.073  14.942 -2.5162  2.0875 -0.9021
12467TIP3   OH258815   0.487   0.668   2.071  0.3880 -0.0537  0.2751
12467TIP3    H158816   0.516   0.751   2.033 -0.3559  1.1906  2.2828
12467TIP3    H258817   0.560   0.641   2.128  0.3592 -0.4764  0.1214
12468TIP3   OH258818   2.503   1.561   0.267 -0.2215  0.2385 -0.4756
12468TIP3    H158819   2.532   1.525   0.182  0.5832 -0.1048 -0.0739
12468TIP3    H258820   2.411   1.583   0.254 -0.4799 -1.0670 -1.0493
12469TIP3   OH258821   2.380   0.647  14.096  0.1691  0.1458  0.4064
12469TIP3    H158822   2.450   0.658  14.032  0.2313  1.1361  0.6405
12469TIP3    H258823   2.351   0.556  14.085  2.3679 -0.7119  1.1917
12470TIP3   OH258824   3.867   3.370   3.350  0.1195  0.1309  0.0196
12470TIP3    H158825   3.813   3.296   3.324 -0.1139  0.4609 -0.4257
12470TIP3    H258826   3.869   3.365   3.446 -1.9197  0.9794  0.1426
12471TIP3   OH258827   6.511   5.340  11.556 -0.1759  0.1756  0.9323
12471TIP3    H158828   6.436   5.332  11.616 -0.8823  0.7776  0.1653
12471TIP3    H258829   6.471   5.364  11.472  0.9366  1.1690  0.6683
12472TIP3   OH258830   1.998   2.344  14.706 -0.2891 -0.1081  0.1168
12472TIP3    H158831   2.031   2.333  14.617  1.6108  3.1890  0.2698
12472TIP3    H258832   1.919   2.396  14.696 -0.8043 -0.8228  0.3364
12473TIP3   OH258833   3.553   3.637   0.864 -0.0194  0.0660 -0.3112
12473TIP3    H158834   3.548   3.629   0.960 -0.1653 -0.2145 -0.3431
12473TIP3    H258835   3.591   3.724   0.850 -1.9009  0.9828 -0.0254
12474TIP3   OH258836   3.439   5.710   0.146  0.2022  0.2011 -0.1593
12474TIP3    H158837   3.502   5.647   0.181  0.5011  0.9966  0.7548
12474TIP3    H258838   3.355   5.663   0.147  0.3525 -0.0534  0.8821
12475TIP3   OH258839   2.200   0.162   3.276  0.2359 -0.5881 -0.1925
12475TIP3    H158840   2.111   0.166   3.241  0.0020 -0.2655  0.4227
12475TIP3    H258841   2.194   0.202   3.362  1.2948  1.0072 -0.7961
12476TIP3   OH258842   4.608   1.208   2.034  0.5739  0.2276 -0.9971
12476TIP3    H158843   4.694   1.240   2.006  0.7074  1.1401  0.3326
12476TIP3    H258844   4.623   1.175   2.123 -0.8955  2.9047  0.3879
12477TIP3   OH258845   6.384   1.964  14.040  0.3907 -0.2909  0.3903
12477TIP3    H158846   6.479   1.979  14.037  0.6606 -1.6059 -3.5440
12477TIP3    H258847   6.350   2.012  13.964 -1.5915 -2.4942 -0.2158
12478TIP3   OH258848   2.250   2.067  14.567  0.0594  0.3774 -0.0839
12478TIP3    H158849   2.206   2.083  14.650 -0.7927  2.1136 -0.7933
12478TIP3    H258850   2.202   2.122  14.504  1.3999  0.0245 -1.4867
12479TIP3   OH258851   0.175   2.412  12.187 -0.3943 -0.0620 -0.2191
12479TIP3    H158852   0.133   2.411  12.102  0.5049  1.8833 -0.7333
12479TIP3    H258853   0.119   2.467  12.242  0.7411  1.4784 -0.5481
12480TIP3   OH258854   1.435   4.050  16.625  0.0467  0.3876 -0.4809
12480TIP3    H158855   1.419   3.962  16.590  1.3428  0.3942 -1.1488
12480TIP3    H258856   1.348   4.089  16.632 -0.5713 -1.0006 -0.0078
12481TIP3   OH258857   2.065   5.561  16.098 -0.7114  0.1777 -0.1519
12481TIP3    H158858   1.983   5.579  16.052  0.7629  0.3976 -2.8550
12481TIP3    H258859   2.099   5.648  16.120 -0.4692  0.1509 -0.4166
12482TIP3   OH258860   4.344   0.655   5.748  0.3736 -0.2597 -0.9500
12482TIP3    H158861   4.335   0.749   5.762 -2.6264 -0.6101  0.3448
12482TIP3    H258862   4.416   0.629   5.805  0.3338  1.0663 -0.2576
12483TIP3   OH258863   4.543   2.167   0.090  0.0676 -0.0629 -0.4082
12483TIP3    H158864   4.536   2.134   0.180 -2.8866 -1.5513 -1.0580
12483TIP3    H258865   4.528   2.261   0.099  1.9121  0.1661  0.8103
12484TIP3   OH258866   6.169   1.406   4.112 -0.4985 -0.2899 -0.2640
12484TIP3    H158867   6.183   1.500   4.123  0.4509 -0.2116 -1.8688
12484TIP3    H258868   6.213   1.366   4.187 -0.3338  0.5101  0.0772
12485TIP3   OH258869   5.509   2.606   5.719  0.1835  0.2240 -0.0948
12485TIP3    H158870   5.555   2.543   5.664  0.4216  0.6744 -0.4182
12485TIP3    H258871   5.510   2.566   5.806 -1.0020 -0.9067 -0.5759
12486TIP3   OH258872   6.626   0.494   2.436  0.0043  0.3065 -0.0221
12486TIP3    H158873   6.613   0.451   2.351  2.2359 -0.2864 -0.1224
12486TIP3    H258874   6.620   0.423   2.500  0.7698  0.3322  0.0828
12487TIP3   OH258875   2.234   1.286  11.692 -0.1719  0.2967 -0.8579
12487TIP3    H158876   2.286   1.210  11.719  0.5034  0.6741 -1.0732
12487TIP3    H258877   2.198   1.320  11.774  0.9839  0.7920 -0.5384
12488TIP3   OH258878   6.525   1.864  14.449 -0.7264  0.1313  0.0651
12488TIP3    H158879   6.578   1.784  14.447 -0.5863  0.2072  0.6204
12488TIP3    H258880   6.435   1.832  14.445 -0.8532 -0.2936  3.4988
12489TIP3   OH258881   2.870   1.422  13.319  0.5494 -0.4332 -0.1095
12489TIP3    H158882   2.869   1.488  13.250 -0.5804 -0.2584  0.0519
12489TIP3    H258883   2.814   1.458  13.388 -0.2227 -1.6172 -0.0931
12490TIP3   OH258884   0.063   0.796   1.100 -0.1561  0.1537 -0.2851
12490TIP3    H158885   0.115   0.828   1.175 -0.0654 -1.4416  0.3622
12490TIP3    H258886   0.057   0.702   1.114 -1.5795  0.0593 -1.4163
12491TIP3   OH258887   0.849   1.413   1.513 -0.5718 -0.7311 -0.2234
12491TIP3    H158888   0.886   1.488   1.558 -0.9494 -0.7705  0.1565
12491TIP3    H258889   0.757   1.411   1.540 -0.0981 -2.5656  1.4488
12492TIP3   OH258890   6.470   6.012   1.227 -0.1461 -0.4351  0.5054
12492TIP3    H158891   6.548   5.989   1.278 -0.7892 -0.8063  1.3405
12492TIP3    H258892   6.461   5.940   1.164 -0.5531 -1.0726  1.2731
12493TIP3   OH258893   4.837   2.190  13.478 -0.5501 -0.4027 -0.0853
12493TIP3    H158894   4.880   2.276  13.471  0.0960 -0.6340  0.9559
12493TIP3    H258895   4.766   2.204  13.540  0.2587 -0.8818  0.9695
12494TIP3   OH258896   2.209   6.575   0.998  0.6006  0.3672  0.2913
12494TIP3    H158897   2.277   6.641   1.013  2.5256 -1.2753 -0.7225
12494TIP3    H258898   2.248   6.493   1.028 -1.0087 -0.6028 -0.1528
12495TIP3   OH258899   4.530   5.998   2.105 -0.0830  0.1534 -0.1473
12495TIP3    H158900   4.532   6.031   2.015 -0.5315 -2.6978 -1.3109
12495TIP3    H258901   4.615   5.956   2.117 -0.2165  0.0717  0.5551
12496TIP3   OH258902   1.941   5.615   3.231  0.0878  0.7114  0.0507
12496TIP3    H158903   2.001   5.658   3.292 -1.1248 -0.2380  2.0035
12496TIP3    H258904   1.899   5.688   3.184  1.4654  1.4417 -0.0961
12497TIP3   OH258905   4.635   2.527   6.669  0.2681  0.4195 -0.3720
12497TIP3    H158906   4.653   2.498   6.759  0.3169 -0.6152 -0.7084
12497TIP3    H258907   4.540   2.521   6.661  0.4095 -1.2519 -0.9661
12498TIP3   OH258908   1.261   2.656  14.459  0.3194 -0.3840  0.7059
12498TIP3    H158909   1.299   2.588  14.404  2.7408 -0.0026  1.7893
12498TIP3    H258910   1.253   2.732  14.402 -1.7446 -1.3008 -0.3259
12499TIP3   OH258911   3.069   2.444  12.187 -0.1168  0.3172 -0.1770
12499TIP3    H158912   3.014   2.519  12.210  0.7406  0.5832  1.1102
12499TIP3    H258913   3.135   2.441  12.256  0.7876 -0.6974 -1.0546
12500TIP3   OH258914   0.816   0.831   5.405 -0.2520 -0.0495 -0.1795
12500TIP3    H158915   0.789   0.758   5.350  1.3256  0.5493 -1.8472
12500TIP3    H258916   0.878   0.792   5.467 -1.2995 -0.5468  0.5817
12501TIP3   OH258917   1.431   6.383  14.827  0.3478 -0.1098 -0.6061
12501TIP3    H158918   1.379   6.310  14.859  0.4414 -0.0955 -0.4139
12501TIP3    H258919   1.426   6.448  14.897 -0.1063  0.2498 -0.9754
12502TIP3   OH258920   4.874   1.960  10.808  0.0444 -0.4239  0.5753
12502TIP3    H158921   4.781   1.963  10.784  0.2134  1.7928 -0.0846
12502TIP3    H258922   4.880   2.015  10.886  0.7547 -0.8463  0.8237
12503TIP3   OH258923   0.886   1.988   4.681  0.2889  0.7328  0.3010
12503TIP3    H158924   0.892   1.919   4.615  0.4528  0.0827  0.9869
12503TIP3    H258925   0.974   1.995   4.717 -0.3226 -0.7521  2.2650
12504TIP3   OH258926   3.425   0.321  11.043  0.7586  0.1434 -0.2233
12504TIP3    H158927   3.467   0.240  11.013 -0.9478 -0.5982 -0.7229
12504TIP3    H258928   3.332   0.308  11.024  0.2509  1.6181  1.0746
12505TIP3   OH258929   0.126   2.073   1.795 -0.2489 -0.4778  0.7099
12505TIP3    H158930   0.082   2.146   1.838 -0.9810 -0.0178 -0.7531
12505TIP3    H258931   0.067   2.048   1.724 -0.3745 -3.0146  1.6263
12506TIP3   OH258932   0.375   4.937   5.537 -0.0248  0.0373 -0.0625
12506TIP3    H158933   0.467   4.916   5.527  0.0088  0.4775 -0.8067
12506TIP3    H258934   0.340   4.869   5.595  0.2532 -1.5500 -1.6611
12507TIP3   OH258935   0.132   4.566   5.051  0.2295  0.1739  0.0509
12507TIP3    H158936   0.064   4.552   5.117  0.0822  1.8979  0.3106
12507TIP3    H258937   0.091   4.623   4.986  1.2442  0.7581 -0.0965
12508TIP3   OH258938   4.426   5.004  13.134  0.1298 -0.2451  0.6073
12508TIP3    H158939   4.357   4.951  13.094  0.7898 -0.9356  0.3633
12508TIP3    H258940   4.503   4.985  13.081  0.6583  0.0141  1.2828
12509TIP3   OH258941   5.649   1.420   4.781 -0.5403 -0.0146 -0.5045
12509TIP3    H158942   5.712   1.374   4.727  0.8767  0.8242  0.3646
12509TIP3    H258943   5.647   1.370   4.863 -0.8269  0.0942 -0.4437
12510TIP3   OH258944   2.286   6.431   3.641 -0.7894 -0.1595  0.3193
12510TIP3    H158945   2.301   6.416   3.734 -0.8034  1.2621  0.5857
12510TIP3    H258946   2.373   6.429   3.601 -0.8096 -1.0461  0.3029
12511TIP3   OH258947   3.685   0.977  12.614  0.0828 -0.3032  0.0217
12511TIP3    H158948   3.688   0.907  12.549 -2.5163  1.1759 -1.8954
12511TIP3    H258949   3.624   0.944  12.680 -0.7208 -0.0900 -0.6001
12512TIP3   OH258950   3.880   3.541  12.326  0.1801 -0.2104  0.5925
12512TIP3    H158951   3.884   3.557  12.421 -1.1298  2.7608  0.2646
12512TIP3    H258952   3.949   3.596  12.290 -0.8368  0.5291 -0.2936
12513TIP3   OH258953   6.320   5.651   4.612 -0.2734 -0.0706 -0.2205
12513TIP3    H158954   6.267   5.730   4.613  0.1341  0.1998  0.5101
12513TIP3    H258955   6.272   5.591   4.554 -0.7697  0.5724 -0.4896
12514TIP3   OH258956   5.359   3.484  15.903 -0.1051 -0.1705  0.0228
12514TIP3    H158957   5.321   3.461  15.988 -0.4969 -1.5400 -0.4993
12514TIP3    H258958   5.353   3.404  15.852 -0.6889  0.8667 -1.6076
12515TIP3   OH258959   0.756   0.389  11.048  0.2069 -0.2652 -0.3906
12515TIP3    H158960   0.798   0.303  11.041  0.8842  0.0399 -0.1892
12515TIP3    H258961   0.823   0.444  11.088 -0.5884  0.1002  0.4777
12516TIP3   OH258962   5.922   2.074   2.298 -0.9683 -0.1048  0.0052
12516TIP3    H158963   5.846   2.120   2.261 -0.4737  0.1534 -0.7022
12516TIP3    H258964   5.897   2.057   2.389 -2.3800 -1.1153 -0.5312
12517TIP3   OH258965   2.249   4.595   5.347 -0.2184 -0.1282  0.6480
12517TIP3    H158966   2.284   4.651   5.277  0.6765 -1.7665 -0.2765
12517TIP3    H258967   2.304   4.517   5.345 -1.6694 -1.2365  1.6171
12518TIP3   OH258968   0.065   4.756   1.665 -0.0336  0.0558  0.1906
12518TIP3    H158969   0.132   4.689   1.681 -1.0719 -1.0475  0.0261
12518TIP3    H258970  -0.000   4.712   1.611 -1.2043  0.9219  0.8568
12519TIP3   OH258971   5.109   2.483  17.286 -0.1628  0.2310  0.0689
12519TIP3    H158972   5.202   2.470  17.270 -0.4341 -1.4265 -0.4067
12519TIP3    H258973   5.101   2.574  17.314  1.6707  0.1998  0.7943
12520TIP3   OH258974   3.202   1.070  11.857 -1.1241  0.1705 -0.0272
12520TIP3    H158975   3.281   1.051  11.806  0.0200  0.0214  1.6823
12520TIP3    H258976   3.188   0.992  11.910 -2.4122  0.2164 -0.2888
12521TIP3   OH258977   2.103   2.396   4.004 -0.0877 -0.3252  0.8707
12521TIP3    H158978   2.028   2.430   3.955 -0.5908  0.4861  2.1530
12521TIP3    H258979   2.126   2.315   3.959  0.9213  1.4484 -2.0597
12522TIP3   OH258980   3.389   4.089  13.352 -0.3334  0.3329 -0.0518
12522TIP3    H158981   3.429   4.098  13.439 -0.2922  0.3052 -0.0672
12522TIP3    H258982   3.463   4.066  13.295 -0.3172  0.6043 -0.1409
12523TIP3   OH258983   1.942   5.858   6.136 -0.1992 -0.7201 -0.0724
12523TIP3    H158984   2.010   5.885   6.199  0.0103 -1.0780 -0.1389
12523TIP3    H258985   1.891   5.937   6.121 -0.5068 -0.7187  0.8655
12524TIP3   OH258986   0.902   1.278   6.059 -0.0648  0.0763 -0.3548
12524TIP3    H158987   0.935   1.265   5.970  1.2457  0.3454  0.0727
12524TIP3    H258988   0.959   1.346   6.096  1.0791 -1.8234  1.5610
12525TIP3   OH258989   4.662   6.741   0.177 -0.3581 -0.2886 -0.3610
12525TIP3    H158990   4.722   6.801   0.221 -0.8088  0.2440 -0.4682
12525TIP3    H258991   4.651   6.778   0.089 -1.3819 -0.0008 -0.1256
12526TIP3   OH258992   5.137   4.773   5.485  0.0265 -0.2238 -0.5050
12526TIP3    H158993   5.101   4.856   5.516  1.5165 -0.0216  0.7786
12526TIP3    H258994   5.076   4.707   5.519 -0.2270  0.2360 -0.0611
12527TIP3   OH258995   6.540   6.548   2.803  0.2458 -0.4074 -0.0733
12527TIP3    H158996   6.626   6.523   2.769  0.7803  0.3021  0.7173
12527TIP3    H258997   6.534   6.503   2.887  0.5976  0.8921  0.6790
12528TIP3   OH258998   3.684   4.391   5.679  0.4473 -0.2716  0.1137
12528TIP3    H158999   3.741   4.393   5.756 -0.8426 -1.4919  1.1475
12528TIP3    H259000   3.654   4.482   5.670  0.1649 -0.2066  1.4270
12529TIP3   OH259001   4.216   5.315   0.827 -0.4142  0.3193 -0.0938
12529TIP3    H159002   4.252   5.393   0.869 -0.3977  0.6888 -0.7795
12529TIP3    H259003   4.237   5.325   0.735  0.6011 -1.0608 -0.0481
12530TIP3   OH259004   4.375   4.317   1.158  0.2896 -0.0111 -1.1767
12530TIP3    H159005   4.366   4.223   1.174  0.0698 -0.1081 -1.8703
12530TIP3    H259006   4.294   4.343   1.116  0.2261  0.5552 -0.7174
12531TIP3   OH259007   3.945   0.473  10.720  0.0276  0.6436 -0.3598
12531TIP3    H159008   3.899   0.556  10.706 -0.7317  0.1769 -0.6750
12531TIP3    H259009   3.941   0.460  10.815 -2.9580 -0.7239 -0.5443
12532TIP3   OH259010   0.870   4.903  12.831  0.3747 -0.1630 -0.1267
12532TIP3    H159011   0.964   4.889  12.822  0.2521 -1.2292  0.0897
12532TIP3    H259012   0.831   4.844  12.767 -0.1442  0.4879 -0.4224
12533TIP3   OH259013   5.569   1.301  16.035  0.0356  0.1494  0.0695
12533TIP3    H159014   5.646   1.314  16.090  0.4510 -1.2518 -0.1453
12533TIP3    H259015   5.554   1.206  16.037 -0.7844  0.2386 -1.1037
12534TIP3   OH259016   5.924   2.065  16.356  0.3454 -0.6752 -0.7103
12534TIP3    H159017   5.854   2.127  16.336 -0.4897 -1.6572 -0.9212
12534TIP3    H259018   5.910   2.042  16.448  1.4068  0.3651 -0.2649
12535TIP3   OH259019   4.531   1.356  15.004  0.4582 -0.6683  0.6285
12535TIP3    H159020   4.593   1.299  15.050  1.6668  1.0857  1.2693
12535TIP3    H259021   4.478   1.395  15.072 -0.3495 -0.9864  0.1946
12536TIP3   OH259022   3.935   1.657  16.888  0.7441 -0.0244  0.1720
12536TIP3    H159023   3.840   1.668  16.883  0.3005 -1.9131  2.6784
12536TIP3    H259024   3.951   1.569  16.853  1.8759  0.9272 -1.9302
12537TIP3   OH259025   3.987   5.715  15.350 -0.3330  0.0389  0.3950
12537TIP3    H159026   4.068   5.670  15.326  0.9910  2.4115  0.1183
12537TIP3    H259027   3.934   5.713  15.270 -0.8265 -1.9597  0.7185
12538TIP3   OH259028   1.500   6.118  16.857 -0.0597  0.1842  0.4500
12538TIP3    H159029   1.411   6.090  16.878  0.1068 -0.9045 -0.2171
12538TIP3    H259030   1.495   6.214  16.854 -1.4285  0.1230 -0.4891
12539TIP3   OH259031   1.647   2.586  11.134  0.3398 -0.8733  0.6191
12539TIP3    H159032   1.605   2.666  11.103  1.7449  0.0777  1.0642
12539TIP3    H259033   1.594   2.557  11.208  0.0849 -0.0997  0.7396
12540TIP3   OH259034   5.012   2.069   3.458  0.0761  0.4127 -0.4179
12540TIP3    H159035   5.041   2.002   3.519  0.1835 -0.9467 -1.8890
12540TIP3    H259036   5.081   2.135   3.459  0.3586  0.1141  0.4520
12541TIP3   OH259037   5.085   0.988  15.790 -0.2637  0.5869 -0.4194
12541TIP3    H159038   5.070   0.902  15.752 -0.6145  1.0180 -1.2890
12541TIP3    H259039   5.075   0.975  15.884 -0.4898 -0.2822 -0.5592
12542TIP3   OH259040   1.990   0.330  14.887 -0.2002  0.4281  0.0070
12542TIP3    H159041   2.051   0.378  14.943 -0.8774 -1.3616  2.4258
12542TIP3    H259042   1.937   0.398  14.845  0.2935  1.8675  1.6091
12543TIP3   OH259043   4.597   3.187   5.770 -0.1402  0.1355 -0.2788
12543TIP3    H159044   4.590   3.275   5.733  0.6622  0.2162 -0.2605
12543TIP3    H259045   4.686   3.184   5.808  0.8254 -1.5163 -2.4677
12544TIP3   OH259046   0.795   1.912   3.725 -0.1330 -0.2247  0.0603
12544TIP3    H159047   0.818   1.997   3.763 -0.7942  0.4892 -1.0619
12544TIP3    H259048   0.726   1.878   3.782 -3.9030  2.5627 -2.3490
12545TIP3   OH259049   5.958   6.627  13.691  0.5550  0.7684  0.1911
12545TIP3    H159050   5.887   6.676  13.733  0.9471  1.2802  0.2698
12545TIP3    H259051   6.013   6.695  13.652  1.2189  0.3923  0.4755
12546TIP3   OH259052   5.310   2.028  13.977  0.1840 -0.0666  0.5268
12546TIP3    H159053   5.361   2.063  14.050  2.5860 -1.3689 -0.4076
12546TIP3    H259054   5.232   1.990  14.019  0.9393  0.2107  2.2682
12547TIP3   OH259055   4.236   6.253   6.813  0.4239 -0.3309  0.1563
12547TIP3    H159056   4.185   6.244   6.733  0.6984  1.8814 -0.3480
12547TIP3    H259057   4.282   6.170   6.822 -1.3258 -1.4462 -0.7328
12548TIP3   OH259058   4.874   4.780   0.064 -0.3405  0.1905  0.5489
12548TIP3    H159059   4.802   4.770   0.126 -0.0431  0.1740  0.8948
12548TIP3    H259060   4.857   4.715  -0.004 -1.3135  1.0125 -0.0157
12549TIP3   OH259061   0.749   1.431  12.646  0.0954 -0.2415 -0.1405
12549TIP3    H159062   0.740   1.343  12.684 -0.4988 -0.4213 -0.6852
12549TIP3    H259063   0.750   1.490  12.722  2.8609 -0.8452  0.4257
12550TIP3   OH259064   5.516   6.471  15.649  0.6149 -0.3386 -0.4591
12550TIP3    H159065   5.478   6.386  15.626 -0.8782  0.4977 -1.1892
12550TIP3    H259066   5.473   6.495  15.731  0.6976 -0.0783 -0.4909
12551TIP3   OH259067   6.328   6.503  13.025 -0.2342 -0.4607 -0.2642
12551TIP3    H159068   6.238   6.496  13.057  0.0881 -0.9869  0.5676
12551TIP3    H259069   6.364   6.580  13.069 -0.3318 -0.1435 -0.7363
12552TIP3   OH259070   6.577   1.184  17.387 -0.0070 -0.3697 -1.0006
12552TIP3    H159071   6.534   1.130  17.321 -0.9618 -0.0659 -0.6532
12552TIP3    H259072   6.526   1.266  17.388 -0.3896 -0.5920  0.5083
12553TIP3   OH259073   3.196   2.904  10.626  0.4679  0.1761  0.1660
12553TIP3    H159074   3.171   2.919  10.717 -2.0065  2.1720 -0.7285
12553TIP3    H259075   3.268   2.965  10.611  0.9450 -0.2229  0.7766
12554TIP3   OH259076   6.447   4.334  12.815  0.1636 -0.7754 -0.0177
12554TIP3    H159077   6.490   4.341  12.730 -0.7823 -1.2842 -0.5540
12554TIP3    H259078   6.465   4.417  12.858  1.7856 -1.0189 -0.1635
12555TIP3   OH259079   3.174   2.213  11.667 -0.1722 -0.1131  0.6176
12555TIP3    H159080   3.250   2.260  11.702 -0.0729  0.5848 -0.4736
12555TIP3    H259081   3.207   2.170  11.588 -0.6974 -0.5706  0.6440
12556TIP3   OH259082   2.751   4.650  15.712 -0.6876  0.5487 -0.1786
12556TIP3    H159083   2.812   4.722  15.734 -0.7493  0.4092  0.4765
12556TIP3    H259084   2.665   4.691  15.716 -0.6131  0.9254 -1.8310
12557TIP3   OH259085   4.843   5.614   2.616 -0.0752  0.1138 -0.2879
12557TIP3    H159086   4.803   5.543   2.565 -1.1864  0.9614 -0.6334
12557TIP3    H259087   4.872   5.678   2.552  3.1665 -1.0400 -0.1490
12558TIP3   OH259088   0.889   2.628   4.022 -0.3928  0.0534 -0.4520
12558TIP3    H159089   0.935   2.544   4.022 -1.2204 -0.4182  0.4002
12558TIP3    H259090   0.876   2.648   4.114 -0.8635  0.7559 -0.6648
12559TIP3   OH259091   5.349   3.243   2.102 -0.1748 -0.2423  0.3846
12559TIP3    H159092   5.344   3.243   2.198 -1.2389 -2.0187  0.3816
12559TIP3    H259093   5.309   3.326   2.077 -2.3877 -0.8894  1.4623
12560TIP3   OH259094   0.306   4.588   5.983  0.1360 -0.3167 -0.4022
12560TIP3    H159095   0.378   4.626   6.035 -0.6564 -2.0216  2.1337
12560TIP3    H259096   0.231   4.645   6.002  0.6250  1.3363 -2.8822
12561TIP3   OH259097   6.285   6.146  17.129 -0.1994 -0.0834 -0.1203
12561TIP3    H159098   6.311   6.181  17.215  1.3532 -1.2396 -0.0792
12561TIP3    H259099   6.243   6.063  17.149 -2.6258  1.0129 -0.3182
12562TIP3   OH259100   0.429   2.020   3.998  0.1011  0.1523  0.0542
12562TIP3    H159101   0.375   2.094   3.970 -0.1398  0.5222  1.3829
12562TIP3    H259102   0.471   2.051   4.079  1.0852 -0.6834 -0.1148
12563TIP3   OH259103   5.655   6.342  14.442  0.2375 -0.4083 -0.8078
12563TIP3    H159104   5.570   6.332  14.483  0.1838 -2.8274 -1.3982
12563TIP3    H259105   5.718   6.319  14.510  0.5802  2.3120 -0.0609
12564TIP3   OH259106   1.456   3.442  14.353  0.7203  0.3431  0.7387
12564TIP3    H159107   1.369   3.417  14.385  0.6022  1.5330  1.3979
12564TIP3    H259108   1.449   3.438  14.258 -0.3222  1.2366  0.7581
12565TIP3   OH259109   4.528   0.972   0.685 -0.0034  0.4155  0.1260
12565TIP3    H159110   4.449   1.017   0.656 -0.1400 -1.0955 -2.1139
12565TIP3    H259111   4.600   1.025   0.652 -0.1372  0.2100 -0.5109
12566TIP3   OH259112   3.316   2.681   5.835 -0.7460 -0.1269 -0.1228
12566TIP3    H159113   3.251   2.638   5.892 -0.3727  0.5218  0.8049
12566TIP3    H259114   3.270   2.758   5.802 -0.4723  0.3038  0.4922
12567TIP3   OH259115   5.004   6.503   1.312 -0.3280  0.5056 -0.6082
12567TIP3    H159116   4.989   6.457   1.229 -0.5005 -0.3132 -0.1392
12567TIP3    H259117   4.928   6.560   1.322 -1.4365 -1.0307  0.0535
12568TIP3   OH259118   6.256   1.666  13.201  0.4827 -1.2148 -0.5484
12568TIP3    H159119   6.216   1.637  13.120 -1.3550 -1.9498  0.5670
12568TIP3    H259120   6.183   1.697  13.255  1.8504  1.2311  0.0850
12569TIP3   OH259121   5.021   3.123  15.415  0.4196  0.2097 -0.2928
12569TIP3    H159122   5.003   3.162  15.500 -0.1091 -1.0818  0.1950
12569TIP3    H259123   4.992   3.033  15.422 -0.1954  0.2320 -2.0378
12570TIP3   OH259124   5.514   2.390  15.744  0.0470  0.0595  0.0917
12570TIP3    H159125   5.552   2.429  15.823 -0.0728  1.5568 -0.5530
12570TIP3    H259126   5.554   2.438  15.672  0.4028 -1.4919 -0.8069
12571TIP3   OH259127   2.610   2.883   2.737 -0.0697  0.2425  0.3380
12571TIP3    H159128   2.576   2.795   2.717 -0.4353  0.4238  0.1626
12571TIP3    H259129   2.705   2.870   2.749  0.2515  0.1897 -1.9325
12572TIP3   OH259130   4.926   6.340   5.521  0.1155 -0.5159  0.7075
12572TIP3    H159131   4.934   6.264   5.579  0.9146  0.4882  1.9635
12572TIP3    H259132   4.844   6.383   5.548  0.2438 -0.3066  0.7641
12573TIP3   OH259133   1.439   5.021   5.446  0.2783  0.3939 -0.0699
12573TIP3    H159134   1.348   5.016   5.417  0.0732 -1.7408  0.7915
12573TIP3    H259135   1.438   4.984   5.535  1.9102  0.8082  0.1482
12574TIP3   OH259136   5.687   2.421  15.484  0.3022  0.2959  0.2298
12574TIP3    H159137   5.692   2.428  15.388  0.7555  0.2585  0.2499
12574TIP3    H259138   5.680   2.327  15.501 -0.9386  0.3540  0.1874
12575TIP3   OH259139   1.595   5.208   0.223 -0.5737 -0.0390  0.1393
12575TIP3    H159140   1.611   5.153   0.300 -0.3715 -0.7460 -0.3984
12575TIP3    H259141   1.602   5.148   0.149 -0.8210  0.6252 -0.4304
12576TIP3   OH259142   1.305   6.657  13.715 -0.7266  0.2872  0.1777
12576TIP3    H159143   1.373   6.632  13.652  0.8451  1.4772  1.3401
12576TIP3    H259144   1.302   6.753  13.709 -0.0148  0.4860  2.4097
12577TIP3   OH259145   6.552   0.029  12.902 -0.1745 -0.0190  0.0523
12577TIP3    H159146   6.582  -0.053  12.941 -3.0285 -1.4550 -0.4527
12577TIP3    H259147   6.619   0.051  12.838  1.1257 -1.4620  0.8452
12578TIP3   OH259148   2.041   0.438  16.507  0.1253 -0.4144 -0.0436
12578TIP3    H159149   2.080   0.523  16.526 -2.2486  0.1178  3.4292
12578TIP3    H259150   2.057   0.387  16.587 -1.5627 -1.9917 -0.6478
12579TIP3   OH259151   4.225   0.320  12.667  0.4317 -0.6449  0.3737
12579TIP3    H159152   4.278   0.314  12.746 -0.0442 -1.9062  0.6297
12579TIP3    H259153   4.275   0.376  12.608  0.7598  0.3812  1.5866
12580TIP3   OH259154   0.286   0.046  16.905  0.3838  0.0372  0.2194
12580TIP3    H159155   0.278  -0.049  16.916 -1.5097  0.2276  0.9343
12580TIP3    H259156   0.334   0.056  16.822  0.6311 -1.5312  0.1339
12581TIP3   OH259157   2.183   2.889  16.580 -0.2708  0.4332 -0.0627
12581TIP3    H159158   2.207   2.960  16.519  0.1633 -0.7977 -1.3748
12581TIP3    H259159   2.214   2.920  16.665  1.8710  0.9221 -0.9559
12582TIP3   OH259160   3.484   0.545  13.477  0.4138 -0.8891 -0.5635
12582TIP3    H159161   3.571   0.561  13.514  0.6872 -2.4258 -0.4616
12582TIP3    H259162   3.428   0.533  13.554  0.3524 -1.0233 -0.6293
12583TIP3   OH259163   1.831   1.421   5.781 -0.4010 -0.0420 -0.4291
12583TIP3    H159164   1.827   1.410   5.876 -2.4039 -0.1866 -0.4872
12583TIP3    H259165   1.868   1.339   5.748  1.8429  0.5972  0.2609
12584TIP3   OH259166   3.044   1.452  12.809  0.2776 -0.1242 -0.3970
12584TIP3    H159167   3.032   1.357  12.803 -0.4045 -0.0934  0.3357
12584TIP3    H259168   3.042   1.482  12.719  0.0453 -0.7553 -0.6096
12585TIP3   OH259169   6.742   3.542   0.144  0.0869 -0.5448  0.0295
12585TIP3    H159170   6.830   3.507   0.160 -0.2273 -1.2268  0.3147
12585TIP3    H259171   6.687   3.465   0.133 -0.6813 -0.1571  0.9719
12586TIP3   OH259172   5.351   0.733  15.874 -0.5265 -0.1611 -0.1049
12586TIP3    H159173   5.424   0.791  15.894 -0.9220  0.3733 -0.1823
12586TIP3    H259174   5.358   0.715  15.781 -1.4701  1.3090 -0.5096
12587TIP3   OH259175   6.722   6.750   5.165 -0.1301 -0.4083 -0.1251
12587TIP3    H159176   6.717   6.745   5.260 -0.6658  0.6963 -0.0835
12587TIP3    H259177   6.746   6.661   5.138 -0.8449 -0.9577  0.9724
12588TIP3   OH259178   1.531   5.810   2.661 -0.7056 -0.1439  0.6540
12588TIP3    H159179   1.568   5.840   2.578 -0.9146  0.8542  0.9052
12588TIP3    H259180   1.553   5.717   2.665  1.8917  0.4282  0.8676
12589TIP3   OH259181   0.690   4.798  14.783  0.4275 -0.2380 -0.5474
12589TIP3    H159182   0.598   4.823  14.796  0.3720 -0.3012 -0.8281
12589TIP3    H259183   0.739   4.869  14.825  0.2364 -1.3205  1.6636
12590TIP3   OH259184   0.135   0.875   0.845 -0.0627  0.2231 -0.1230
12590TIP3    H159185   0.194   0.924   0.903  1.5142 -0.2146 -1.2883
12590TIP3    H259186   0.097   0.808   0.902  1.0808  0.1029  0.5482
12591TIP3   OH259187   1.698   1.850   4.119 -0.1392 -0.0205 -0.4958
12591TIP3    H159188   1.738   1.792   4.054 -0.7422 -0.0166 -0.8701
12591TIP3    H259189   1.612   1.871   4.083  0.0071  0.9666 -0.2773
12592TIP3   OH259190   1.856   0.771  10.669  0.0675 -0.3606  0.6242
12592TIP3    H159191   1.858   0.829  10.745 -0.4900  0.0994  0.2926
12592TIP3    H259192   1.944   0.780  10.631 -0.3609  1.1794 -0.0896
12593TIP3   OH259193   2.200   6.731   3.545  0.0796 -0.1629 -0.3163
12593TIP3    H159194   2.278   6.681   3.569 -0.1267 -1.2861 -1.7785
12593TIP3    H259195   2.129   6.690   3.594  0.1547 -0.2570 -0.2859
12594TIP3   OH259196   6.232   3.331   2.230 -0.4955  0.1846  0.1445
12594TIP3    H159197   6.181   3.254   2.205 -0.5200  0.7707 -1.7605
12594TIP3    H259198   6.168   3.391   2.269 -0.9462  0.1953 -0.5911
12595TIP3   OH259199   0.734   5.870   5.762  0.7696 -0.6102  0.3675
12595TIP3    H159200   0.778   5.846   5.681 -0.3149  0.7666 -0.6856
12595TIP3    H259201   0.641   5.854   5.744  0.5727 -0.8957  1.5682
12596TIP3   OH259202   1.688   0.265   5.065 -0.0819 -0.1496  0.2675
12596TIP3    H159203   1.663   0.278   4.973  1.1571  0.1619 -0.0452
12596TIP3    H259204   1.655   0.342   5.110  0.5886  0.4250 -0.1989
12597TIP3   OH259205   6.728   1.251   1.680 -0.2567  0.5031  0.3252
12597TIP3    H159206   6.743   1.240   1.586 -0.6360  2.3588 -0.0001
12597TIP3    H259207   6.654   1.194   1.700 -0.0794 -0.0144 -0.4720
12598TIP3   OH259208   2.853   3.318   3.045  0.3858  0.2786 -0.1949
12598TIP3    H159209   2.833   3.321   3.139  0.8225  0.9202 -0.1082
12598TIP3    H259210   2.771   3.293   3.003  0.2738 -0.3338  0.3862
12599TIP3   OH259211   2.940   3.100   0.020  0.0871 -0.1870  0.3331
12599TIP3    H159212   2.992   3.055   0.087 -0.1643 -1.2436 -0.1489
12599TIP3    H259213   2.917   3.030  -0.042  0.7253  0.8349 -1.1198
12600TIP3   OH259214   5.270   6.014   4.966 -0.8379 -0.3149  0.6242
12600TIP3    H159215   5.352   5.982   5.005 -0.2448  1.1599  0.6609
12600TIP3    H259216   5.214   6.034   5.042 -0.4345  0.6494  0.6820
12601TIP3   OH259217   5.523   6.332  12.582 -0.0828 -0.0326 -0.1979
12601TIP3    H159218   5.482   6.273  12.519  0.1091 -0.7662  0.3426
12601TIP3    H259219   5.471   6.323  12.662 -0.8030  1.4898 -0.4693
12602TIP3   OH259220   3.489   6.294  12.364 -0.2010  0.1200  0.0915
12602TIP3    H159221   3.411   6.309  12.311  0.0061 -1.1577 -0.6035
12602TIP3    H259222   3.532   6.219  12.324  2.2225  1.7015 -0.4548
12603TIP3   OH259223   2.386   4.524  11.572  0.0522 -0.0565  0.5585
12603TIP3    H159224   2.310   4.525  11.513  1.6912 -1.5722 -1.7341
12603TIP3    H259225   2.352   4.488  11.654 -2.5323  3.0531  1.0786
12604TIP3   OH259226   0.183   5.599   0.881  0.2501  0.1008  0.1511
12604TIP3    H159227   0.227   5.519   0.910 -1.2547 -1.1253 -0.8570
12604TIP3    H259228   0.096   5.571   0.856  0.2398  1.7631 -1.8602
12605TIP3   OH259229   2.174   2.757  11.965 -0.4757 -0.1612  0.5602
12605TIP3    H159230   2.093   2.761  11.913  0.1652  0.3640 -0.4315
12605TIP3    H259231   2.191   2.663  11.975 -0.5757 -0.2703 -0.2403
12606TIP3   OH259232   0.906   2.046   5.721  0.8076 -0.0258  0.3426
12606TIP3    H159233   0.853   2.117   5.684 -0.2373 -0.3518  1.1525
12606TIP3    H259234   0.855   1.967   5.703  2.3711 -0.7246 -1.3333
12607TIP3   OH259235   1.386   4.629  14.316 -0.5233 -0.0605  0.0401
12607TIP3    H159236   1.351   4.631  14.405 -0.2206 -1.0476  0.1941
12607TIP3    H259237   1.329   4.566  14.269  0.3307 -0.8201 -0.0057
12608TIP3   OH259238   1.344   4.092   6.284  0.2491 -0.2141 -0.2813
12608TIP3    H159239   1.396   4.112   6.361 -0.2160 -2.6037  0.7654
12608TIP3    H259240   1.406   4.056   6.221  0.3965  0.2675 -0.4097
12609TIP3   OH259241   5.222   0.053   3.217 -0.2172 -0.0304 -0.6418
12609TIP3    H159242   5.171   0.102   3.281 -1.7931 -0.6434 -1.3559
12609TIP3    H259243   5.203  -0.039   3.237  1.3650 -0.3278 -0.3629
12610TIP3   OH259244   6.318   2.797  15.235 -0.2104  0.0408 -0.2983
12610TIP3    H159245   6.260   2.758  15.301  0.7748  0.0553  0.5903
12610TIP3    H259246   6.366   2.723  15.199  1.0706  0.2953  0.8100
12611TIP3   OH259247   0.177   1.226   3.999  0.0128 -0.1923  0.2305
12611TIP3    H159248   0.219   1.192   4.079  0.6602 -0.4039 -0.1928
12611TIP3    H259249   0.250   1.256   3.945 -0.2945 -1.3946 -0.9059
12612TIP3   OH259250   1.458   0.846   6.462 -0.2447  0.4638 -0.2889
12612TIP3    H159251   1.400   0.912   6.500  0.3861  0.4230  0.8054
12612TIP3    H259252   1.405   0.801   6.397 -1.7024 -0.1209  1.2443
12613TIP3   OH259253   1.527   2.827   2.993 -0.0169 -0.2621 -0.0562
12613TIP3    H159254   1.439   2.865   2.988  0.0671  0.3710  2.1983
12613TIP3    H259255   1.577   2.890   3.046  1.4817 -1.1793 -0.3321
12614TIP3   OH259256   5.230   1.150   1.038 -0.1659 -0.6579  0.6088
12614TIP3    H159257   5.175   1.072   1.032 -0.3306 -0.4403 -1.0339
12614TIP3    H259258   5.234   1.184   0.949  0.0638  1.1142  1.2516
12615TIP3   OH259259   5.995   3.684   4.193  0.0278  0.0071 -0.0164
12615TIP3    H159260   5.955   3.717   4.273  1.1910  0.4768  0.3852
12615TIP3    H259261   5.972   3.749   4.126  1.3419  1.0693  0.5273
12616TIP3   OH259262   3.387   2.402  10.811 -0.1898 -0.1526 -0.2766
12616TIP3    H159263   3.327   2.420  10.883  1.2284  1.8366  0.4992
12616TIP3    H259264   3.454   2.344  10.849  0.9474  1.4595  0.2846
12617TIP3   OH259265   3.228   0.267   3.655 -0.5953  0.1618 -1.2440
12617TIP3    H159266   3.298   0.209   3.627 -0.4742  0.6018 -1.8824
12617TIP3    H259267   3.157   0.251   3.594 -0.5047  0.7874 -1.5217
12618TIP3   OH259268   0.073   5.739  12.300 -0.4927  0.6230  0.2061
12618TIP3    H159269   0.049   5.794  12.226 -1.2046 -0.1862 -0.1812
12618TIP3    H259270   0.168   5.730  12.293 -0.6263 -0.0678 -1.0739
12619TIP3   OH259271   2.635   4.874  15.540  0.5335  0.0022  0.2752
12619TIP3    H159272   2.634   4.793  15.490 -1.8402  0.0114  0.1817
12619TIP3    H259273   2.718   4.916  15.517  0.4384 -0.9469 -2.0880
12620TIP3   OH259274   3.783   0.996   2.376 -0.5585  0.2703  0.2759
12620TIP3    H159275   3.754   1.007   2.466 -1.1636 -0.8367  0.2357
12620TIP3    H259276   3.788   1.085   2.341  0.1899  0.7456  1.5361
12621TIP3   OH259277   0.913   6.691   3.787  0.5983  0.2791  0.0966
12621TIP3    H159278   1.007   6.687   3.768  1.5233  0.1744  3.8978
12621TIP3    H259279   0.900   6.778   3.823 -0.4866 -0.1306  0.7429
12622TIP3   OH259280   3.835   4.122   1.730 -0.7427  0.1822 -0.0252
12622TIP3    H159281   3.796   4.207   1.707 -0.9059  0.2160  0.3741
12622TIP3    H259282   3.811   4.065   1.657  0.4303  0.7857 -0.9219
12623TIP3   OH259283   3.102   3.458  11.419  0.1799 -0.6324 -0.5257
12623TIP3    H159284   3.036   3.505  11.369  1.3708  0.3109 -1.2692
12623TIP3    H259285   3.071   3.463  11.510  1.4298  3.9259 -0.0862
12624TIP3   OH259286   4.107   4.803   3.932  0.5803  0.4211 -0.3652
12624TIP3    H159287   4.155   4.759   3.862  0.1254  1.2985 -1.2443
12624TIP3    H259288   4.043   4.738   3.962  1.3557 -0.2596 -0.1488
12625TIP3   OH259289   3.431   5.746  14.991 -0.6185  0.3024  0.3277
12625TIP3    H159290   3.409   5.660  15.027 -1.7380  1.5370  2.8836
12625TIP3    H259291   3.360   5.764  14.929 -0.2658 -0.6739 -0.3830
12626TIP3   OH259292   5.797   6.341   1.442 -0.0788 -0.3934 -0.8931
12626TIP3    H159293   5.863   6.299   1.388  2.2738 -1.5505  2.5118
12626TIP3    H259294   5.715   6.299   1.417  1.0474 -1.6480 -2.6968
12627TIP3   OH259295   2.160   3.163   3.171  0.3241 -0.4235 -0.2608
12627TIP3    H159296   2.135   3.071   3.165 -0.3680 -0.2634  0.0319
12627TIP3    H259297   2.103   3.199   3.239 -0.2937  0.5084 -1.2401
12628TIP3   OH259298   0.116   4.647  11.801  0.1172 -0.5285  0.4894
12628TIP3    H159299   0.068   4.719  11.760  0.6663  0.0970  0.9177
12628TIP3    H259300   0.202   4.684  11.822  1.0586 -1.8037 -0.8608
12629TIP3   OH259301   5.237   2.652   4.351 -0.2084 -0.3914  0.2792
12629TIP3    H159302   5.267   2.609   4.431  1.2385 -1.1399 -0.6275
12629TIP3    H259303   5.286   2.609   4.281 -1.8660 -0.1692 -1.0870
12630TIP3   OH259304   6.124   0.280   5.514 -0.0729 -0.3814 -0.5502
12630TIP3    H159305   6.059   0.318   5.574 -0.4817  0.0271 -1.2414
12630TIP3    H259306   6.187   0.351   5.499 -0.1548 -0.3737 -0.8645
12631TIP3   OH259307   0.511   3.538  12.182 -0.4635 -0.4066  0.1247
12631TIP3    H159308   0.573   3.506  12.116 -2.2088  0.7911 -2.2358
12631TIP3    H259309   0.558   3.609  12.227  0.4129 -0.5630 -0.5172
12632TIP3   OH259310   4.882   1.306   2.659  0.5074 -0.1863  0.3861
12632TIP3    H159311   4.850   1.270   2.741  1.3769  1.3976  1.4742
12632TIP3    H259312   4.966   1.263   2.644 -0.3917 -1.6876 -0.5822
12633TIP3   OH259313   3.626   6.519  16.128 -0.2732 -0.9383 -0.3565
12633TIP3    H159314   3.716   6.489  16.113  0.7499 -0.6887  3.8817
12633TIP3    H259315   3.631   6.614  16.116 -0.3844 -1.0781 -1.5946
12634TIP3   OH259316   0.736   0.366  12.522 -0.4832 -0.0260 -0.6336
12634TIP3    H159317   0.768   0.419  12.595 -0.9412 -1.7460  0.8999
12634TIP3    H259318   0.814   0.349  12.469 -0.1222  1.1986 -0.5213
12635TIP3   OH259319   0.043   2.621   1.637  0.4592  0.9205  0.1625
12635TIP3    H159320   0.031   2.609   1.731 -2.3632 -0.4705 -0.2668
12635TIP3    H259321   0.107   2.556   1.612 -0.1942 -0.0153  0.8601
12636TIP3   OH259322   2.203   1.160  13.493 -0.2703  0.1879  0.2677
12636TIP3    H159323   2.257   1.215  13.549  0.4921  0.5668 -0.8195
12636TIP3    H259324   2.261   1.090  13.465 -0.9798 -0.6738  0.8904
12637TIP3   OH259325   5.488   1.209   0.415 -0.1295  0.2287  0.0778
12637TIP3    H159326   5.499   1.275   0.346 -0.3371 -0.4516 -0.6171
12637TIP3    H259327   5.542   1.135   0.386 -0.5414 -0.2168  0.4470
12638TIP3   OH259328   1.612   6.100   4.957 -0.2412 -0.6181  0.1785
12638TIP3    H159329   1.610   6.164   5.028  1.1055  2.0365 -2.0043
12638TIP3    H259330   1.525   6.103   4.919 -0.4157 -0.7133  0.5623
12639TIP3   OH259331   5.079   0.438   1.094 -0.5370 -0.4357 -0.1071
12639TIP3    H159332   5.070   0.458   1.001  0.4697 -2.0160 -0.5920
12639TIP3    H259333   5.148   0.496   1.125  1.0412 -1.7194 -1.0345
12640TIP3   OH259334   1.201   5.246  15.499  0.3917  0.5238  0.2649
12640TIP3    H159335   1.250   5.172  15.463 -1.0908 -0.8625  0.9752
12640TIP3    H259336   1.266   5.296  15.548  1.8402  0.8277 -1.8342
12641TIP3   OH259337   6.683   2.769   0.822  0.4201 -0.1740  0.6236
12641TIP3    H159338   6.601   2.721   0.831  0.9735 -1.4550 -0.7665
12641TIP3    H259339   6.720   2.770   0.911 -0.4358 -0.8130  1.0018
12642TIP3   OH259340   2.048   3.419  11.638  0.3618  0.2769  0.2506
12642TIP3    H159341   1.995   3.341  11.628 -0.0840  0.6853 -0.6395
12642TIP3    H259342   1.985   3.491  11.639  0.8130  0.6782  0.4388
12643TIP3   OH259343   6.334   2.296   1.167  0.2981  0.0078  0.1013
12643TIP3    H159344   6.405   2.238   1.193 -0.0273  0.0989  1.2294
12643TIP3    H259345   6.255   2.243   1.178 -0.1247  1.0349  2.4211
12644TIP3   OH259346   0.304   0.281  11.960 -0.6345 -0.3593 -0.2060
12644TIP3    H159347   0.354   0.202  11.940  0.1081  0.2850 -0.9967
12644TIP3    H259348   0.371   0.345  11.986 -1.1557  0.2140 -0.2500
12645TIP3   OH259349   6.336   3.273  14.613 -0.1522  0.1526 -0.3476
12645TIP3    H159350   6.388   3.221  14.674  0.2652 -0.2264 -1.0134
12645TIP3    H259351   6.384   3.267  14.530  0.0810  1.8288 -0.3784
12646TIP3   OH259352   3.831   4.498  11.980 -0.1239 -0.1014  0.1091
12646TIP3    H159353   3.817   4.574  11.924  1.5686 -1.1037 -1.8219
12646TIP3    H259354   3.926   4.494  11.993  0.0051 -2.5555 -0.9568
12647TIP3   OH259355   4.699   6.414  15.579  0.1815  0.3486 -0.2433
12647TIP3    H159356   4.633   6.457  15.525 -0.0991  1.3810  0.8888
12647TIP3    H259357   4.708   6.470  15.656  1.1318 -0.6834  0.4310
12648TIP3   OH259358   5.451   1.590  12.164 -0.5587  0.2589  0.1118
12648TIP3    H159359   5.392   1.592  12.239  1.8151 -0.1388  2.1507
12648TIP3    H259360   5.462   1.496  12.145 -0.1939  0.2934  0.1352
12649TIP3   OH259361   4.743   5.745   0.601  0.1943 -0.0184 -0.3413
12649TIP3    H159362   4.765   5.828   0.559 -0.0999 -0.2502 -0.9701
12649TIP3    H259363   4.771   5.679   0.537 -1.1163 -0.3590 -0.5938
12650TIP3   OH259364   6.214   3.086   1.193 -0.3884 -0.2814 -0.2659
12650TIP3    H159365   6.294   3.086   1.140  0.4411 -1.0571  0.9513
12650TIP3    H259366   6.156   3.149   1.149 -0.1908 -1.7305 -2.7797
12651TIP3   OH259367   5.413   6.303   5.204  0.1495 -0.0658 -0.4386
12651TIP3    H159368   5.380   6.215   5.218  0.6864 -0.1575  0.3530
12651TIP3    H259369   5.424   6.339   5.293 -0.3611  0.9102 -0.7562
12652TIP3   OH259370   1.490   1.989  17.373 -0.1107  0.2527 -0.7224
12652TIP3    H159371   1.497   1.922  17.305  0.1385  0.1446 -0.5868
12652TIP3    H259372   1.450   1.945  17.447  0.9306  0.0069 -0.2935
12653TIP3   OH259373   2.315   0.877  12.161 -0.4775 -0.1464  0.6408
12653TIP3    H159374   2.325   0.792  12.119 -1.0642  1.6891 -3.8351
12653TIP3    H259375   2.225   0.877  12.194  0.0627 -1.7278  2.3051
12654TIP3   OH259376   5.643   5.588  12.315  0.3930  0.4672 -0.4198
12654TIP3    H159377   5.623   5.629  12.231  1.7431  2.2402  0.0520
12654TIP3    H259378   5.688   5.507  12.292 -0.5690  0.2056 -1.4061
12655TIP3   OH259379   2.506   6.492  14.811  0.0565 -0.3588 -0.1287
12655TIP3    H159380   2.547   6.461  14.892 -0.1071  0.8729  0.4335
12655TIP3    H259381   2.577   6.489  14.746  1.2883  2.2679  0.9495
12656TIP3   OH259382   1.146   5.512  14.077 -0.1688 -0.8177 -0.0772
12656TIP3    H159383   1.081   5.444  14.097 -2.8591  0.7748 -2.5219
12656TIP3    H259384   1.189   5.482  13.997  0.3887 -0.7578  0.1973
12657TIP3   OH259385   2.795   3.956   5.018 -0.8404 -0.1549  0.2569
12657TIP3    H159386   2.766   3.967   5.109 -1.7080 -0.3606  0.0118
12657TIP3    H259387   2.714   3.954   4.967 -0.3254  1.4405 -0.6985
12658TIP3   OH259388   6.234   6.449   0.677 -0.1689 -0.3298 -0.1962
12658TIP3    H159389   6.232   6.534   0.632  0.6280 -0.8975 -1.3723
12658TIP3    H259390   6.312   6.453   0.732  1.2337 -1.1291 -2.0459
12659TIP3   OH259391   6.261   1.413  12.043  0.0457 -0.5340  0.2780
12659TIP3    H159392   6.180   1.375  12.009 -0.9784  1.1254  0.7440
12659TIP3    H259393   6.295   1.466  11.971 -0.0832 -0.0427  0.5768
12660TIP3   OH259394   3.607   2.076   1.210 -0.4929 -0.0904  0.2926
12660TIP3    H159395   3.558   2.030   1.278 -2.3978 -0.5718 -1.3218
12660TIP3    H259396   3.584   2.168   1.223  0.6843  0.0885  1.4302
12661TIP3   OH259397   4.242   1.354  12.434  0.1865 -0.0390 -0.5370
12661TIP3    H159398   4.184   1.367  12.359  0.5220 -0.7355 -0.9331
12661TIP3    H259399   4.200   1.283  12.483 -0.8469  1.4241  0.7833
12662TIP3   OH259400   3.321   0.319   3.263 -0.7740 -0.0901  0.3470
12662TIP3    H159401   3.295   0.370   3.186 -0.2801 -0.2908  0.0436
12662TIP3    H259402   3.404   0.279   3.239 -0.3700  0.2258  1.1553
12663TIP3   OH259403   0.717   0.526   4.553  0.1969  0.0441 -0.0302
12663TIP3    H159404   0.793   0.507   4.608  0.5722  2.5234  0.4640
12663TIP3    H259405   0.670   0.444   4.547 -0.0689 -0.3681  4.3649
12664TIP3   OH259406   6.363   0.871   6.069  0.2322  0.1075 -0.3092
12664TIP3    H159407   6.413   0.797   6.036 -1.8897 -1.7283  0.3454
12664TIP3    H259408   6.360   0.858   6.164 -2.8763 -0.9496 -0.4167
12665TIP3   OH259409   2.418   1.420   1.242  0.1214  0.3614  0.5893
12665TIP3    H159410   2.431   1.405   1.148 -1.7339  0.0515  0.3290
12665TIP3    H259411   2.501   1.395   1.282  0.7761 -0.0190 -0.9135
12666TIP3   OH259412   0.425   2.984   4.719  0.4084 -0.3667 -0.1212
12666TIP3    H159413   0.452   3.059   4.772  0.6596 -1.5066  1.4449
12666TIP3    H259414   0.330   2.983   4.726  0.3700  0.0696 -0.5368
12667TIP3   OH259415   4.513   4.983  13.613  0.0011 -0.0752 -0.2702
12667TIP3    H159416   4.493   5.068  13.651  3.1192  1.5205 -1.7810
12667TIP3    H259417   4.496   4.995  13.519 -0.3993 -1.4306 -0.3861
12668TIP3   OH259418   5.854   2.276  16.626 -0.2821 -0.5645 -1.1953
12668TIP3    H159419   5.772   2.230  16.644  0.8575 -2.4761 -0.6317
12668TIP3    H259420   5.922   2.218  16.659  1.3387  0.8484 -1.8965
12669TIP3   OH259421   4.382   3.873   2.339  0.0270  0.1575 -0.2892
12669TIP3    H159422   4.362   3.783   2.314 -1.2678  0.5641 -0.8275
12669TIP3    H259423   4.322   3.891   2.412  1.0702  0.2324  0.5659
12670TIP3   OH259424   3.262   0.123  15.351 -0.3278 -0.3434  0.2027
12670TIP3    H159425   3.356   0.135  15.357 -0.5799  1.2945  2.0817
12670TIP3    H259426   3.245   0.104  15.259  1.8605 -1.2603 -0.0534
12671TIP3   OH259427   3.233   1.917  15.217 -0.2575  0.1344  0.1252
12671TIP3    H159428   3.261   1.984  15.280  1.5325  0.0565 -0.5525
12671TIP3    H259429   3.137   1.914  15.227 -0.0779  0.4557  2.4830
12672TIP3   OH259430   3.092   5.873   4.919  0.2173 -0.2174  0.1251
12672TIP3    H159431   3.123   5.964   4.920  0.8608 -0.4311 -0.2447
12672TIP3    H259432   3.170   5.821   4.903  0.3610 -1.0584  3.0334
12673TIP3   OH259433   4.114   3.795  16.505 -0.2455 -0.0564  0.5014
12673TIP3    H159434   4.081   3.767  16.420  0.5882 -0.8276  0.4163
12673TIP3    H259435   4.208   3.780  16.500 -0.3156 -1.1808  1.9394
12674TIP3   OH259436   5.400   0.626   5.132 -0.1341  0.5398  0.5302
12674TIP3    H159437   5.460   0.596   5.200 -0.8209  0.6040  1.1726
12674TIP3    H259438   5.324   0.568   5.138  0.1978 -0.0873 -0.8462
12675TIP3   OH259439   0.521   2.750   2.695  0.0743 -0.2981 -0.4536
12675TIP3    H159440   0.432   2.784   2.698  0.1341 -0.1606 -0.2038
12675TIP3    H259441   0.524   2.682   2.762  0.6867  1.0133  0.9243
12676TIP3   OH259442   3.789   3.439  15.254  0.0389  0.2603 -0.4847
12676TIP3    H159443   3.883   3.457  15.251 -0.1889  1.4909 -0.9151
12676TIP3    H259444   3.748   3.526  15.250 -1.1062 -0.2216  0.2519
12677TIP3   OH259445   2.991   5.343   3.913 -0.3747 -0.0128 -0.1928
12677TIP3    H159446   2.900   5.358   3.940 -0.0492  1.8002 -0.0049
12677TIP3    H259447   3.035   5.427   3.928  1.5193 -1.0585  0.4201
12678TIP3   OH259448   0.839   0.125   2.057 -0.2906 -0.3265  0.2497
12678TIP3    H159449   0.859   0.174   1.978 -0.2805  2.3104  1.7770
12678TIP3    H259450   0.909   0.061   2.065 -1.2608 -1.9613 -2.7669
12679TIP3   OH259451   4.619   0.648  16.384 -0.2444 -0.0985  0.0717
12679TIP3    H159452   4.663   0.564  16.388 -2.0472 -1.0532  2.2958
12679TIP3    H259453   4.647   0.694  16.463  0.3668  1.2438 -0.8860
12680TIP3   OH259454   0.784   6.388   4.474  0.1444 -0.1918  0.6367
12680TIP3    H159455   0.820   6.434   4.550 -1.0195  0.4712  0.8081
12680TIP3    H259456   0.860   6.349   4.431  0.9439  0.3728  1.5123
12681TIP3   OH259457   6.537   5.940  17.206  0.5913  0.1609 -0.3780
12681TIP3    H159458   6.547   5.915  17.115  0.0394 -0.2438 -0.3288
12681TIP3    H259459   6.446   5.920  17.227  0.6271  0.5472  0.1709
12682TIP3   OH259460   6.556   6.471  12.451 -0.1252 -0.3146  0.5186
12682TIP3    H159461   6.638   6.513  12.477 -0.8821  2.3661 -1.0294
12682TIP3    H259462   6.515   6.534  12.391 -2.7652 -2.0782  0.3177
12683TIP3   OH259463   5.186   4.555   1.668 -0.6423  0.0432 -0.4258
12683TIP3    H159464   5.128   4.596   1.604 -1.3811 -1.9209 -1.0925
12683TIP3    H259465   5.180   4.461   1.650  2.2297 -0.3225 -0.0660
12684TIP3   OH259466   5.454   2.437   5.083 -0.1429  0.1530 -0.2039
12684TIP3    H159467   5.457   2.532   5.088  0.5477  0.0948  0.8110
12684TIP3    H259468   5.543   2.411   5.058 -0.1310 -0.2531  0.2357
12685TIP3   OH259469   3.160   4.685  15.643  0.2076  0.3290 -0.0984
12685TIP3    H159470   3.131   4.627  15.713  2.5729 -0.7358  0.0743
12685TIP3    H259471   3.081   4.699  15.590 -1.3254  0.1107  1.9883
12686TIP3   OH259472   5.149   0.835  13.665 -0.3465  0.1361 -0.0753
12686TIP3    H159473   5.223   0.811  13.609  0.5499  1.5876  0.4319
12686TIP3    H259474   5.184   0.831  13.754 -1.1963 -0.2158  0.2489
12687TIP3   OH259475   0.239   2.055  14.659 -0.2093 -0.2628 -0.1761
12687TIP3    H159476   0.296   2.130  14.675 -1.3621  0.4831  0.5663
12687TIP3    H259477   0.235   2.048  14.564 -0.3649  0.8284 -0.2599
12688TIP3   OH259478   2.343   4.134  16.131  0.4241 -0.9296  0.2710
12688TIP3    H159479   2.308   4.184  16.205 -2.2570 -0.7746 -0.9799
12688TIP3    H259480   2.357   4.200  16.062 -1.7343 -1.5685 -0.8898
12689TIP3   OH259481   3.826   0.227  12.314  0.1249 -0.0445 -0.3300
12689TIP3    H159482   3.781   0.245  12.397  1.8129  1.6377  0.2821
12689TIP3    H259483   3.918   0.245  12.332  0.7656 -1.1376 -2.1820
12690TIP3   OH259484   2.586   4.706  13.305 -0.2007  0.4189 -0.1265
12690TIP3    H159485   2.568   4.645  13.233 -0.0427 -0.2425  0.3857
12690TIP3    H259486   2.499   4.729  13.339 -0.2171 -0.4143  0.4060
12691TIP3   OH259487   2.199   1.805   2.055  0.3234 -0.1036 -0.2085
12691TIP3    H159488   2.286   1.841   2.076  0.1413  0.2497 -0.0519
12691TIP3    H259489   2.138   1.869   2.090 -0.1444 -2.4910  3.8683
12692TIP3   OH259490   2.849   6.601   5.012  0.3796  0.6087  0.5695
12692TIP3    H159491   2.866   6.692   4.989 -0.8394  0.8109  0.3863
12692TIP3    H259492   2.762   6.602   5.052 -0.4006 -0.6877 -0.9442
12693TIP3   OH259493   4.312   3.142  15.624  0.4325 -0.6530 -0.5605
12693TIP3    H159494   4.362   3.091  15.560  0.4300  1.5045 -2.3872
12693TIP3    H259495   4.238   3.176  15.575 -1.1509 -1.1931  1.3408
12694TIP3   OH259496   2.964   6.641   5.734 -0.1886  0.2397  0.6684
12694TIP3    H159497   2.986   6.547   5.734 -0.9433 -0.0008 -1.7571
12694TIP3    H259498   2.869   6.644   5.722 -0.2962  1.3420  1.6051
12695TIP3   OH259499   6.109   0.447  13.353 -0.1219  0.1051 -0.4261
12695TIP3    H159500   6.129   0.488  13.437  0.4662 -0.8358 -0.0892
12695TIP3    H259501   6.193   0.417  13.320 -0.4252 -0.0572 -1.0675
12696TIP3   OH259502   3.205   1.435   0.256  0.2790 -0.2486  0.9157
12696TIP3    H159503   3.143   1.500   0.292  0.6053  0.4276  0.2837
12696TIP3    H259504   3.150   1.361   0.230 -0.2409  0.2352  0.6184
12697TIP3   OH259505   3.632   4.661  13.127 -0.1269  0.6425 -0.6358
12697TIP3    H159506   3.696   4.725  13.158  0.6224 -0.7283  0.7867
12697TIP3    H259507   3.640   4.664  13.031  2.0639  0.5730 -0.5096
12698TIP3   OH259508   4.828   4.758  13.268  0.4741 -0.2481 -0.0755
12698TIP3    H159509   4.863   4.742  13.180  0.1309  0.7002 -0.4007
12698TIP3    H259510   4.904   4.782  13.320  1.0962 -3.1842  0.5578
12699TIP3   OH259511   3.035   2.740  11.286  0.0189 -0.3369 -0.0846
12699TIP3    H159512   2.963   2.802  11.276  1.2757  0.9666 -1.3420
12699TIP3    H259513   3.035   2.690  11.204 -1.0707 -2.1639  0.9681
12700TIP3   OH259514   4.800   5.075   4.755 -0.0298  0.3454  0.2493
12700TIP3    H159515   4.863   5.122   4.701  0.0867  0.4600  0.4854
12700TIP3    H259516   4.795   5.125   4.836  1.1982 -0.8436  1.0917
12701TIP3   OH259517   5.132   5.706   1.281 -0.3055 -0.0918  0.1832
12701TIP3    H159518   5.213   5.662   1.254  0.3174  0.4498  1.1133
12701TIP3    H259519   5.129   5.784   1.226 -0.4758 -0.3799 -0.2206
12702TIP3   OH259520   4.827   0.648   6.208 -0.2552 -0.0683 -0.3106
12702TIP3    H159521   4.753   0.658   6.268 -0.5386 -1.7788 -0.3360
12702TIP3    H259522   4.829   0.555   6.187  1.5173  0.0426 -0.8158
12703TIP3   OH259523   5.120   5.825  15.690  0.4614 -0.0784 -0.3599
12703TIP3    H159524   5.101   5.880  15.766 -0.7071 -0.5601 -0.2862
12703TIP3    H259525   5.038   5.781  15.671  0.4559  0.7398 -2.4956
12704TIP3   OH259526   3.582   2.298   2.143  0.1147 -0.4103  0.0123
12704TIP3    H159527   3.511   2.239   2.165  0.6390 -2.0759 -2.4480
12704TIP3    H259528   3.654   2.272   2.201 -0.5052 -0.2876  0.8568
12705TIP3   OH259529   5.294   3.274  12.809  0.6038  0.1075 -0.2786
12705TIP3    H159530   5.358   3.214  12.772 -0.1622 -0.3989 -0.8170
12705TIP3    H259531   5.334   3.361  12.799  1.2878 -0.2221 -0.4193
12706TIP3   OH259532   5.956   5.172   5.237 -0.3023 -0.0073  0.1792
12706TIP3    H159533   6.050   5.188   5.247 -0.4054 -0.0018  1.2510
12706TIP3    H259534   5.949   5.119   5.158  0.8399 -1.9498  1.2991
12707TIP3   OH259535   5.761   3.620   2.601 -0.1591  0.2804 -0.1229
12707TIP3    H159536   5.764   3.543   2.658  0.1004 -0.4216 -1.0500
12707TIP3    H259537   5.853   3.642   2.586 -0.2357  1.3144  0.8234
12708TIP3   OH259538   0.943   4.043   0.123 -0.1173  0.2288  0.2190
12708TIP3    H159539   0.871   4.008   0.070  0.3140  1.6559 -1.3972
12708TIP3    H259540   1.021   3.997   0.092 -0.0933 -0.1584  0.8382
12709TIP3   OH259541   2.742   3.136   6.047 -0.2862  0.2983 -0.4079
12709TIP3    H159542   2.736   3.049   6.007 -1.8649  0.4621 -0.6109
12709TIP3    H259543   2.720   3.121   6.139 -1.1294  0.5344 -0.5581
12710TIP3   OH259544   6.037   0.422  16.502 -0.1410 -0.0834  0.2417
12710TIP3    H159545   6.122   0.429  16.457 -0.6062  0.6824 -0.5532
12710TIP3    H259546   6.036   0.333  16.537  1.0187 -0.0787  0.3237
12711TIP3   OH259547   3.841   0.262  11.998 -0.2588  0.4750  0.1960
12711TIP3    H159548   3.775   0.199  11.970 -0.4134  0.2711  1.0022
12711TIP3    H259549   3.814   0.288  12.086  0.2743  1.0217  0.2076
12712TIP3   OH259550   3.268   1.931  14.930 -0.5124 -0.3148 -0.3403
12712TIP3    H159551   3.360   1.909  14.915 -0.4039  0.4300 -0.8603
12712TIP3    H259552   3.253   1.911  15.022 -1.4234 -5.9653 -1.3878
12713TIP3   OH259553   2.858   5.488  13.453 -0.1940  0.3515  0.2382
12713TIP3    H159554   2.884   5.525  13.537  1.1297 -0.2035  0.0932
12713TIP3    H259555   2.766   5.512  13.443 -0.1201  1.1693  1.4357
12714TIP3   OH259556   2.633   3.171   5.304 -0.0758 -0.1701  0.0399
12714TIP3    H159557   2.543   3.170   5.336 -0.2789  0.2002 -0.5010
12714TIP3    H259558   2.687   3.164   5.382 -0.5157  2.0137  0.6016
12715TIP3   OH259559   5.829   1.681   1.776  0.5904  0.3787  0.2444
12715TIP3    H159560   5.868   1.749   1.721  1.4408  1.0234  1.6105
12715TIP3    H259561   5.741   1.714   1.795  0.0882 -0.1075 -1.1493
12716TIP3   OH259562   5.290   6.319  17.339  0.1601 -0.1013  0.1349
12716TIP3    H159563   5.199   6.289  17.349 -0.2915  1.4349  0.9016
12716TIP3    H259564   5.295   6.397  17.393  1.7143  0.3399 -0.6100
12717TIP3   OH259565   6.646   6.404  16.268  0.3851  0.3841  0.3215
12717TIP3    H159566   6.652   6.464  16.194  0.4955 -0.9711 -0.8149
12717TIP3    H259567   6.552   6.395  16.284  0.3021 -0.3408 -0.5384
12718TIP3   OH259568   5.194   0.946   3.196 -0.5213  0.1067  0.0253
12718TIP3    H159569   5.114   0.994   3.176 -0.4560  0.1330 -0.1684
12718TIP3    H259570   5.179   0.859   3.159  0.5893  0.8606 -2.3816
12719TIP3   OH259571   4.918   2.607  14.736 -0.6815 -0.3674 -0.6955
12719TIP3    H159572   4.844   2.632  14.791  0.1401 -0.8315  0.6462
12719TIP3    H259573   4.954   2.690  14.706  0.3493  0.0407  1.4927
12720TIP3   OH259574   3.303   2.664  11.947 -0.1944 -0.4353  0.3277
12720TIP3    H159575   3.383   2.626  11.910 -0.3161  0.1998 -0.6288
12720TIP3    H259576   3.239   2.593  11.943  0.3204 -0.9590  1.1308
12721TIP3   OH259577   4.984   5.629   2.867 -0.0308 -0.4860 -0.2431
12721TIP3    H159578   5.028   5.648   2.784  0.1904  0.4121  0.0624
12721TIP3    H259579   4.891   5.643   2.848  0.0760  0.3635 -0.1834
12722TIP3   OH259580   4.727   0.223  15.778 -0.1716  0.1898  0.4492
12722TIP3    H159581   4.811   0.223  15.824 -0.6238 -0.8851  1.3408
12722TIP3    H259582   4.661   0.226  15.847 -0.8684 -0.5687 -0.1454
12723TIP3   OH259583   1.092   1.821  12.005 -0.0798  0.1974 -0.0577
12723TIP3    H159584   1.077   1.748  12.065  1.4725 -0.6186 -0.5864
12723TIP3    H259585   1.178   1.802  11.966  0.6654  2.6075  0.2194
12724TIP3   OH259586   3.182   0.034  15.971 -0.4206  0.5188 -0.0978
12724TIP3    H159587   3.159  -0.058  15.960  0.0526  0.5839 -2.1420
12724TIP3    H259588   3.226   0.057  15.889  2.2764  1.7545  1.5584
12725TIP3   OH259589   6.642   2.590  12.079  0.6467 -0.0975 -0.5366
12725TIP3    H159590   6.615   2.662  12.023 -2.0308 -1.5164 -1.2086
12725TIP3    H259591   6.687   2.528  12.021  1.4310  0.2122 -0.2838
12726TIP3   OH259592   0.884   4.977   0.315 -0.0773  0.2516 -0.7211
12726TIP3    H159593   0.933   4.943   0.240  1.1486  0.6989 -0.1499
12726TIP3    H259594   0.917   5.066   0.327  0.4465 -0.1283  0.9262
12727TIP3   OH259595   2.982   0.608   5.901 -0.1862 -0.0025  0.4243
12727TIP3    H159596   2.943   0.673   5.843 -3.3730 -2.8670 -1.0140
12727TIP3    H259597   2.944   0.626   5.987 -2.3873 -0.7789 -0.3035
12728TIP3   OH259598   3.730   0.686  14.503 -0.1052  0.1138 -0.2358
12728TIP3    H159599   3.825   0.695  14.506 -0.1227  0.1977  0.2622
12728TIP3    H259600   3.715   0.595  14.478  0.1230 -0.4133  1.3925
12729TIP3   OH259601   4.457   0.165   5.374 -0.2804  0.1379 -0.1326
12729TIP3    H159602   4.465   0.258   5.354 -1.9402  0.2106 -0.6605
12729TIP3    H259603   4.479   0.157   5.467 -2.6629  1.5329  0.6504
12730TIP3   OH259604   4.810   1.859  11.384  0.6300  0.4652  0.2300
12730TIP3    H159605   4.734   1.907  11.351  0.9469  0.8808  0.0974
12730TIP3    H259606   4.773   1.784  11.431  0.1038  1.2081  1.0315
12731TIP3   OH259607   0.875   1.465  10.751  0.1612 -0.0947 -0.8489
12731TIP3    H159608   0.916   1.546  10.720  0.2967  0.4137  0.6019
12731TIP3    H259609   0.928   1.396  10.711  1.9119  0.5464  0.2359
12732TIP3   OH259610   6.232   3.365  13.946  0.3751 -0.5762  0.0503
12732TIP3    H159611   6.147   3.348  13.906 -0.4108 -0.1619  1.5013
12732TIP3    H259612   6.281   3.412  13.878  0.2098 -2.5808 -1.5518
12733TIP3   OH259613   6.265   3.518  14.704  0.1054  0.3003 -0.3066
12733TIP3    H159614   6.334   3.565  14.752 -0.6636  0.2380  0.9217
12733TIP3    H259615   6.303   3.432  14.686 -0.8593 -1.2784  3.9110
12734TIP3   OH259616   6.454   0.622  13.653 -0.0031 -0.4545  0.2507
12734TIP3    H159617   6.501   0.541  13.674  2.1628  0.2410 -1.5344
12734TIP3    H259618   6.489   0.649  13.568 -1.3885  1.8530  0.3278
12735TIP3   OH259619   2.589   4.912   0.843 -0.2130  0.4731  0.0658
12735TIP3    H159620   2.661   4.848   0.850 -0.3505  0.3873  0.8566
12735TIP3    H259621   2.538   4.883   0.768 -0.1259 -0.2018  0.2611
12736TIP3   OH259622   0.856   4.416  16.841 -0.5675  0.2507 -0.4909
12736TIP3    H159623   0.814   4.501  16.857  1.7647  1.0847  1.8361
12736TIP3    H259624   0.932   4.436  16.786 -0.7661 -0.5817 -1.0934
12737TIP3   OH259625   5.701   0.508   4.641  0.4767 -0.4888  0.7110
12737TIP3    H159626   5.656   0.524   4.558  0.7859 -0.3498  0.5708
12737TIP3    H259627   5.690   0.589   4.691  1.3021 -0.1416  0.3400
12738TIP3   OH259628   0.068   5.045  14.670 -0.9201  0.2374 -0.0640
12738TIP3    H159629   0.101   5.134  14.670  1.1693 -0.4435 -1.5728
12738TIP3    H259630   0.007   5.042  14.597 -0.0238  0.1539 -0.8294
12739TIP3   OH259631   0.324   4.717   3.745 -0.2825  0.2380 -0.1557
12739TIP3    H159632   0.298   4.808   3.758 -0.9955  0.0738 -0.3829
12739TIP3    H259633   0.268   4.668   3.805 -0.3190 -0.0996 -0.4638
12740TIP3   OH259634   4.759   5.795  15.759  0.3611  0.2909 -0.5965
12740TIP3    H159635   4.759   5.713  15.807  0.2000 -0.2504 -1.4978
12740TIP3    H259636   4.791   5.860  15.822 -1.0157 -0.1619  0.6095
12741TIP3   OH259637   0.079   0.330   1.238  0.1033  0.1866 -0.0420
12741TIP3    H159638   0.049   0.332   1.147 -0.6685  0.5217  0.2080
12741TIP3    H259639  -0.001   0.313   1.289  0.5854 -0.3529  0.5489
12742TIP3   OH259640   5.053   4.061  13.200  0.2206  0.0821  0.3696
12742TIP3    H159641   4.987   4.131  13.194 -0.6675 -0.8080 -0.5914
12742TIP3    H259642   5.119   4.085  13.134 -0.1008  0.0064  0.0163
12743TIP3   OH259643   3.152   4.302  13.934 -0.0779 -0.5432 -0.5871
12743TIP3    H159644   3.221   4.330  13.995 -0.9459  0.3011  0.0431
12743TIP3    H259645   3.184   4.219  13.898  1.7785  0.3712 -1.1746
12744TIP3   OH259646   4.388   4.076   1.346  0.5904  0.8556  0.4214
12744TIP3    H159647   4.428   3.991   1.363  0.7323  1.0412  1.0513
12744TIP3    H259648   4.334   4.094   1.423 -0.7391  0.6080 -0.4208
12745TIP3   OH259649   2.553   1.844  15.248  0.1550 -0.0149 -0.3605
12745TIP3    H159650   2.551   1.864  15.342  2.1075  1.9997 -0.6609
12745TIP3    H259651   2.548   1.749  15.244  0.6917 -0.2013  1.8359
12746TIP3   OH259652   5.160   6.494  15.167  0.1437 -0.3242 -0.3252
12746TIP3    H159653   5.140   6.479  15.259 -0.0478 -0.6390 -0.4156
12746TIP3    H259654   5.114   6.576  15.146 -0.0697 -0.4163 -0.2223
12747TIP3   OH259655   1.916   1.003   0.178  0.5102  0.3635 -0.5282
12747TIP3    H159656   1.902   1.036   0.267  0.0960  1.5824 -1.0274
12747TIP3    H259657   2.010   1.008   0.165  0.6624 -0.5443  0.0974
12748TIP3   OH259658   0.515   4.723   4.141 -0.3844 -0.1140 -0.0565
12748TIP3    H159659   0.565   4.660   4.193  0.9922  1.0564  0.0731
12748TIP3    H259660   0.527   4.693   4.051  0.5566  0.1590 -0.0261
12749TIP3   OH259661   3.439   0.330  10.694  0.1903 -0.7507  0.0520
12749TIP3    H159662   3.483   0.256  10.736  1.1282 -0.1955  0.0662
12749TIP3    H259663   3.352   0.296  10.672  0.4308 -1.7037  0.5014
12750TIP3   OH259664   4.847   0.694   5.728 -0.2977 -0.2962 -0.1100
12750TIP3    H159665   4.834   0.733   5.642  1.1613  1.4491  0.4196
12750TIP3    H259666   4.929   0.645   5.721 -0.5332 -0.7366  0.1116
12751TIP3   OH259667   3.446   4.216  12.748 -0.4060  0.1487 -0.7956
12751TIP3    H159668   3.537   4.243  12.737 -0.9841  2.2061 -0.9498
12751TIP3    H259669   3.433   4.214  12.843 -0.7038  1.7644 -0.7889
12752TIP3   OH259670   3.160   1.106  15.017 -1.0299  0.0936 -0.0005
12752TIP3    H159671   3.108   1.175  15.058  1.8263  1.2416  1.9989
12752TIP3    H259672   3.249   1.141  15.015  0.1155 -2.6000 -1.1940
12753TIP3   OH259673   4.802   0.015  15.187  0.6790 -0.0362 -0.4545
12753TIP3    H159674   4.804   0.104  15.151  0.9365  1.1653  2.2693
12753TIP3    H259675   4.737  -0.031  15.133 -0.4042  2.1754 -1.1671
12754TIP3   OH259676   4.685   6.272   1.838  0.1798 -0.1344 -0.5955
12754TIP3    H159677   4.594   6.292   1.816  0.6306  0.4548 -2.0939
12754TIP3    H259678   4.694   6.178   1.819 -0.0471 -0.1297 -0.7354
12755TIP3   OH259679   4.709   1.287  10.516 -0.1859 -0.4589 -0.4403
12755TIP3    H159680   4.698   1.360  10.455  1.4041 -0.7313 -1.0993
12755TIP3    H259681   4.796   1.300  10.553  0.5307 -2.4862 -1.2571
12756TIP3   OH259682   5.363   4.089  13.159  0.0904 -0.1830  0.7296
12756TIP3    H159683   5.446   4.093  13.207  1.1662 -0.2817 -1.0145
12756TIP3    H259684   5.377   4.145  13.083 -1.8182  0.5700  0.8791
12757TIP3   OH259685   5.207   2.038  12.112 -0.1617 -0.2594 -0.2661
12757TIP3    H159686   5.122   2.061  12.075  1.0268  0.1520 -2.9648
12757TIP3    H259687   5.240   2.119  12.150 -0.8880 -0.4008  0.7165
12758TIP3   OH259688   5.099   5.188   3.223 -0.0951  0.2351 -0.4890
12758TIP3    H159689   5.155   5.111   3.224 -3.3318 -2.3363  0.4952
12758TIP3    H259690   5.113   5.227   3.137  2.7195 -0.5211 -0.4544
12759TIP3   OH259691   6.241   1.150  10.619 -0.4751  0.0403 -0.9986
12759TIP3    H159692   6.242   1.221  10.556 -0.5748  0.6406 -0.3330
12759TIP3    H259693   6.255   1.192  10.704  0.6969 -0.8574 -0.7143
12760TIP3   OH259694   1.830   4.627   0.227  0.1431 -0.3756 -0.1019
12760TIP3    H159695   1.788   4.587   0.303  1.0979 -1.6858 -0.2406
12760TIP3    H259696   1.865   4.554   0.177 -2.5767  0.2304 -3.1690
12761TIP3   OH259697   1.653   1.005   6.295  0.5234 -0.6688  0.4771
12761TIP3    H159698   1.600   0.992   6.373  0.2676 -2.6778  0.0266
12761TIP3    H259699   1.727   0.945   6.305  3.0699  2.3666  1.2860
12762TIP3   OH259700   5.798   5.499  17.285 -0.1048  0.3421 -0.2398
12762TIP3    H159701   5.809   5.408  17.312  0.4919  0.0237 -1.4728
12762TIP3    H259702   5.706   5.507  17.262 -1.0214  1.0060  3.0668
12763TIP3   OH259703   0.606   2.516  12.945 -0.1164  0.2239  0.2932
12763TIP3    H159704   0.510   2.520  12.943 -0.0967  0.9271 -1.6939
12763TIP3    H259705   0.628   2.455  12.875  0.9029  0.5722  0.3005
12764TIP3   OH259706   2.355   2.375   3.516  0.3605  0.2874  0.2826
12764TIP3    H159707   2.374   2.307   3.451  1.8586  2.4834 -1.7101
12764TIP3    H259708   2.367   2.457   3.470  0.1896  1.9748  3.0198
12765TIP3   OH259709   2.368   1.919  16.265 -0.7094  0.0821 -0.0458
12765TIP3    H159710   2.394   1.902  16.174 -0.3283 -1.2171  0.2808
12765TIP3    H259711   2.278   1.887  16.271 -0.8596  0.4957 -0.0480
12766TIP3   OH259712   5.975   5.014   4.511  0.2575 -0.0574 -0.1058
12766TIP3    H159713   5.900   4.956   4.523  0.6125 -0.6381 -0.6344
12766TIP3    H259714   6.020   4.980   4.434  1.1927  0.1469  0.3302
12767TIP3   OH259715   4.981   0.875  11.407  0.7015 -0.0525 -0.2938
12767TIP3    H159716   5.070   0.900  11.432  0.9052 -1.2906  0.3141
12767TIP3    H259717   4.925   0.942  11.448  1.3140  0.4132 -0.2014
12768TIP3   OH259718   5.837   6.452   1.978  0.3623  0.1319 -0.3145
12768TIP3    H159719   5.907   6.475   1.916 -0.0883  0.8806 -0.5630
12768TIP3    H259720   5.795   6.536   1.998 -0.4947 -0.3139 -0.2109
12769TIP3   OH259721   4.629   4.836   1.388 -0.1015  0.8979 -0.4506
12769TIP3    H159722   4.714   4.865   1.421  0.6534 -2.6620  1.1629
12769TIP3    H259723   4.571   4.840   1.464 -0.4308 -0.0360 -0.6444
12770TIP3   OH259724   5.694   3.697   6.006  0.6073 -0.3909  0.2414
12770TIP3    H159725   5.627   3.765   6.015  0.4917 -0.2100 -1.6545
12770TIP3    H259726   5.666   3.628   6.066  0.3772  0.9260  1.7201
12771TIP3   OH259727   0.309   4.905  15.439 -0.4775  0.2332  0.3044
12771TIP3    H159728   0.283   4.997  15.429 -1.1984  0.0330  0.2390
12771TIP3    H259729   0.343   4.900  15.529  0.3930  0.7469  0.0129
12772TIP3   OH259730   2.401   3.752   4.758  0.1458  0.3479 -0.1368
12772TIP3    H159731   2.433   3.684   4.816  0.5905  1.1296  0.5580
12772TIP3    H259732   2.426   3.723   4.670  1.4931  0.2397  0.2603
12773TIP3   OH259733   0.437   2.223   5.431  0.1044  0.2163 -0.5323
12773TIP3    H159734   0.462   2.264   5.348  0.2462 -1.4138 -1.3405
12773TIP3    H259735   0.466   2.285   5.498  1.6702  0.7299 -1.6195
12774TIP3   OH259736   1.229   2.337  15.289  0.0100 -0.3937  0.2114
12774TIP3    H159737   1.207   2.264  15.347 -1.3834  0.6727  1.1041
12774TIP3    H259738   1.220   2.415  15.344  0.7044  0.5203 -0.9085
12775TIP3   OH259739   4.155   2.764   4.281  0.0888 -0.0279 -0.0145
12775TIP3    H159740   4.103   2.747   4.203  0.0025 -0.1428  0.0673
12775TIP3    H259741   4.226   2.700   4.278  2.1357  2.1270 -1.8085
12776TIP3   OH259742   0.508   4.736  13.521 -0.0041  0.2057 -0.5743
12776TIP3    H159743   0.509   4.772  13.432 -0.7464  0.1690 -0.6048
12776TIP3    H259744   0.549   4.650  13.512 -1.2928 -0.3739 -1.1456
12777TIP3   OH259745   3.709   3.969  11.487  0.4081  0.2560  0.5550
12777TIP3    H159746   3.632   3.939  11.438  1.7606 -2.0514 -0.3270
12777TIP3    H259747   3.711   3.911  11.564  0.7096  0.9867  1.1026
12778TIP3   OH259748   6.018   3.676  12.055 -0.0759 -0.2852 -0.5113
12778TIP3    H159749   5.990   3.754  12.007  1.9656  0.7833 -0.0627
12778TIP3    H259750   6.057   3.710  12.135  0.8745 -1.7679 -0.3111
12779TIP3   OH259751   5.570   4.248  15.597  0.3502 -0.3644  0.1801
12779TIP3    H159752   5.641   4.223  15.537  1.1749 -0.3297  1.1158
12779TIP3    H259753   5.506   4.291  15.541  0.9067 -0.7094 -0.7503
12780TIP3   OH259754   5.697   1.715   5.770  0.0593 -0.3049 -0.1516
12780TIP3    H159755   5.755   1.720   5.847 -0.3172 -0.9642  0.1830
12780TIP3    H259756   5.609   1.714   5.808 -0.1262 -0.6602 -0.5973
12781TIP3   OH259757   3.459   0.311   0.280  0.2380  0.2146 -0.0897
12781TIP3    H159758   3.532   0.260   0.315 -0.7728 -1.5521 -0.4240
12781TIP3    H259759   3.464   0.298   0.185 -2.1786 -2.4423  0.0360
12782TIP3   OH259760   4.986   5.926  11.488  0.2504 -0.2761  0.3078
12782TIP3    H159761   4.958   6.006  11.532  0.0743 -0.1846  0.0310
12782TIP3    H259762   5.023   5.955  11.405 -1.5791 -0.6049 -0.6682
12783TIP3   OH259763   1.585   2.649  12.109  0.0236 -0.0924  0.5861
12783TIP3    H159764   1.572   2.696  12.192 -0.1498  0.7389  0.1042
12783TIP3    H259765   1.552   2.561  12.126 -1.4826  0.5139  0.9461
12784TIP3   OH259766   5.502   3.620  17.331 -0.5401 -0.7330  0.3278
12784TIP3    H159767   5.509   3.716  17.331  0.6583 -0.7080  3.6437
12784TIP3    H259768   5.423   3.603  17.279 -0.1912  1.9286 -1.2990
12785TIP3   OH259769   4.872   1.061   2.096  0.0520  0.3095  0.2638
12785TIP3    H159770   4.820   0.983   2.119  1.7222 -1.0444 -0.3411
12785TIP3    H259771   4.904   1.093   2.180 -0.3290  0.1126  0.4883
12786TIP3   OH259772   0.664   2.705  11.922  0.7674 -0.0801 -0.0614
12786TIP3    H159773   0.641   2.654  11.845  0.9664  1.0412 -0.8919
12786TIP3    H259774   0.755   2.680  11.940  1.0087  0.2856 -0.7276
12787TIP3   OH259775   2.413   3.264  14.673  0.0169 -0.5543 -0.4828
12787TIP3    H159776   2.317   3.261  14.676 -0.0253 -0.0705 -1.0554
12787TIP3    H259777   2.434   3.357  14.683  0.4863 -0.7732  0.7045
12788TIP3   OH259778   5.268   5.131  11.931 -0.2232 -0.3345 -0.1046
12788TIP3    H159779   5.293   5.191  12.001 -0.9842  0.7081 -0.7024
12788TIP3    H259780   5.294   5.176  11.851 -1.8151 -0.2793 -0.6216
12789TIP3   OH259781   6.119   2.371  15.915  0.4024 -0.5792  0.2671
12789TIP3    H159782   6.090   2.374  16.006  0.0987 -0.4316  0.1671
12789TIP3    H259783   6.126   2.463  15.889 -1.2216 -0.6146 -0.3900
12790TIP3   OH259784   4.217   4.206   5.217  0.5713 -0.0823  0.1475
12790TIP3    H159785   4.261   4.175   5.138  0.4334  0.9821 -0.3597
12790TIP3    H259786   4.271   4.174   5.289  0.6287 -1.1729 -0.3572
12791TIP3   OH259787   5.306   0.142  16.947  0.1553 -0.1546  0.4872
12791TIP3    H159788   5.357   0.162  16.868 -1.2762 -2.2824 -1.0863
12791TIP3    H259789   5.305   0.047  16.953 -1.1428 -0.0983  2.1607
12792TIP3   OH259790   5.061   4.028  10.934 -0.1375  0.2155  0.0410
12792TIP3    H159791   5.058   4.039  10.839 -2.1013 -0.2399  0.0100
12792TIP3    H259792   5.143   4.068  10.960  1.7798 -1.9735 -2.1285
12793TIP3   OH259793   4.591   5.990   5.385  0.1970  0.1048  0.1193
12793TIP3    H159794   4.624   5.949   5.464 -0.2314 -0.2220  0.1322
12793TIP3    H259795   4.503   5.953   5.374  0.0929  0.4667 -0.2714
12794TIP3   OH259796   6.000   6.237   2.591  0.2694 -0.3563  0.2301
12794TIP3    H159797   5.919   6.281   2.566 -0.1577 -0.6041  1.1637
12794TIP3    H259798   6.051   6.304   2.636  0.8765 -0.0171 -0.9309
12795TIP3   OH259799   6.633   0.506  16.605  0.3710 -0.5892 -0.7657
12795TIP3    H159800   6.699   0.539  16.667 -1.1919  1.7824 -0.2457
12795TIP3    H259801   6.670   0.526  16.519 -0.2146  2.1484 -0.4745
12796TIP3   OH259802   0.013   0.981  15.464 -0.2007 -0.0213  0.6203
12796TIP3    H159803  -0.076   1.015  15.457 -0.1377  0.0651  0.1886
12796TIP3    H259804   0.007   0.909  15.526 -1.1545 -1.9119 -1.5001
12797TIP3   OH259805   5.066   2.712   3.139  0.0258 -0.4128 -0.3386
12797TIP3    H159806   5.115   2.760   3.206 -0.3753 -0.4034 -0.0497
12797TIP3    H259807   5.108   2.736   3.057  0.8291 -0.7910 -0.0508
12798TIP3   OH259808   5.634   4.476   3.416  0.5044 -0.3941  0.4848
12798TIP3    H159809   5.627   4.535   3.341 -0.3184 -0.8420  0.2026
12798TIP3    H259810   5.727   4.451   3.418  1.0235  1.4314  1.0297
12799TIP3   OH259811   3.538   6.260  12.067  0.1523  0.3733  0.0496
12799TIP3    H159812   3.543   6.324  11.996 -0.2485 -1.0453 -1.3344
12799TIP3    H259813   3.449   6.226  12.062  0.6305 -0.9408  0.1424
12800TIP3   OH259814   0.701   4.264  14.871  0.3395  0.3006  0.4240
12800TIP3    H159815   0.795   4.255  14.855  0.3495 -1.3433  1.2216
12800TIP3    H259816   0.690   4.353  14.902  1.0987  1.7921 -3.0700
12801TIP3   OH259817   4.243   2.284  14.256  0.3853 -0.3588 -0.3870
12801TIP3    H159818   4.156   2.252  14.278  0.6130 -0.3019  0.6648
12801TIP3    H259819   4.303   2.220  14.294  0.8111 -0.0858 -0.5818
12802TIP3   OH259820   1.259   1.811  15.316  0.3160  0.3963  0.4318
12802TIP3    H159821   1.309   1.760  15.252 -0.1372 -0.4813  0.7623
12802TIP3    H259822   1.169   1.779  15.308  0.0296  1.1008  0.7004
12803TIP3   OH259823   5.034   1.322  14.996 -0.0996  0.3904  0.1446
12803TIP3    H159824   4.988   1.325  15.080 -0.0945 -1.1644  0.2270
12803TIP3    H259825   4.965   1.305  14.932 -0.0513  1.1970 -0.1279
12804TIP3   OH259826   5.261   0.652  11.442  0.0877  0.1473 -0.1553
12804TIP3    H159827   5.279   0.716  11.373 -0.4497 -0.2960 -0.7149
12804TIP3    H259828   5.339   0.596  11.444  0.3222  0.4755 -0.0486
12805TIP3   OH259829   3.570   6.151   5.980 -0.2680  0.1218  0.6448
12805TIP3    H159830   3.560   6.219   5.913 -0.7177 -0.6534 -0.1071
12805TIP3    H259831   3.481   6.130   6.006 -0.3671 -2.0372 -1.1091
12806TIP3   OH259832   1.131   3.036  12.100  0.2262  0.1915  0.3036
12806TIP3    H159833   1.118   3.096  12.174 -0.1525  0.7900 -0.2401
12806TIP3    H259834   1.043   3.002  12.081  0.3030  0.1364  0.0464
12807TIP3   OH259835   0.007   2.635   6.258 -0.0083 -0.4395 -0.2624
12807TIP3    H159836  -0.052   2.676   6.322 -0.0140 -1.0493  0.1253
12807TIP3    H259837  -0.039   2.556   6.230  0.4542 -0.7145 -0.2476
12808TIP3   OH259838   4.832   3.168  16.027 -0.0041 -0.1047  0.6525
12808TIP3    H159839   4.783   3.197  15.950 -0.0190  1.9996  1.3881
12808TIP3    H259840   4.890   3.099  15.994 -1.7129 -0.9535 -0.7240
12809TIP3   OH259841   3.506   6.068   3.435 -0.6491 -0.5374 -0.5155
12809TIP3    H159842   3.419   6.073   3.395 -0.9245  1.9642  0.2796
12809TIP3    H259843   3.490   6.034   3.523 -0.4044 -2.9682 -1.3338
12810TIP3   OH259844   4.446   2.717  12.305 -0.2464 -0.1382 -0.1070
12810TIP3    H159845   4.499   2.637  12.300  0.1465  0.1875 -1.7013
12810TIP3    H259846   4.362   2.688  12.339 -1.1690 -1.8730 -3.4422
12811TIP3   OH259847   4.301   2.590   3.121 -0.2105  0.4280 -0.4808
12811TIP3    H159848   4.222   2.559   3.076 -0.1042 -3.4859  1.5565
12811TIP3    H259849   4.285   2.571   3.213  2.3741  1.3195  0.2377
12812TIP3   OH259850   4.951   0.874   6.478  0.2923  0.2437  0.1900
12812TIP3    H159851   4.879   0.915   6.431  1.6957  0.9859 -1.4012
12812TIP3    H259852   4.921   0.785   6.496 -0.2109 -0.1714 -2.3970
12813TIP3   OH259853   3.130   2.521   4.796 -0.2859 -0.0105  0.2158
12813TIP3    H159854   3.055   2.506   4.854 -1.3482  0.7679 -0.8993
12813TIP3    H259855   3.181   2.590   4.840  0.9178 -1.9086  1.9623
12814TIP3   OH259856   3.207   0.677  11.756  0.0897 -0.4328  0.6801
12814TIP3    H159857   3.293   0.714  11.773 -0.5486  1.5508 -0.0754
12814TIP3    H259858   3.148   0.721  11.817 -1.0345  1.5360 -1.6051
12815TIP3   OH259859   1.675   3.920  16.695 -0.3848  0.0548 -0.4514
12815TIP3    H159860   1.598   3.977  16.698 -1.0506 -0.8691  0.9114
12815TIP3    H259861   1.730   3.950  16.768 -1.7081 -2.2874  1.6293
12816TIP3   OH259862   4.948   3.496  14.852 -0.2718 -0.0216  0.0853
12816TIP3    H159863   4.917   3.488  14.942  0.5282 -1.1036  0.2866
12816TIP3    H259864   4.887   3.444  14.800 -1.4296  1.5571 -0.1958
12817TIP3   OH259865   4.712   1.354  16.629 -0.3666  0.1727  0.1866
12817TIP3    H159866   4.779   1.298  16.669  0.5256  0.5010 -0.8085
12817TIP3    H259867   4.759   1.402  16.562 -1.8078 -0.2892 -1.2000
12818TIP3   OH259868   6.035   3.877  12.518  0.2168 -0.7432  0.0620
12818TIP3    H159869   6.055   3.851  12.608  3.0388  0.8382 -0.0070
12818TIP3    H259870   6.094   3.951  12.501 -1.6088  0.2626 -2.4625
12819TIP3   OH259871   1.865   4.854  14.216  0.3838 -0.0263  0.2255
12819TIP3    H159872   1.797   4.788  14.205  1.3029 -0.7573 -1.5197
12819TIP3    H259873   1.841   4.923  14.153 -0.1021  0.9290  1.4229
12820TIP3   OH259874   2.087   3.637   0.255 -0.6122  0.3804  0.3738
12820TIP3    H159875   2.128   3.556   0.285 -0.7171  0.3769  0.5083
12820TIP3    H259876   2.125   3.705   0.311 -0.2128  0.4821 -0.0142
12821TIP3   OH259877   3.810   2.707   1.356  0.3706 -0.4509  0.0898
12821TIP3    H159878   3.738   2.752   1.310  0.4929  0.8958  1.1570
12821TIP3    H259879   3.876   2.775   1.370  1.7865 -1.6101 -0.6488
12822TIP3   OH259880   2.989   2.309   5.304 -0.6288  0.2548  0.4178
12822TIP3    H159881   3.043   2.337   5.230  0.0060 -2.1308 -0.1351
12822TIP3    H259882   2.900   2.311   5.271 -0.6187  1.6744  0.4529
12823TIP3   OH259883   1.538   6.705  12.053 -0.2867 -0.1959  0.8414
12823TIP3    H159884   1.519   6.794  12.021  2.1029  0.8660  2.1436
12823TIP3    H259885   1.476   6.649  12.005 -1.7592  2.1175 -0.1501
12824TIP3   OH259886   2.161   1.350  16.703  0.1702 -0.4628  0.6367
12824TIP3    H159887   2.223   1.387  16.640  0.9072 -1.3362  0.8226
12824TIP3    H259888   2.194   1.380  16.788  0.5393 -1.1878  0.7593
12825TIP3   OH259889   4.772   2.849   2.233 -1.0530 -0.1204  0.0062
12825TIP3    H159890   4.789   2.930   2.185 -1.6478  0.3174  0.5338
12825TIP3    H259891   4.774   2.781   2.165 -0.0547  0.2557 -0.3700
12826TIP3   OH259892   6.270   4.370  16.977 -0.2054 -0.0757  0.0950
12826TIP3    H159893   6.300   4.346  17.065  0.4561 -0.1350 -0.1385
12826TIP3    H259894   6.217   4.448  16.990  1.8472  1.3635  0.2964
12827TIP3   OH259895   6.158   3.544  13.230 -0.0492 -0.7694 -0.1093
12827TIP3    H159896   6.192   3.513  13.314 -1.3970 -3.3328 -0.3973
12827TIP3    H259897   6.222   3.512  13.166 -0.1345 -0.6947 -0.2316
12828TIP3   OH259898   0.762   0.392   3.850  0.7012 -0.3090 -0.3725
12828TIP3    H159899   0.833   0.335   3.879  1.7374  0.5959 -1.0489
12828TIP3    H259900   0.793   0.481   3.871 -1.5351  0.0276  2.1766
12829TIP3   OH259901   2.812   2.412  13.841  0.1037  0.9571 -0.1798
12829TIP3    H159902   2.849   2.444  13.923 -0.5318  1.6894 -0.1645
12829TIP3    H259903   2.751   2.343  13.869 -0.0205  1.1197 -0.0444
12830TIP3   OH259904   4.037   3.622  11.846 -0.1617  0.1818  0.6349
12830TIP3    H159905   3.992   3.699  11.880  0.8590  1.3317 -0.4949
12830TIP3    H259906   4.130   3.641  11.856  0.1564 -0.0300 -1.3839
12831TIP3   OH259907   3.880   0.054   0.635 -0.2253  0.1595  0.0665
12831TIP3    H159908   3.805   0.042   0.693 -1.3945  0.2154 -1.3702
12831TIP3    H259909   3.852   0.016   0.552  1.5087 -0.1799 -0.3962
12832TIP3   OH259910   2.623   4.641  14.001 -0.2610  0.1870  0.4266
12832TIP3    H159911   2.688   4.679  14.060 -0.1605  1.1832 -0.3042
12832TIP3    H259912   2.560   4.712  13.986  0.1856  0.2543 -1.3486
12833TIP3   OH259913   3.617   0.343   2.242 -0.7206  0.2962  0.2940
12833TIP3    H159914   3.540   0.383   2.201  0.2721  0.9636 -1.0038
12833TIP3    H259915   3.673   0.318   2.169  0.5980  0.4385  1.2163
12834TIP3   OH259916   5.029   2.355  11.221 -0.0189  0.4407 -0.4355
12834TIP3    H159917   5.067   2.411  11.289 -0.7480 -0.0514  0.4061
12834TIP3    H259918   5.095   2.288  11.205 -0.4267 -0.3182  0.8974
12835TIP3   OH259919   4.556   3.898  16.175 -0.2128  0.4105 -0.0784
12835TIP3    H159920   4.475   3.911  16.223  0.0743 -0.3967  0.6480
12835TIP3    H259921   4.618   3.959  16.215  0.3512 -1.0714  1.4187
12836TIP3   OH259922   0.494   3.374  16.097  0.1185  0.0753 -0.3864
12836TIP3    H159923   0.530   3.297  16.051  0.6065 -0.3210  0.6275
12836TIP3    H259924   0.403   3.351  16.113  0.0750  0.0084 -0.7228
12837TIP3   OH259925   2.566   5.385  15.597 -1.1861 -0.4222 -0.3554
12837TIP3    H159926   2.659   5.379  15.618 -1.4767  0.1035  1.2265
12837TIP3    H259927   2.530   5.301  15.624 -1.3709 -0.1492  0.2837
12838TIP3   OH259928   5.365   5.008   5.914 -0.0145  0.2734 -0.0044
12838TIP3    H159929   5.327   4.934   5.961  0.6825  0.4556  0.8837
12838TIP3    H259930   5.292   5.066   5.896 -1.0557 -1.7078 -2.9206
12839TIP3   OH259931   5.349   1.969   5.216  0.4294 -0.3489 -0.1942
12839TIP3    H159932   5.264   1.994   5.254  0.5345 -1.3408  0.7578
12839TIP3    H259933   5.413   2.013   5.272  0.5820  1.6145 -1.7918
12840TIP3   OH259934   6.240   3.962  14.186 -0.5547  0.2136 -0.2665
12840TIP3    H159935   6.155   4.004  14.178  0.1319  1.6828 -0.1525
12840TIP3    H259936   6.300   4.022  14.142  0.6509 -0.0285  0.9928
12841TIP3   OH259937   4.517   4.928   2.116  0.0993 -0.3339 -0.1040
12841TIP3    H159938   4.454   4.943   2.187 -0.1314  0.0269 -0.3829
12841TIP3    H259939   4.503   5.001   2.056 -0.1649 -0.9891 -0.8545
12842TIP3   OH259940   2.337   1.069   6.362 -0.2555  0.1412 -0.3075
12842TIP3    H159941   2.317   1.153   6.402  0.6305  0.2607 -0.0972
12842TIP3    H259942   2.252   1.026   6.353 -0.5447  0.3723  1.1298
12843TIP3   OH259943   5.611   3.751  14.726 -0.2206  0.1898 -0.4706
12843TIP3    H159944   5.699   3.735  14.760 -0.4920 -1.9024 -0.5957
12843TIP3    H259945   5.580   3.664  14.700 -2.4180  0.8527 -0.2143
12844TIP3   OH259946   1.394   0.362   3.992 -0.1030  0.3967  0.0278
12844TIP3    H159947   1.322   0.306   3.963 -0.1730  0.1432  0.6716
12844TIP3    H259948   1.355   0.450   3.997 -0.9946 -0.0529  2.4189
12845TIP3   OH259949   4.692   2.832  17.069 -0.4426 -0.5429  0.5270
12845TIP3    H159950   4.772   2.784  17.047 -0.6931 -0.7963  0.1507
12845TIP3    H259951   4.692   2.837  17.165  1.3193  1.6794  0.4764
12846TIP3   OH259952   6.720   4.273  16.618 -0.0675 -0.3699 -0.6787
12846TIP3    H159953   6.660   4.252  16.690 -0.2738  0.3636 -0.6253
12846TIP3    H259954   6.666   4.267  16.540 -0.2483  0.4017 -0.6212
12847TIP3   OH259955   3.400   3.765  17.192 -1.1548  0.2554  0.6614
12847TIP3    H159956   3.394   3.824  17.267 -0.6944 -1.0467  1.7687
12847TIP3    H259957   3.309   3.742  17.173 -1.2489  0.0586  1.2949
12848TIP3   OH259958   3.643   1.789   1.153 -0.0150  0.2343 -0.4571
12848TIP3    H159959   3.601   1.875   1.152 -1.6890 -0.5542 -1.3679
12848TIP3    H259960   3.653   1.767   1.060 -1.4788 -1.4076 -0.2644
12849TIP3   OH259961   6.545   4.585  12.965 -0.0771 -0.5333  0.2651
12849TIP3    H159962   6.571   4.668  13.006  0.7337  0.1022 -1.4605
12849TIP3    H259963   6.542   4.523  13.038  1.5177  0.4925  1.2678
12850TIP3   OH259964   0.789   5.341   5.552 -0.3531 -0.0827  0.5385
12850TIP3    H159965   0.862   5.359   5.612 -0.0197  1.1347 -0.2059
12850TIP3    H259966   0.711   5.366   5.601 -0.1106  0.5870  0.5896
12851TIP3   OH259967   3.226   1.829   0.265  0.0052 -0.0078 -0.2056
12851TIP3    H159968   3.235   1.923   0.249  1.6723 -0.1450 -0.2220
12851TIP3    H259969   3.273   1.813   0.346  0.6820 -0.9893 -0.7641
12852TIP3   OH259970   4.136   4.822  13.478 -0.1332  0.1402 -0.3499
12852TIP3    H159971   4.067   4.768  13.517  1.0149  1.4129  4.0216
12852TIP3    H259972   4.202   4.760  13.449  0.3347 -1.0657  2.8627
12853TIP3   OH259973   3.786   2.827  15.511 -1.2203 -0.0151  0.2499
12853TIP3    H159974   3.852   2.892  15.487 -2.1375  0.6795 -0.4750
12853TIP3    H259975   3.752   2.795  15.428 -0.7089 -1.5322  0.5960
12854TIP3   OH259976   4.091   3.257  16.791 -0.2444 -0.2160  0.0070
12854TIP3    H159977   4.122   3.328  16.847 -1.5646  0.4747 -0.1018
12854TIP3    H259978   4.072   3.300  16.707  0.3118 -0.9723 -0.5198
12855TIP3   OH259979   2.783   6.541   1.216  0.1901 -0.5373  0.1845
12855TIP3    H159980   2.753   6.577   1.133 -2.2093 -1.5281  0.5272
12855TIP3    H259981   2.706   6.496   1.251  1.0262  0.0933  3.0917
12856TIP3   OH259982   1.309   6.380   0.045  0.6550 -0.3273 -0.4540
12856TIP3    H159983   1.299   6.293   0.006  1.7279 -1.0177  0.7109
12856TIP3    H259984   1.356   6.431  -0.021 -0.5820 -0.4059 -1.4213
12857TIP3   OH259985   2.111   1.187   5.569 -0.4301  0.0781  0.2654
12857TIP3    H159986   2.054   1.110   5.576 -0.1182 -0.0444  1.7337
12857TIP3    H259987   2.103   1.231   5.654  0.6658  0.7743  0.0321
12858TIP3   OH259988   6.601   6.104   2.095 -0.3806 -0.0351 -0.3515
12858TIP3    H159989   6.544   6.112   2.172  0.5962 -2.2075  0.6572
12858TIP3    H259990   6.540   6.104   2.021 -1.4636  0.3970  0.4993
12859TIP3   OH259991   2.442   3.340  16.487  0.1598 -0.2952  0.1882
12859TIP3    H159992   2.400   3.408  16.540 -0.3491  0.3234 -0.9832
12859TIP3    H259993   2.374   3.275  16.473  0.2907 -0.4527  0.2817
12860TIP3   OH259994   0.633   3.080  12.222 -0.5685 -0.4882 -0.0038
12860TIP3    H159995   0.573   3.012  12.190 -0.3985  0.1139 -1.6884
12860TIP3    H259996   0.720   3.046  12.201 -0.3491 -0.8091  1.3372
12861TIP3   OH259997   0.034   4.495  12.000  0.0201  0.0285  0.2427
12861TIP3    H159998   0.115   4.452  12.026  0.4167  0.8676  0.4167
12861TIP3    H259999   0.058   4.548  11.924 -0.6031 -0.5350 -0.3575
12862TIP3   OH260000   6.555   1.701   0.660  0.3025  0.5392  0.2507
12862TIP3    H160001   6.569   1.781   0.711 -1.3134  1.9532 -1.3887
12862TIP3    H260002   6.507   1.730   0.583  0.8678 -1.8332 -1.0849
12863TIP3   OH260003   4.366   1.620  10.935  0.1052 -0.6422  0.2725
12863TIP3    H160004   4.314   1.614  11.015  0.4943 -0.7389  0.5205
12863TIP3    H260005   4.456   1.601  10.963  0.7114  1.8925  0.3134
12864TIP3   OH260006   0.758   2.089  15.872 -0.0748  0.0700 -0.6169
12864TIP3    H160007   0.803   2.008  15.898 -1.5647 -1.2086 -1.7823
12864TIP3    H260008   0.672   2.081  15.913 -0.4932  0.7103 -1.3625
12865TIP3   OH260009   5.937   4.784  12.211 -0.1973 -0.3471 -0.0654
12865TIP3    H160010   5.870   4.747  12.153 -0.4416  1.7847 -1.2632
12865TIP3    H260011   5.997   4.711  12.228 -0.7686 -1.3663 -2.0504
12866TIP3   OH260012   2.771   3.772  15.222 -0.3976  0.3792  0.0388
12866TIP3    H160013   2.711   3.829  15.175  0.0766 -0.4652 -1.6905
12866TIP3    H260014   2.842   3.755  15.159  0.3431 -0.6959  1.1178
12867TIP3   OH260015   6.718   3.000   4.420  0.7103  0.3486 -0.0735
12867TIP3    H160016   6.683   3.089   4.414  1.1100  0.5500  0.4459
12867TIP3    H260017   6.703   2.975   4.511  2.7680  0.8228  0.4591
12868TIP3   OH260018   4.048   6.487   2.655  0.3232  0.0170  0.3211
12868TIP3    H160019   4.030   6.488   2.561  2.0935  1.7253 -0.0526
12868TIP3    H260020   4.075   6.397   2.673 -1.3866 -0.7096 -0.4744
12869TIP3   OH260021   2.348   2.436   4.883  0.4791  0.4662  0.0598
12869TIP3    H160022   2.417   2.377   4.915 -0.0452 -0.4695 -0.4828
12869TIP3    H260023   2.359   2.437   4.788  1.3171  2.3329  0.1341
12870TIP3   OH260024   5.689   5.630   6.353 -0.0539  0.2211 -0.2285
12870TIP3    H160025   5.667   5.543   6.321  0.6832  0.5803 -1.8033
12870TIP3    H260026   5.614   5.656   6.407 -0.0441 -1.5790  0.6960
12871TIP3   OH260027   5.204   5.314  10.691  0.3571  0.1889 -0.0975
12871TIP3    H160028   5.182   5.228  10.655 -0.4388  0.4105 -0.1556
12871TIP3    H260029   5.223   5.298  10.783 -1.1432  0.1330  0.2277
12872TIP3   OH260030   1.824   3.351  13.054  1.0297 -0.0110  0.3028
12872TIP3    H160031   1.819   3.327  13.147  0.7019 -0.0754  0.2679
12872TIP3    H260032   1.813   3.447  13.054  2.0698  0.1278  0.4182
12873TIP3   OH260033   1.577   0.312   5.852 -0.3573 -0.3368 -0.0464
12873TIP3    H160034   1.647   0.304   5.917  0.4875  0.5730 -0.8150
12873TIP3    H260035   1.514   0.244   5.876  0.2347 -0.4154  1.3463
12874TIP3   OH260036   6.709   2.416   2.577  0.2746 -0.0855  0.6655
12874TIP3    H160037   6.740   2.446   2.662  0.4482  0.7848  0.2980
12874TIP3    H260038   6.625   2.375   2.595 -0.2827  1.2081  1.0901
12875TIP3   OH260039   1.303   0.212   5.253 -0.2426 -0.1168 -0.5746
12875TIP3    H160040   1.263   0.133   5.217  0.1227 -0.3425 -0.4878
12875TIP3    H260041   1.323   0.190   5.344 -1.4938  0.5670 -0.0986
12876TIP3   OH260042   6.161   0.072   2.349  0.4973  0.2727 -0.4151
12876TIP3    H160043   6.132   0.012   2.418  0.1046 -0.3884 -1.1277
12876TIP3    H260044   6.255   0.082   2.363  0.4091  0.2060  0.2559
12877TIP3   OH260045   5.102   2.413   2.473 -0.3289  0.7166 -0.2542
12877TIP3    H160046   5.106   2.422   2.568 -1.2341 -1.3950  0.0548
12877TIP3    H260047   5.009   2.418   2.452 -0.1616  0.8888 -0.9822
12878TIP3   OH260048   5.103   6.543   6.084  0.4452  0.2594  0.5606
12878TIP3    H160049   5.181   6.500   6.050  0.3849  0.3282  0.3336
12878TIP3    H260050   5.113   6.539   6.179 -1.2047 -3.3602  0.7109
12879TIP3   OH260051   3.814   4.356  16.205  0.0852 -0.9154  0.4286
12879TIP3    H160052   3.817   4.407  16.286 -0.2123 -0.6990  0.3045
12879TIP3    H260053   3.760   4.408  16.145  0.4238 -1.0003  0.0406
12880TIP3   OH260054   4.430   5.923  17.385 -0.5271 -0.3172  0.3060
12880TIP3    H160055   4.504   5.865  17.364 -0.1288  0.8740 -1.9333
12880TIP3    H260056   4.464   5.981  17.453 -0.0175 -0.9400  0.5991
12881TIP3   OH260057   0.952   5.105  13.562  0.1473 -0.5713  0.0344
12881TIP3    H160058   0.943   5.193  13.600  3.5280  1.0012 -2.3458
12881TIP3    H260059   1.034   5.072  13.597  0.1556 -1.7330 -1.0132
12882TIP3   OH260060   1.081   2.546   0.802 -0.1354  0.5692 -0.3533
12882TIP3    H160061   1.143   2.480   0.772 -1.7822 -1.5539  0.7043
12882TIP3    H260062   1.103   2.624   0.750  2.8779 -0.2687 -0.5314
12883TIP3   OH260063   3.019   5.918  15.179  0.1722 -0.7211  0.3948
12883TIP3    H160064   3.047   5.951  15.265  0.7965 -1.3766  0.4524
12883TIP3    H260065   3.057   5.830  15.174  2.2955  0.1873 -1.5712
12884TIP3   OH260066   0.097   2.104  17.148 -0.0992  0.4371 -0.3750
12884TIP3    H160067   0.184   2.142  17.141  0.2962 -0.0197  1.4476
12884TIP3    H260068   0.072   2.117  17.240 -2.3902  1.4359 -1.0590
12885TIP3   OH260069   6.009   6.014   3.207  0.6276  1.7033 -0.2036
12885TIP3    H160070   6.032   5.931   3.165  1.0186  1.0467  1.2310
12885TIP3    H260071   5.949   5.990   3.277 -0.6837  2.8701 -0.8914
12886TIP3   OH260072   3.503   0.871   1.818  0.0633 -0.1738 -0.4552
12886TIP3    H160073   3.466   0.908   1.898  1.5761  1.0575 -0.2689
12886TIP3    H260074   3.462   0.921   1.747 -0.5329 -0.5738 -0.3893
12887TIP3   OH260075   0.928   3.138  17.001  0.2839 -0.0569  0.6811
12887TIP3    H160076   0.967   3.076  16.939  0.1048 -0.5216  1.0293
12887TIP3    H260077   0.912   3.086  17.080 -3.4402 -0.6400 -0.2318
12888TIP3   OH260078   0.984   0.265  11.689 -0.3614 -0.2164 -0.4174
12888TIP3    H160079   0.897   0.286  11.653 -0.9170  1.4391  1.6953
12888TIP3    H260080   0.977   0.288  11.781  2.4409  0.2543 -0.2567
12889TIP3   OH260081   3.202   3.727   0.820 -0.8889 -0.6812  0.4157
12889TIP3    H160082   3.290   3.748   0.851 -0.0238  0.8593 -2.6255
12889TIP3    H260083   3.150   3.805   0.840 -0.6594 -0.2196 -0.7108
12890TIP3   OH260084   3.371   3.680   4.200 -0.4297 -0.3831  0.4373
12890TIP3    H160085   3.346   3.761   4.155 -0.0715  0.2444  1.3294
12890TIP3    H260086   3.334   3.690   4.288  1.1276 -0.3842  1.1204
12891TIP3   OH260087   0.856   5.312  12.670  0.1293 -0.0967 -0.0860
12891TIP3    H160088   0.785   5.314  12.606 -1.8169 -1.1805  1.9205
12891TIP3    H260089   0.873   5.219  12.685  0.8153  0.1350  0.6572
12892TIP3   OH260090   0.416   1.329   1.688 -0.0407 -0.2397 -0.1529
12892TIP3    H160091   0.466   1.389   1.744  0.8307 -0.8180 -0.3031
12892TIP3    H260092   0.400   1.253   1.743  0.5873 -0.6991 -0.5939
12893TIP3   OH260093   0.237   2.760   2.107 -0.2748 -0.5448 -0.2992
12893TIP3    H160094   0.232   2.841   2.056 -0.4080  0.7420  1.6043
12893TIP3    H260095   0.159   2.763   2.162 -0.1028 -1.8168  0.0301
12894TIP3   OH260096   1.820   0.752   1.778  0.0032 -0.2811 -0.3833
12894TIP3    H160097   1.910   0.722   1.791 -0.2004  0.1378  2.6514
12894TIP3    H260098   1.828   0.835   1.732  0.9818 -1.3777 -2.3012
12895TIP3   OH260099   4.838   5.534  14.631  0.2019 -0.3727 -0.3891
12895TIP3    H160100   4.746   5.518  14.652  0.6533  0.0082  2.1885
12895TIP3    H260101   4.837   5.571  14.543 -1.9823 -1.5732 -0.9326
12896TIP3   OH260102   3.966   1.167   4.330 -0.6314 -0.3330  0.1277
12896TIP3    H160103   3.951   1.261   4.331 -0.1353 -0.2328  1.5582
12896TIP3    H260104   3.917   1.135   4.407 -1.0415 -1.2842 -0.5118
12897TIP3   OH260105   1.639   5.120  16.403 -0.5800 -0.2840 -0.2408
12897TIP3    H160106   1.586   5.167  16.338 -0.2927  2.8224  1.6059
12897TIP3    H260107   1.605   5.149  16.487  1.1598 -1.7390  1.0366
12898TIP3   OH260108   4.314   1.044  15.824 -0.2632  0.4109 -0.6954
12898TIP3    H160109   4.360   0.961  15.814 -0.9159 -0.4122  2.1995
12898TIP3    H260110   4.382   1.111  15.817  0.7665 -0.5569 -0.1557
12899TIP3   OH260111   4.557   4.292   0.510 -0.1748  0.4312 -0.1404
12899TIP3    H160112   4.543   4.327   0.598  0.7464  0.6578 -0.0674
12899TIP3    H260113   4.556   4.369   0.453 -1.5989  0.2007 -0.4525
12900TIP3   OH260114   0.234   6.281  14.788 -0.5466  0.0251 -0.6118
12900TIP3    H160115   0.319   6.326  14.794 -0.1515 -0.8442  1.1271
12900TIP3    H260116   0.173   6.349  14.759  0.5445  0.9294 -0.8930
12901TIP3   OH260117   3.968   0.646   2.018 -0.4579  0.1149  0.2824
12901TIP3    H160118   4.061   0.650   2.042 -0.4184 -2.2550  0.7665
12901TIP3    H260119   3.933   0.730   2.047  1.2727  0.5379  1.3378
12902TIP3   OH260120   4.605   1.172   1.627  0.5732  0.5630  0.3808
12902TIP3    H160121   4.520   1.158   1.668  0.6411  0.8184  0.6137
12902TIP3    H260122   4.614   1.267   1.624  1.2735  0.5411  1.2454
12903TIP3   OH260123   4.033   5.514   4.075 -0.0110  0.0517  0.6122
12903TIP3    H160124   4.094   5.560   4.017 -0.6338  1.4574  1.0197
12903TIP3    H260125   3.995   5.446   4.020 -1.0848  1.7647 -0.8941
12904TIP3   OH260126   4.584   4.288   1.327  0.1620 -0.2541  0.3331
12904TIP3    H160127   4.497   4.277   1.289  0.5043  0.3300 -0.6587
12904TIP3    H260128   4.644   4.290   1.252  1.1248 -1.3575  1.0314
12905TIP3   OH260129   0.091   5.971  11.623 -0.0129 -0.5208  0.4841
12905TIP3    H160130   0.063   5.912  11.693  0.7708 -0.6061  0.7329
12905TIP3    H260131   0.184   5.951  11.610 -0.6071 -2.1274 -2.1552
12906TIP3   OH260132   5.866   4.315   0.562 -0.6745  0.0700 -0.3711
12906TIP3    H160133   5.948   4.277   0.530  0.6997  2.3733  0.1816
12906TIP3    H260134   5.867   4.297   0.656 -0.5059  0.5607 -0.2740
12907TIP3   OH260135   5.883   4.125   4.643  0.1929  0.2702  0.0710
12907TIP3    H160136   5.849   4.120   4.554  0.3645  0.7395 -0.0228
12907TIP3    H260137   5.978   4.117   4.633  0.0958 -1.9810  0.4095
12908TIP3   OH260138   4.278   1.653   3.779  0.2016 -0.2231  0.1105
12908TIP3    H160139   4.288   1.694   3.865  1.1758  0.8887 -0.5136
12908TIP3    H260140   4.368   1.642   3.748 -0.0490 -2.2784 -0.0219
12909TIP3   OH260141   2.585   1.295   5.595  0.3755  0.2137  0.2104
12909TIP3    H160142   2.608   1.358   5.663  0.3725  0.2887  0.1413
12909TIP3    H260143   2.591   1.210   5.639 -0.5268  0.3182  0.5638
12910TIP3   OH260144   6.445   1.084   5.904  0.4055  0.3241 -0.1944
12910TIP3    H160145   6.427   1.012   5.965  0.7424 -0.4770 -1.0113
12910TIP3    H260146   6.493   1.042   5.832 -0.2517  1.1907 -1.1559
12911TIP3   OH260147   4.108   4.222   2.708  0.0427 -0.2796  0.3069
12911TIP3    H160148   4.036   4.179   2.663  1.1112 -0.2171 -1.5650
12911TIP3    H260149   4.070   4.303   2.742 -0.4447  0.6195 -2.1490
12912TIP3   OH260150   6.634   6.145   1.021  0.3440  0.1456 -0.1848
12912TIP3    H160151   6.615   6.238   1.033  0.7676  0.3093 -0.7369
12912TIP3    H260152   6.610   6.104   1.105  0.8290  0.8556  0.3105
12913TIP3   OH260153   5.845   5.409  10.590 -0.1658 -0.3754  0.3277
12913TIP3    H160154   5.816   5.500  10.596 -1.6951 -0.6830 -1.5909
12913TIP3    H260155   5.936   5.411  10.620 -1.1412  1.1509  3.6129
12914TIP3   OH260156   3.505   0.638  13.088 -0.0197 -0.4187  0.2905
12914TIP3    H160157   3.593   0.654  13.054  0.4939  0.1909  1.8308
12914TIP3    H260158   3.506   0.546  13.115 -1.0509 -1.5247 -2.9736
12915TIP3   OH260159   2.781   2.417  14.999  0.1217  0.2664  0.1219
12915TIP3    H160160   2.797   2.504  14.961  0.1838 -0.2335 -1.0361
12915TIP3    H260161   2.817   2.356  14.934 -1.5397 -0.6924  0.0422
12916TIP3   OH260162   6.600   0.694  12.544 -0.4120  0.5362 -0.3128
12916TIP3    H160163   6.554   0.663  12.466  1.8828  1.1743 -2.0342
12916TIP3    H260164   6.654   0.766  12.512  1.4705  0.0727  1.6488
12917TIP3   OH260165   6.295   5.539   1.987 -0.4501 -1.0692  0.3382
12917TIP3    H160166   6.307   5.463   2.045 -1.7128 -0.4321  1.5001
12917TIP3    H260167   6.207   5.528   1.951  0.1602 -1.2283 -1.1650
12918TIP3   OH260168   3.224   3.672   4.426 -0.3806 -0.4864  0.2787
12918TIP3    H160169   3.156   3.730   4.461  1.3697  1.1050  1.2366
12918TIP3    H260170   3.258   3.626   4.503  0.3428 -0.4400 -0.0026
12919TIP3   OH260171   1.573   5.145   5.216 -0.0115  0.1674 -0.0123
12919TIP3    H160172   1.534   5.090   5.284 -1.2245 -1.8351 -2.1819
12919TIP3    H260173   1.646   5.093   5.182  0.6017  1.1502 -0.2423
12920TIP3   OH260174   3.406   0.400   1.290  0.9204  0.1903 -0.3504
12920TIP3    H160175   3.436   0.396   1.381 -0.4992  0.2341  0.1539
12920TIP3    H260176   3.426   0.314   1.254  1.7774  0.2761 -0.0892
12921TIP3   OH260177   1.705   6.260   5.461  0.0602 -0.2952  0.4371
12921TIP3    H160178   1.722   6.218   5.376  0.0730  0.1747  0.2080
12921TIP3    H260179   1.782   6.237   5.513  0.5280  0.2490 -0.0008
12922TIP3   OH260180   3.582   5.661   2.436 -0.5289  0.1104 -0.4265
12922TIP3    H160181   3.514   5.726   2.453  0.5148  1.2986 -0.6405
12922TIP3    H260182   3.580   5.604   2.512 -1.0698  0.7523  0.0531
12923TIP3   OH260183   0.392   6.525   4.071 -0.2766  0.2759 -0.1675
12923TIP3    H160184   0.453   6.489   4.007 -0.5576  1.9259 -1.4276
12923TIP3    H260185   0.447   6.560   4.140  0.1565  0.7352 -0.7373
12924TIP3   OH260186   0.807   5.398   1.178 -0.3186  0.3541 -0.0331
12924TIP3    H160187   0.810   5.363   1.089  2.5980  1.3298 -0.4137
12924TIP3    H260188   0.842   5.327   1.232 -0.4743  0.3915  0.1195
12925TIP3   OH260189   5.254   6.694  13.049  0.3282  0.3591  0.3266
12925TIP3    H160190   5.313   6.754  13.004 -0.0281  1.0458  0.7533
12925TIP3    H260191   5.287   6.691  13.139 -1.1654  1.9878  0.9843
12926TIP3   OH260192   4.802   3.332   4.731 -0.6773  0.0931  0.5180
12926TIP3    H160193   4.821   3.426   4.726 -2.4504  0.4083 -1.8143
12926TIP3    H260194   4.743   3.323   4.805 -1.3194  0.9883  0.1224
12927TIP3   OH260195   2.842   6.436   5.972  0.0521  0.1058  0.1246
12927TIP3    H160196   2.804   6.515   6.012 -0.4022 -0.1499  0.2097
12927TIP3    H260197   2.936   6.443   5.989 -0.0817  0.2166  0.8843
12928TIP3   OH260198   4.849   1.215  13.662  0.0190  0.2996  0.0439
12928TIP3    H160199   4.899   1.211  13.580 -0.3065 -0.0747 -0.1368
12928TIP3    H260200   4.803   1.299  13.657 -2.4690 -1.0502 -1.6289
12929TIP3   OH260201   6.616   4.810   3.465  1.1300  0.0547 -0.2114
12929TIP3    H160202   6.667   4.891   3.466  1.5109 -0.1712  1.0099
12929TIP3    H260203   6.658   4.755   3.531 -1.1820  0.2042  1.5541
12930TIP3   OH260204   1.657   2.805   6.357  0.1717 -0.0562 -0.2684
12930TIP3    H160205   1.629   2.735   6.416  1.4451 -0.0099  0.4295
12930TIP3    H260206   1.682   2.760   6.277  0.4258 -0.3495 -0.0292
12931TIP3   OH260207   5.811   1.336  11.721 -0.1880  0.2959  0.5947
12931TIP3    H160208   5.799   1.401  11.652  0.6209  0.6683  0.7829
12931TIP3    H260209   5.755   1.263  11.696 -0.3987  0.6908 -0.1146
12932TIP3   OH260210   5.163   2.673  16.229  0.0963 -0.3495 -0.1326
12932TIP3    H160211   5.083   2.722  16.207 -0.7331 -1.0981  1.0951
12932TIP3    H260212   5.185   2.702  16.317 -0.3302 -2.0606  0.5623
12933TIP3   OH260213   6.034   5.120  15.404  0.1232 -0.3506  0.2159
12933TIP3    H160214   6.065   5.205  15.373  0.4153  0.2317  1.9896
12933TIP3    H260215   5.959   5.140  15.460  0.7361 -1.1502  1.3752
12934TIP3   OH260216   2.582   2.327   1.730  0.4975 -0.0989  0.3780
12934TIP3    H160217   2.542   2.353   1.813  2.0349 -0.4008  1.2459
12934TIP3    H260218   2.676   2.323   1.748  0.9385  0.3329 -1.5180
12935TIP3   OH260219   1.057   4.393   3.809 -0.0463 -0.0416 -0.5719
12935TIP3    H160220   1.000   4.409   3.884  1.7926 -0.0997  0.9209
12935TIP3    H260221   1.018   4.319   3.764 -3.3758  2.3404 -2.0472
12936TIP3   OH260222   2.487   4.886  16.334 -0.4888  0.9350  0.1965
12936TIP3    H160223   2.561   4.834  16.304 -1.3558 -0.8449  0.9417
12936TIP3    H260224   2.526   4.957  16.384  0.7355 -0.0578  0.7202
12937TIP3   OH260225   6.598   4.940   1.142 -0.8809 -0.0709 -0.0220
12937TIP3    H160226   6.548   5.019   1.162 -0.3054  0.7476 -1.6747
12937TIP3    H260227   6.592   4.931   1.047 -1.9702 -2.7392  0.2141
12938TIP3   OH260228   4.328   2.913   2.237 -0.0421 -0.4970 -0.2722
12938TIP3    H160229   4.253   2.867   2.275 -0.5303  1.1670  0.8487
12938TIP3    H260230   4.378   2.844   2.193 -2.0970 -1.6841 -0.8642
12939TIP3   OH260231   0.293   0.489   2.810 -0.1541 -0.2324  0.1489
12939TIP3    H160232   0.380   0.515   2.840  0.9466 -1.0243 -2.1649
12939TIP3    H260233   0.235   0.560   2.840  1.1085 -0.0096  2.3059
12940TIP3   OH260234   1.116   3.392  16.375  0.3984 -0.3041  0.1692
12940TIP3    H160235   1.046   3.377  16.311  0.7955 -0.7684 -0.1723
12940TIP3    H260236   1.079   3.453  16.438 -0.5310 -1.0306  0.3426
12941TIP3   OH260237   2.911   4.354   4.170  0.6475 -0.3359 -0.1645
12941TIP3    H160238   3.006   4.343   4.179  0.4843 -0.6725  1.4950
12941TIP3    H260239   2.883   4.279   4.118  1.2449 -0.4072 -0.3925
12942TIP3   OH260240   1.065   1.131   4.313 -0.3173 -0.1781  0.1452
12942TIP3    H160241   0.993   1.185   4.283 -0.9711 -1.0734  0.0701
12942TIP3    H260242   1.064   1.055   4.255  0.9348 -0.0277 -0.1151
12943TIP3   OH260243   3.483   0.717   0.746  0.0180 -0.1545 -0.2273
12943TIP3    H160244   3.497   0.766   0.665 -1.6045  0.0809 -0.4033
12943TIP3    H260245   3.395   0.742   0.774  1.0289  0.8450  2.3809
12944TIP3   OH260246   3.489   6.608  17.086  0.0040 -0.1755  0.4599
12944TIP3    H160247   3.565   6.550  17.080  0.4219  0.2226  1.6063
12944TIP3    H260248   3.418   6.560  17.045  0.4971 -1.2439  0.8334
12945TIP3   OH260249   1.387   4.009  15.286 -0.0747  0.1333 -0.7052
12945TIP3    H160250   1.319   3.971  15.230 -0.2732 -0.2067 -0.2364
12945TIP3    H260251   1.381   3.960  15.368  2.3145 -1.5401 -1.4302
12946TIP3   OH260252   1.744   2.485   1.912 -0.0929 -0.0265  0.2396
12946TIP3    H160253   1.755   2.392   1.893  0.0072  0.0118  0.1072
12946TIP3    H260254   1.649   2.499   1.908 -0.0466  0.1118 -0.8834
12947TIP3   OH260255   2.649   4.719  10.898 -0.0840  0.3887  0.3617
12947TIP3    H160256   2.560   4.706  10.863 -0.6722  1.0924  1.5403
12947TIP3    H260257   2.676   4.633  10.929  1.0430 -0.6364 -2.9883
12948TIP3   OH260258   6.222   2.071  14.268 -0.7525  0.0657  0.2986
12948TIP3    H160259   6.269   2.154  14.266 -1.9890  0.7900 -2.0054
12948TIP3    H260260   6.286   2.006  14.237 -0.0862  0.2964  1.1542
12949TIP3   OH260261   2.818   1.100  15.579 -0.2681  0.1539 -0.1177
12949TIP3    H160262   2.872   1.096  15.659  2.0449 -1.4247 -1.6304
12949TIP3    H260263   2.882   1.102  15.508 -2.2674 -0.4030 -2.0035
12950TIP3   OH260264   2.145   2.776  16.869  0.2853  0.3030 -0.4925
12950TIP3    H160265   2.210   2.749  16.804 -0.8970 -1.5995 -0.9307
12950TIP3    H260266   2.118   2.695  16.912  0.1617  1.3750  1.5953
12951TIP3   OH260267   2.965   2.669   5.426 -0.3324 -0.1515 -0.0838
12951TIP3    H160268   2.946   2.661   5.520  0.2967 -2.0346 -0.0638
12951TIP3    H260269   3.039   2.730   5.422  2.2107 -2.8661  1.1110
12952TIP3   OH260270   0.362   6.529  11.796  0.0692 -0.5305 -0.6098
12952TIP3    H160271   0.427   6.486  11.740 -1.4565 -1.9459 -1.3753
12952TIP3    H260272   0.374   6.490  11.882  1.6272  0.7931 -0.1688
12953TIP3   OH260273   5.780   6.334   0.217 -0.0600 -0.0981  0.2518
12953TIP3    H160274   5.758   6.342   0.310  1.0786  1.3049  0.4296
12953TIP3    H260275   5.761   6.242   0.196  0.3787 -0.6468  2.0695
12954TIP3   OH260276   6.355   0.944   0.063 -0.2909  0.0596 -0.4136
12954TIP3    H160277   6.274   0.895   0.081 -0.9095  0.5968 -1.6339
12954TIP3    H260278   6.339   0.986  -0.021  0.7709  1.2226 -0.0592
12955TIP3   OH260279   4.757   5.310  16.086  0.4146 -1.0992  0.3296
12955TIP3    H160280   4.759   5.321  15.991  0.1447  0.0586  0.4412
12955TIP3    H260281   4.845   5.277  16.108  0.9032 -0.1855 -0.1978
12956TIP3   OH260282   3.532   4.684  16.807 -0.3129 -0.3039  0.2664
12956TIP3    H160283   3.447   4.642  16.797  0.3940 -1.2042 -3.5095
12956TIP3    H260284   3.595   4.612  16.803  0.7447  0.3559  2.8040
12957TIP3   OH260285   4.615   2.778   3.077  0.4111 -0.0597 -0.2853
12957TIP3    H160286   4.576   2.692   3.063 -1.8868  0.9248 -0.4690
12957TIP3    H260287   4.627   2.784   3.172  0.6600 -0.6015 -0.2798
12958TIP3   OH260288   1.010   1.282   1.786 -0.0661  0.0863  0.4335
12958TIP3    H160289   1.060   1.359   1.811  1.1615 -0.3189 -0.7013
12958TIP3    H260290   1.053   1.249   1.707 -2.8710  0.4381 -1.3620
12959TIP3   OH260291   0.742   0.710  13.999  0.5204  0.1506  0.7468
12959TIP3    H160292   0.788   0.627  13.989 -0.9276 -0.7001  0.8440
12959TIP3    H260293   0.697   0.724  13.916  0.5448  0.7115  0.8199
12960TIP3   OH260294   6.183   2.129   5.293 -0.4517 -0.0870 -0.5034
12960TIP3    H160295   6.175   2.203   5.234 -2.9224  0.8107  0.8069
12960TIP3    H260296   6.229   2.164   5.369  1.7707 -0.9658 -1.3603
12961TIP3   OH260297   4.720   1.188   6.222  0.3030  0.4310 -0.2155
12961TIP3    H160298   4.644   1.189   6.163  1.4649 -0.4375 -1.7790
12961TIP3    H260299   4.723   1.099   6.256  1.7492 -0.1225 -1.7106
12962TIP3   OH260300   2.866   5.428  16.586  0.2078 -0.3424  0.0226
12962TIP3    H160301   2.931   5.358  16.587 -1.3629 -1.8590  0.1471
12962TIP3    H260302   2.792   5.394  16.637 -1.0019  0.9978 -0.7488
12963TIP3   OH260303   2.474   3.329  13.408 -0.6524 -0.4539 -0.9164
12963TIP3    H160304   2.558   3.369  13.430 -1.1527  0.3835 -0.4823
12963TIP3    H260305   2.494   3.236  13.396 -0.0540 -0.6889  1.4568
12964TIP3   OH260306   0.245   2.156  13.696 -0.1513 -0.5420 -0.4646
12964TIP3    H160307   0.149   2.151  13.699 -0.5057  2.9774 -0.7760
12964TIP3    H260308   0.267   2.220  13.764  1.7176  0.4964 -1.9603
12965TIP3   OH260309   2.688   2.438  11.537  0.1255 -0.1498 -0.1400
12965TIP3    H160310   2.755   2.493  11.579  1.2486  0.0782 -2.1354
12965TIP3    H260311   2.633   2.500  11.490 -0.2462 -0.5217 -0.1913
12966TIP3   OH260312   1.211   5.570   0.720  0.1659 -0.0785  0.4807
12966TIP3    H160313   1.210   5.610   0.807 -1.9762  1.6838 -0.2684
12966TIP3    H260314   1.136   5.511   0.719 -0.7330  1.0107 -0.5734
12967TIP3   OH260315   4.793   3.951   4.907 -0.3841 -0.1132  0.2703
12967TIP3    H160316   4.816   3.972   4.816 -1.0581  0.1340  0.1496
12967TIP3    H260317   4.864   3.990   4.959 -0.0554 -0.1557 -0.1399
12968TIP3   OH260318   5.881   0.708   5.530 -0.1237  0.0180 -0.2653
12968TIP3    H160319   5.891   0.680   5.621  0.5295 -1.6285 -0.8048
12968TIP3    H260320   5.812   0.774   5.532 -0.8196 -0.7189  1.2891
12969TIP3   OH260321   4.449   0.386   2.341  0.0229 -0.0150 -0.0922
12969TIP3    H160322   4.516   0.444   2.304 -0.4210  1.2378  0.9973
12969TIP3    H260323   4.495   0.338   2.409 -0.1005  0.6336  0.4585
12970TIP3   OH260324   3.783   2.524   3.750  0.2945 -0.1994  0.1996
12970TIP3    H160325   3.814   2.534   3.660 -1.0342 -0.0509 -0.2619
12970TIP3    H260326   3.817   2.601   3.796 -1.6664  1.4543 -0.9694
12971TIP3   OH260327   1.516   1.290   4.853 -0.3225 -0.4587 -0.2435
12971TIP3    H160328   1.505   1.304   4.759  1.5188  1.3718 -0.2716
12971TIP3    H260329   1.487   1.372   4.893  0.2539 -0.6818  0.6568
12972TIP3   OH260330   1.429   4.235   1.501 -0.3249 -0.6428  0.3776
12972TIP3    H160331   1.363   4.171   1.474 -0.4458 -0.3805  0.0576
12972TIP3    H260332   1.512   4.198   1.469 -0.3380 -0.8546  0.5777
12973TIP3   OH260333   2.926   6.317  13.102  0.7033  0.8774  0.0918
12973TIP3    H160334   2.943   6.376  13.029 -1.0239  1.4026  0.0914
12973TIP3    H260335   2.838   6.338  13.131  0.9803 -0.0077  1.7067
12974TIP3   OH260336   6.342   0.621  17.250  0.4039  0.1112 -0.2125
12974TIP3    H160337   6.248   0.631  17.266 -0.2440  0.0616 -3.3000
12974TIP3    H260338   6.369   0.549  17.306 -2.1618 -2.0023 -1.4583
12975TIP3   OH260339   6.338   6.400  10.364  0.0966  0.0323 -0.0834
12975TIP3    H160340   6.395   6.458  10.415 -0.4597  0.8423 -0.3540
12975TIP3    H260341   6.271   6.459  10.328 -0.5191 -0.7953 -0.3181
12976TIP3   OH260342   3.032   2.636  12.883  0.4610 -0.6726 -0.0260
12976TIP3    H160343   3.067   2.616  12.970 -0.5077 -1.9209  0.0975
12976TIP3    H260344   2.945   2.596  12.882  0.8405 -1.5422 -1.9316
12977TIP3   OH260345   1.912   3.035  12.164  0.2281  0.3288 -0.2790
12977TIP3    H160346   1.947   3.071  12.246  0.0949  0.4770 -0.2869
12977TIP3    H260347   1.909   2.940  12.179  0.5959  0.3175 -0.2629
12978TIP3   OH260348   3.544   2.793  16.237  0.0999  0.3412 -0.1448
12978TIP3    H160349   3.554   2.700  16.255 -0.0664  0.2699 -0.4192
12978TIP3    H260350   3.474   2.798  16.173 -1.1281  0.7860  1.1816
12979TIP3   OH260351   6.343   1.714  13.643  0.6411 -0.2322 -0.0890
12979TIP3    H160352   6.438   1.711  13.631  0.6081 -0.9914 -0.2726
12979TIP3    H260353   6.328   1.676  13.730  0.4337 -1.4701 -0.6346
12980TIP3   OH260354   4.338   0.264  13.802 -0.0621  0.1807 -0.4934
12980TIP3    H160355   4.312   0.294  13.715 -2.1742 -0.0475  0.0147
12980TIP3    H260356   4.328   0.169  13.798 -0.5095  0.1986  0.0947
12981TIP3   OH260357   3.364   4.333  14.965  0.1706  0.3740 -0.6720
12981TIP3    H160358   3.278   4.348  15.005 -0.4285 -1.2677 -1.2616
12981TIP3    H260359   3.353   4.359  14.874  0.6974  1.3836 -0.4625
12982TIP3   OH260360   3.054   2.192  16.417 -0.5948  0.4092  0.1657
12982TIP3    H160361   3.058   2.108  16.372  0.1729 -0.8636  2.4257
12982TIP3    H260362   3.127   2.243  16.380 -0.7090 -0.1157 -0.8153
12983TIP3   OH260363   5.813   3.716  15.412 -0.0479 -0.1207  0.4118
12983TIP3    H160364   5.861   3.795  15.388  2.9790 -1.1763  2.3913
12983TIP3    H260365   5.771   3.737  15.495  1.2503 -0.6590  1.2492
12984TIP3   OH260366   4.692   0.872  17.118  0.1606 -0.4012 -1.0025
12984TIP3    H160367   4.640   0.885  17.197  0.1203 -0.4005 -1.0291
12984TIP3    H260368   4.655   0.795  17.076  0.8485 -1.0265 -0.4895
12985TIP3   OH260369   0.517   1.440   0.620  0.1342 -0.5793  0.9482
12985TIP3    H160370   0.537   1.350   0.646 -0.0401 -0.0177  3.2613
12985TIP3    H260371   0.599   1.472   0.583  0.5112 -1.3751  1.0606
12986TIP3   OH260372   3.445   0.382  14.115 -0.5649  0.3787 -0.6117
12986TIP3    H160373   3.504   0.337  14.175 -1.4925  1.3404  1.1173
12986TIP3    H260374   3.494   0.388  14.033 -0.2677 -3.3437 -0.8531
12987TIP3   OH260375   5.720   5.678  14.252 -0.3631  0.3130  0.3355
12987TIP3    H160376   5.758   5.688  14.339 -0.7841  0.5260  0.4964
12987TIP3    H260377   5.661   5.753  14.242 -2.5017 -1.1950  1.0199
12988TIP3   OH260378   6.597   4.258  13.929  0.0134  0.2485  0.0167
12988TIP3    H160379   6.611   4.335  13.984 -1.5692 -0.3492  1.3338
12988TIP3    H260380   6.531   4.286  13.866  0.4173  0.3589 -0.3599
12989TIP3   OH260381   4.077   4.645  17.084 -0.3062  0.3441 -0.7919
12989TIP3    H160382   4.057   4.683  17.169  1.2786 -1.6443  0.5841
12989TIP3    H260383   3.994   4.609  17.053 -0.5721 -0.5242  0.8171
12990TIP3   OH260384   2.036   1.641  12.545 -0.3177 -0.1352  0.1032
12990TIP3    H160385   1.982   1.703  12.495 -1.8005 -0.7069  0.9305
12990TIP3    H260386   2.042   1.564  12.489  0.6775  0.3597 -0.4965
12991TIP3   OH260387   6.434   2.581   0.772 -0.3988 -0.0865 -0.2604
12991TIP3    H160388   6.410   2.652   0.714 -0.8933 -0.9636 -1.1495
12991TIP3    H260389   6.435   2.503   0.717  0.1434 -0.7806  0.6844
12992TIP3   OH260390   4.947   1.159  10.940  0.3889  0.0278  0.0370
12992TIP3    H160391   5.023   1.150  10.997  1.2107  2.1639 -0.5982
12992TIP3    H260392   4.971   1.229  10.879 -1.4947 -0.3131 -1.2077
12993TIP3   OH260393   6.319   6.146  11.857  0.3588  0.5454 -0.2949
12993TIP3    H160394   6.232   6.187  11.850  0.0169  0.0210  0.6715
12993TIP3    H260395   6.300   6.053  11.875  1.1067  0.5604  0.6468
12994TIP3   OH260396   1.018   0.846  15.119 -0.0029 -0.1555 -0.0576
12994TIP3    H160397   0.926   0.820  15.123  0.8016 -3.3167  2.1866
12994TIP3    H260398   1.064   0.768  15.088  1.9329  1.5144 -1.7105
12995TIP3   OH260399   4.789   2.148   0.295 -0.3483 -0.4543  0.0125
12995TIP3    H160400   4.783   2.054   0.310 -3.3215 -0.8307 -2.5286
12995TIP3    H260401   4.866   2.159   0.239 -0.7153 -1.5730 -0.7392
12996TIP3   OH260402   3.824   1.127   1.341  0.5076 -0.7593 -0.0268
12996TIP3    H160403   3.866   1.102   1.423  0.4564 -0.7297  0.0082
12996TIP3    H260404   3.807   1.043   1.296 -1.8929 -0.9952  1.1702
12997TIP3   OH260405   6.482   4.004   0.583  0.7424 -0.6099  0.0748
12997TIP3    H160406   6.391   4.034   0.581  1.4155  1.7655  0.7900
12997TIP3    H260407   6.485   3.928   0.525 -1.5158 -0.2418 -0.5941
12998TIP3   OH260408   3.987   2.868   3.558  0.2818  0.0387  0.6522
12998TIP3    H160409   4.018   2.943   3.508  0.9199 -0.5671  0.1106
12998TIP3    H260410   3.891   2.873   3.552  0.2956 -1.2843 -2.6832
12999TIP3   OH260411   1.612   0.605   0.552 -0.1837  0.4728  0.4800
12999TIP3    H160412   1.519   0.584   0.544 -0.7159  0.6454  4.1995
12999TIP3    H260413   1.622   0.689   0.507 -1.7512  0.3420 -0.1801
13000TIP3   OH260414   4.690   5.855  12.106  0.3437 -0.1065 -0.2271
13000TIP3    H160415   4.632   5.859  12.182  1.3151  0.1096  0.5197
13000TIP3    H260416   4.757   5.791  12.130  0.2074 -0.6561 -1.2382
13001TIP3   OH260417   2.159   6.074  16.306 -0.4825  0.2967 -0.3606
13001TIP3    H160418   2.170   6.044  16.216 -0.3182 -1.3999  0.1715
13001TIP3    H260419   2.067   6.099  16.311 -0.4073  0.7399 -1.0873
13002TIP3   OH260420   3.186   3.042  17.158 -0.2597  0.3186  0.1727
13002TIP3    H160421   3.231   3.113  17.203 -1.7706  0.6703  1.2085
13002TIP3    H260422   3.245   3.017  17.087  1.0674  1.4396  0.8382
13003TIP3   OH260423   0.917   2.772   2.836 -0.1096 -0.7641  0.0690
13003TIP3    H160424   0.862   2.696   2.821  0.3291 -1.1575  0.3908
13003TIP3    H260425   0.886   2.809   2.919 -0.2335 -0.6699 -0.0188
13004TIP3   OH260426   0.460   4.651  14.426 -0.4935  0.3714 -1.0319
13004TIP3    H160427   0.534   4.711  14.418  1.1474 -1.3695  0.0093
13004TIP3    H260428   0.436   4.654  14.518 -0.1784 -0.7475 -0.8936
13005TIP3   OH260429   1.319   1.932  12.276  0.3851 -0.0545  0.3303
13005TIP3    H160430   1.399   1.955  12.324  0.2633  1.2439 -0.0571
13005TIP3    H260431   1.339   1.847  12.237  1.3056 -0.0923  0.8494
13006TIP3   OH260432   2.431   0.721   0.852  0.2487  0.1195 -0.5825
13006TIP3    H160433   2.409   0.796   0.797  1.0129  0.7928  0.0162
13006TIP3    H260434   2.386   0.738   0.935 -0.1992 -0.4726 -0.6943
13007TIP3   OH260435   6.248   5.347  12.399 -0.4724  0.1429 -0.4457
13007TIP3    H160436   6.167   5.334  12.448  0.2945  1.1088  1.1810
13007TIP3    H260437   6.275   5.259  12.372 -0.5130 -0.5554  1.6206
13008TIP3   OH260438   5.045   1.470   0.578  0.0982  0.5646 -0.1883
13008TIP3    H160439   5.129   1.515   0.579 -0.5279  1.7924 -0.4315
13008TIP3    H260440   5.035   1.434   0.666  0.9629  0.2321 -0.2234
13009TIP3   OH260441   5.789   0.273  11.596 -0.1320 -0.0916  0.2342
13009TIP3    H160442   5.782   0.300  11.505 -1.0941 -0.3424  0.2295
13009TIP3    H260443   5.880   0.242  11.605  0.1432  0.4988 -0.4675
13010TIP3   OH260444   1.113   2.581   5.887  0.1934  0.6647  0.2824
13010TIP3    H160445   1.148   2.669   5.874  1.2074  0.6665  2.6394
13010TIP3    H260446   1.019   2.594   5.896  0.2645  1.4247 -0.0059
13011TIP3   OH260447   1.686   5.623  11.432  0.2774 -0.1358  0.2165
13011TIP3    H160448   1.721   5.597  11.347  2.3510  0.1738  0.9279
13011TIP3    H260449   1.667   5.716  11.423 -1.0340 -0.4448 -0.3717
13012TIP3   OH260450   2.691   4.727   1.693 -0.0782  0.5261 -0.1542
13012TIP3    H160451   2.669   4.720   1.786  0.9075  1.6898  0.1863
13012TIP3    H260452   2.685   4.820   1.673 -1.8253  0.1378 -1.6812
13013TIP3   OH260453   3.385   5.349  13.623 -0.1103 -0.0409  0.2527
13013TIP3    H160454   3.353   5.418  13.682 -0.1933  0.9524 -0.9171
13013TIP3    H260455   3.340   5.365  13.540 -0.0342 -1.4451 -0.0766
13014TIP3   OH260456   0.460   0.144  10.804 -0.6072 -0.2977  0.2269
13014TIP3    H160457   0.375   0.188  10.802  0.1183  1.2547  1.3783
13014TIP3    H260458   0.496   0.164  10.890  1.5016  0.2574 -0.7003
13015TIP3   OH260459   5.409   1.987   0.396 -0.1989 -0.0864  0.1347
13015TIP3    H160460   5.392   1.935   0.317  1.0186 -1.8471  0.9782
13015TIP3    H260461   5.463   2.060   0.365  0.8694 -1.1433 -0.5679
13016TIP3   OH260462   4.120   2.118  11.867 -0.1668  0.0303 -0.2016
13016TIP3    H160463   4.113   2.100  11.773  0.4633 -3.5808  0.3142
13016TIP3    H260464   4.030   2.128  11.897 -0.5243 -1.2066 -0.8220
13017TIP3   OH260465   2.213   5.985   2.695 -0.1392 -0.2054 -0.0195
13017TIP3    H160466   2.193   5.937   2.615 -0.6447 -1.4498  0.8407
13017TIP3    H260467   2.160   5.944   2.763 -0.0412  1.1042  0.8887
13018TIP3   OH260468   5.439   1.949  12.252  0.2664  0.8030 -0.5228
13018TIP3    H160469   5.367   1.991  12.205 -0.2154  0.2676 -0.2853
13018TIP3    H260470   5.397   1.877  12.300  0.9642  0.4747 -0.3929
13019TIP3   OH260471   0.057   6.480  17.265  0.4016 -0.4313 -0.3378
13019TIP3    H160472   0.024   6.475  17.175  1.3077 -0.3565 -0.6914
13019TIP3    H260473   0.152   6.480  17.255  0.5344 -1.3761  0.6759
13020TIP3   OH260474   0.209   4.715  15.263 -0.1185  0.6986 -0.0025
13020TIP3    H160475   0.152   4.766  15.205  0.0051  0.1719 -0.5975
13020TIP3    H260476   0.247   4.780  15.322  0.9266  1.5017 -1.4708
13021TIP3   OH260477   5.379   3.008   2.962  0.2210  0.0453 -0.8925
13021TIP3    H160478   5.378   3.083   2.903 -0.2225 -1.0374 -2.3255
13021TIP3    H260479   5.425   2.939   2.913 -0.8085 -1.1204 -0.2931
13022TIP3   OH260480   3.719   6.034   1.630  0.6226 -0.3014  0.2044
13022TIP3    H160481   3.628   6.061   1.620  0.7792 -0.2415 -1.4285
13022TIP3    H260482   3.762   6.065   1.550  2.3411  0.6583  1.4267
13023TIP3   OH260483   0.559   1.302   2.682 -0.3194 -0.4037  1.1557
13023TIP3    H160484   0.501   1.358   2.734 -1.7152 -0.7108  0.0108
13023TIP3    H260485   0.513   1.218   2.678  1.5404 -1.5665  2.5124
13024TIP3   OH260486   1.953   3.723  14.015 -0.4512 -0.1106 -0.0894
13024TIP3    H160487   2.012   3.648  14.005  1.4310  1.2626  0.0235
13024TIP3    H260488   1.993   3.775  14.086 -0.1181  2.3475 -1.9433
13025TIP3   OH260489   2.293   0.303  17.165  0.0195 -0.0652  0.1361
13025TIP3    H160490   2.369   0.244  17.172 -0.4876 -0.6575  0.7916
13025TIP3    H260491   2.331   0.390  17.156  0.7825 -0.2992  0.9856
13026TIP3   OH260492   1.402   5.090   4.283  0.1707 -0.1317  0.1482
13026TIP3    H160493   1.361   5.166   4.323  0.3141  1.2638 -2.1590
13026TIP3    H260494   1.354   5.015   4.318 -0.5645  1.0598  1.8014
13027TIP3   OH260495   0.780   1.773  11.473 -0.4324 -0.2244  0.1032
13027TIP3    H160496   0.769   1.865  11.450 -0.4957 -0.2056  0.2105
13027TIP3    H260497   0.872   1.766  11.499 -0.4228 -0.1961  0.0767
13028TIP3   OH260498   1.463   2.937   0.097  0.3538  0.7869 -0.3090
13028TIP3    H160499   1.490   2.924   0.006  1.3918  1.2353 -0.0702
13028TIP3    H260500   1.535   2.903   0.149 -0.7517 -0.6241  0.3857
13029TIP3   OH260501   4.154   4.876  14.079  0.1592 -0.1946 -0.1983
13029TIP3    H160502   4.062   4.883  14.054  0.5095  0.4555 -1.3520
13029TIP3    H260503   4.202   4.923  14.011  1.4179 -1.1905 -0.0557
13030TIP3   OH260504   2.660   4.154   6.133  0.7032  0.0759  0.0132
13030TIP3    H160505   2.663   4.093   6.207 -2.3219 -0.1356  0.0594
13030TIP3    H260506   2.649   4.240   6.172  1.3215  0.2389 -0.1579
13031TIP3   OH260507   3.668   1.830   5.148  0.5204  0.6993  0.1698
13031TIP3    H160508   3.665   1.921   5.120  2.5963  1.3912  1.8811
13031TIP3    H260509   3.599   1.823   5.214 -1.2835  0.2951 -1.6611
13032TIP3   OH260510   0.295   5.788  15.906  0.1888 -0.1799  0.1012
13032TIP3    H160511   0.262   5.777  15.995  1.0906  1.2981  0.6604
13032TIP3    H260512   0.326   5.878  15.904  0.4144 -0.2735 -1.6481
13033TIP3   OH260513   1.985   3.422  14.426 -0.0682  0.2870 -0.4338
13033TIP3    H160514   2.013   3.332  14.442 -1.5755 -0.1040  0.1297
13033TIP3    H260515   1.891   3.416  14.412  0.0164  1.6195 -1.7842
13034TIP3   OH260516   0.713   1.044   1.409 -0.5733 -0.3545 -0.1097
13034TIP3    H160517   0.630   1.020   1.449 -0.2040 -2.5471 -0.5614
13034TIP3    H260518   0.776   0.979   1.441  1.1486  1.5739  0.6682
13035TIP3   OH260519   1.712   2.572   4.529 -0.5880 -0.3617  0.1693
13035TIP3    H160520   1.619   2.557   4.547 -0.4898  0.1649  1.2224
13035TIP3    H260521   1.746   2.485   4.506 -0.7838 -1.1526  2.5287
13036TIP3   OH260522   2.596   2.365   2.264 -0.1969 -0.0561  0.2970
13036TIP3    H160523   2.611   2.459   2.266  0.8138 -0.2080  1.0338
13036TIP3    H260524   2.676   2.328   2.301 -0.5511 -1.2087 -0.0484
13037TIP3   OH260525   2.240   4.205   2.891 -0.4774  0.3732 -0.1045
13037TIP3    H160526   2.252   4.215   2.985 -0.9133 -1.6475  0.1939
13037TIP3    H260527   2.181   4.131   2.881 -0.4151  0.5159 -1.9846
13038TIP3   OH260528   2.131   3.507  15.370 -0.5411  0.1301  0.2351
13038TIP3    H160529   2.074   3.433  15.350 -0.8946  0.7558 -1.1520
13038TIP3    H260530   2.164   3.488  15.458  0.1018 -2.1132 -0.4350
13039TIP3   OH260531   6.468   2.743  11.382  0.0786 -0.3485 -0.2573
13039TIP3    H160532   6.440   2.831  11.404  0.4915 -0.1718 -0.4417
13039TIP3    H260533   6.533   2.754  11.313 -0.0750 -0.8108 -0.4851
13040TIP3   OH260534   0.080   6.296   2.034 -0.4618  0.4531 -0.4754
13040TIP3    H160535   0.051   6.206   2.048 -0.4251  0.6068  0.7511
13040TIP3    H260536   0.005   6.340   1.996 -0.5429 -0.0500 -0.9078
13041TIP3   OH260537   6.709   2.407  14.906 -0.1087  0.2244 -1.0850
13041TIP3    H160538   6.683   2.319  14.934 -0.5586  0.0698 -1.9480
13041TIP3    H260539   6.802   2.413  14.926 -0.2760 -0.0948 -0.1444
13042TIP3   OH260540   0.711   2.079   6.050  0.0441 -0.1377  0.0800
13042TIP3    H160541   0.773   2.006   6.042 -0.2180 -0.8519  3.2315
13042TIP3    H260542   0.761   2.148   6.094 -0.7510  0.1129  0.6118
13043TIP3   OH260543   4.694   2.378  13.931 -0.4483  0.0007  1.0057
13043TIP3    H160544   4.658   2.291  13.947 -0.3178 -0.2923 -0.2021
13043TIP3    H260545   4.782   2.362  13.899 -1.0476  0.4619 -1.0051
13044TIP3   OH260546   3.541   2.809   5.628  0.1530 -0.0892  0.3076
13044TIP3    H160547   3.462   2.756   5.614 -0.6658  1.0429  0.5258
13044TIP3    H260548   3.558   2.800   5.722 -0.8994  1.2390  0.6544
13045TIP3   OH260549   0.797   4.870   1.997 -0.3064 -0.4161  0.4825
13045TIP3    H160550   0.828   4.891   1.908  0.6020  0.2691  0.9438
13045TIP3    H260551   0.733   4.939   2.016 -0.3862 -0.4726  0.4212
13046TIP3   OH260552   2.712   4.891   3.386  0.4737 -0.6164  0.1060
13046TIP3    H160553   2.679   4.855   3.468 -3.6072 -1.2709 -1.5550
13046TIP3    H260554   2.805   4.868   3.385  0.4864 -1.3664  4.0457
13047TIP3   OH260555   3.459   2.368  14.276 -0.1877  0.4809  0.1935
13047TIP3    H160556   3.553   2.361  14.261 -0.2622 -0.0457 -0.0254
13047TIP3    H260557   3.419   2.345  14.192 -0.5706 -1.4287  0.8465
13048TIP3   OH260558   6.567   2.636   3.636 -0.3431 -0.4382  0.3845
13048TIP3    H160559   6.559   2.722   3.593  1.5570 -0.1678  0.4904
13048TIP3    H260560   6.573   2.656   3.729 -0.9433 -0.7670  0.4942
13049TIP3   OH260561   1.353   4.232  14.946  1.1907  0.5588 -0.4572
13049TIP3    H160562   1.412   4.165  14.980  0.2096 -0.4387 -0.6874
13049TIP3    H260563   1.268   4.211  14.983  0.7211  1.2740 -1.0888
13050TIP3   OH260564   5.551   5.898  14.154  0.4877  0.0232  0.3464
13050TIP3    H160565   5.583   5.899  14.063  0.7622  2.0603  0.4175
13050TIP3    H260566   5.574   5.984  14.188 -0.6294 -0.2946  2.0172
13051TIP3   OH260567   4.926   6.612   2.779 -0.6686  0.0426 -0.0957
13051TIP3    H160568   4.866   6.583   2.847 -1.0148  1.3768  0.1828
13051TIP3    H260569   4.870   6.644   2.709 -0.3168  1.4994  0.2516
13052TIP3   OH260570   1.298   3.891   0.817 -0.6979 -0.5671 -0.6909
13052TIP3    H160571   1.350   3.810   0.819  1.4104  0.7130 -0.3262
13052TIP3    H260572   1.310   3.925   0.728 -0.2243  0.1554 -0.3588
13053TIP3   OH260573   1.685   6.066   3.256 -0.1219 -0.1157 -0.3472
13053TIP3    H160574   1.627   6.068   3.180 -0.3156 -1.1038 -0.2464
13053TIP3    H260575   1.720   6.155   3.262 -0.4322  0.0919 -1.3316
13054TIP3   OH260576   4.579   2.758   0.867 -0.3964 -0.0653  0.0765
13054TIP3    H160577   4.572   2.663   0.880  2.2072 -0.5825 -1.4790
13054TIP3    H260578   4.622   2.790   0.946  0.3402 -0.4924 -0.1428
13055TIP3   OH260579   5.519   1.520   6.043  0.1470 -0.0243  0.0302
13055TIP3    H160580   5.546   1.450   6.103 -0.0224 -0.3615 -0.2837
13055TIP3    H260581   5.442   1.559   6.085  1.0462  0.8817  0.8835
13056TIP3   OH260582   5.375   0.661   2.765 -0.1730 -0.3357 -0.4433
13056TIP3    H160583   5.380   0.581   2.712 -1.7172 -0.5716 -0.2629
13056TIP3    H260584   5.330   0.634   2.845 -1.7557  0.9383 -0.8615
13057TIP3   OH260585   1.741   0.986  14.205 -0.3894  0.8198  0.4635
13057TIP3    H160586   1.795   1.052  14.248  0.3396  0.7684 -0.3413
13057TIP3    H260587   1.804   0.931  14.158 -1.2400  2.0554 -2.3288
13058TIP3   OH260588   0.518   5.513  11.457 -0.0901  0.0831 -0.2287
13058TIP3    H160589   0.567   5.477  11.384  1.0940 -2.2726  1.5744
13058TIP3    H260590   0.562   5.595  11.479 -1.5594  1.8428 -3.1236
13059TIP3   OH260591   3.077   0.906  14.808  0.2902 -0.7699 -0.0520
13059TIP3    H160592   3.086   0.885  14.901 -1.3852  1.2411  0.6518
13059TIP3    H260593   3.148   0.967  14.790 -0.1365 -0.1589  0.2836
13060TIP3   OH260594   6.139   2.223   2.211  0.0040  0.0834  0.1497
13060TIP3    H160595   6.089   2.163   2.267  1.1305  0.0847  1.2109
13060TIP3    H260596   6.230   2.212   2.239  0.3817  1.4256 -0.4481
13061TIP3   OH260597   0.977   5.374   0.844 -0.0060 -0.0873  0.0984
13061TIP3    H160598   0.912   5.433   0.806  0.7852  0.0431 -1.1047
13061TIP3    H260599   0.927   5.318   0.904 -0.6875  2.1489  1.7257
13062TIP3   OH260600   4.907   0.206  17.143  0.3852  0.0511  0.4355
13062TIP3    H160601   4.817   0.180  17.160  0.7185 -0.9771  0.6899
13062TIP3    H260602   4.956   0.175  17.220  0.8957  0.9397  0.4858
13063TIP3   OH260603   3.244   6.208  12.588 -0.4784  0.0560 -0.0226
13063TIP3    H160604   3.290   6.160  12.657  1.0700  2.4117  0.7100
13063TIP3    H260605   3.286   6.182  12.507  0.6072  0.4196  0.4079
13064TIP3   OH260606   6.033   6.496   3.582  0.2191  0.1742  0.7374
13064TIP3    H160607   5.952   6.533   3.548  0.0791  0.2090  1.1092
13064TIP3    H260608   6.075   6.457   3.506  0.2088  0.8004  0.4057
13065TIP3   OH260609   0.342   2.899  12.499  0.2392  0.6132  0.0127
13065TIP3    H160610   0.329   2.820  12.447  0.1365  0.5963  0.0630
13065TIP3    H260611   0.393   2.869  12.575 -0.8717  0.3323  0.6791
13066TIP3   OH260612   5.914   4.315  10.662  0.4338  0.0559  0.6874
13066TIP3    H160613   5.985   4.373  10.636  1.3078 -0.4733  1.8147
13066TIP3    H260614   5.938   4.230  10.624  1.0337 -0.4026  2.0275
13067TIP3   OH260615   0.176   4.250   1.451 -0.3228 -0.0555  0.8072
13067TIP3    H160616   0.099   4.295   1.486 -0.6888  0.1130 -0.1871
13067TIP3    H260617   0.147   4.216   1.366  0.2759 -1.2302  1.0539
13068TIP3   OH260618   2.527   2.350   5.564  0.0973  0.2223  0.4533
13068TIP3    H160619   2.558   2.409   5.495  1.4137  0.0910  0.9183
13068TIP3    H260620   2.604   2.301   5.591 -0.8153 -1.2136  0.5908
13069TIP3   OH260621   4.699   1.502   4.631 -0.1321 -0.1745 -0.3054
13069TIP3    H160622   4.688   1.412   4.661 -0.5574 -0.2621 -0.7135
13069TIP3    H260623   4.692   1.496   4.536  0.2374  0.2341 -0.3585
13070TIP3   OH260624   6.087   4.607   2.587  0.1897 -0.4801 -0.4453
13070TIP3    H160625   6.006   4.582   2.632  1.5833  2.0680  4.1140
13070TIP3    H260626   6.068   4.693   2.550  0.8249  0.4549  1.2523
13071TIP3   OH260627   4.093   4.712  11.940  0.4719 -0.1757  0.0356
13071TIP3    H160628   4.019   4.772  11.936  0.6563  0.0936  0.6397
13071TIP3    H260629   4.164   4.763  11.978  0.6544 -0.7456  0.4802
13072TIP3   OH260630   0.562   0.743   1.576 -0.0850 -0.0197 -0.2255
13072TIP3    H160631   0.555   0.815   1.638 -0.6954 -0.0514 -0.2556
13072TIP3    H260632   0.634   0.690   1.609 -1.5399 -1.0068  1.4540
13073TIP3   OH260633   1.121   1.815  16.210  0.7165  0.3022  0.5018
13073TIP3    H160634   1.040   1.867  16.210  2.2309  2.7971  0.8984
13073TIP3    H260635   1.108   1.751  16.280 -1.7900 -0.9278 -0.9460
13074TIP3   OH260636   4.189   1.648   0.980 -0.4853  1.1180 -0.3001
13074TIP3    H160637   4.226   1.736   0.985 -0.9825  1.2988  0.3263
13074TIP3    H260638   4.262   1.589   0.998 -0.1702  1.4069 -0.6342
13075TIP3   OH260639   0.091   0.610  16.796 -0.7861  0.3459  0.3301
13075TIP3    H160640   0.049   0.688  16.833 -0.0923 -0.0031  1.9305
13075TIP3    H260641   0.079   0.542  16.863  1.2824 -0.0718  0.3502
13076TIP3   OH260642   3.775   3.838   2.008  0.2412  0.1628  0.2110
13076TIP3    H160643   3.848   3.898   1.997 -0.1625  0.6797  0.2973
13076TIP3    H260644   3.799   3.784   2.083  0.9025 -0.2336 -0.2811
13077TIP3   OH260645   2.121   4.801   2.944  0.2178 -0.2449 -0.2083
13077TIP3    H160646   2.096   4.882   2.989 -0.4685 -0.8683  0.5395
13077TIP3    H260647   2.213   4.788   2.968  0.1500 -0.0250  0.1786
13078TIP3   OH260648   3.526   0.179   3.176 -0.2256 -0.2685  0.0592
13078TIP3    H160649   3.608   0.134   3.200 -0.0289  0.1059  0.0899
13078TIP3    H260650   3.478   0.114   3.125  0.3125 -0.3286 -0.3842
13079TIP3   OH260651   3.551   0.836  13.699 -0.3630  0.3662 -0.3410
13079TIP3    H160652   3.554   0.774  13.771 -0.9097  0.5473 -0.1610
13079TIP3    H260653   3.463   0.872  13.701  0.1525  1.6800  0.0115
13080TIP3   OH260654   6.367   5.628  11.857  0.1145  0.5395 -0.4644
13080TIP3    H160655   6.456   5.627  11.891 -0.1126  0.5365  0.1472
13080TIP3    H260656   6.312   5.626  11.935 -0.4286 -1.0349 -0.8527
13081TIP3   OH260657   3.361   4.252   2.337 -0.1123 -0.3155  0.1284
13081TIP3    H160658   3.273   4.271   2.368 -0.5558 -0.8197 -0.7549
13081TIP3    H260659   3.348   4.223   2.246  0.9101 -0.8337  0.1329
13082TIP3   OH260660   6.217   2.096   3.826  0.2311  0.0992 -0.2137
13082TIP3    H160661   6.275   2.150   3.880 -2.3096 -0.1806  3.1715
13082TIP3    H260662   6.160   2.160   3.783  0.0276  0.2702  0.2940
13083TIP3   OH260663   2.416   1.524  12.843  0.1417  0.5349  0.8325
13083TIP3    H160664   2.364   1.595  12.807  0.7338  0.8839  0.6519
13083TIP3    H260665   2.354   1.453  12.857 -0.3099  0.8170  0.2756
13084TIP3   OH260666   5.182   2.562   1.936 -0.5114 -0.7833 -0.6167
13084TIP3    H160667   5.151   2.498   1.872 -0.7088  0.0513 -1.3742
13084TIP3    H260668   5.225   2.629   1.884 -0.2491 -0.3282  0.1711
13085TIP3   OH260669   2.672   0.729  11.205  0.6882 -0.0996 -0.2981
13085TIP3    H160670   2.597   0.670  11.207 -0.3701  1.2338  0.3756
13085TIP3    H260671   2.676   0.758  11.114 -0.4226  0.8020 -0.0789
13086TIP3   OH260672   5.940   6.182   3.973  0.0693  0.1389  0.1288
13086TIP3    H160673   5.911   6.212   3.887 -0.6881 -1.6151 -0.2924
13086TIP3    H260674   5.990   6.102   3.954 -0.3194 -0.4110  1.3254
13087TIP3   OH260675   3.641   0.075  11.954  0.6317  0.1787  0.4886
13087TIP3    H160676   3.576   0.073  12.024 -0.7005 -0.0505 -0.7029
13087TIP3    H260677   3.654  -0.017  11.931  0.5962  0.2871  0.0296
13088TIP3   OH260678   0.180   6.049   3.804  0.1492 -0.0039  0.3502
13088TIP3    H160679   0.088   6.022   3.802  0.1802 -0.0342 -1.1656
13088TIP3    H260680   0.224   5.991   3.743  0.7740  1.4022 -0.5734
13089TIP3   OH260681   5.646   5.543  12.908  0.1210 -0.2335  0.6087
13089TIP3    H160682   5.587   5.489  12.855 -1.2819 -1.3818  3.1427
13089TIP3    H260683   5.601   5.627  12.916  0.6082  0.1387 -0.4377
13090TIP3   OH260684   5.022   0.326   3.419  0.3217  0.3274  0.1427
13090TIP3    H160685   5.036   0.406   3.369 -0.7286  1.1271  1.0880
13090TIP3    H260686   5.025   0.354   3.511 -0.3758 -0.6519  0.4840
13091TIP3   OH260687   0.331   1.780  15.109  0.0021  0.3127 -0.0177
13091TIP3    H160688   0.352   1.802  15.018 -1.8943  1.4058 -0.2567
13091TIP3    H260689   0.256   1.836  15.130  0.1147 -0.2448  2.0862
13092TIP3   OH260690   1.952   6.521   1.182 -0.3218 -0.4696 -0.3863
13092TIP3    H160691   1.965   6.447   1.241 -0.5902 -0.4146 -0.2551
13092TIP3    H260692   2.033   6.572   1.189  0.3222 -1.3199 -1.3089
13093TIP3   OH260693   1.546   4.229  15.345  0.0537 -0.4734 -0.7977
13093TIP3    H160694   1.534   4.223  15.440 -0.4049 -3.0302 -0.9372
13093TIP3    H260695   1.492   4.158  15.310  1.7687 -0.8782 -2.8165
13094TIP3   OH260696   1.541   0.539  11.741  0.1272 -1.1901 -0.2376
13094TIP3    H160697   1.623   0.495  11.765  0.9977  0.7873  0.6474
13094TIP3    H260698   1.527   0.603  11.810 -2.4036 -1.6935 -0.1784
13095TIP3   OH260699   2.595   1.681  14.548  0.1922 -0.0504 -0.3526
13095TIP3    H160700   2.610   1.596  14.590 -0.9470 -0.1435 -0.1236
13095TIP3    H260701   2.508   1.707  14.576  1.1874  2.0744  1.0493
13096TIP3   OH260702   4.665   0.743   3.468 -0.2529 -0.1811 -0.6792
13096TIP3    H160703   4.728   0.800   3.512 -2.0558  1.6954 -0.3277
13096TIP3    H260704   4.702   0.655   3.474  2.2216  0.8130 -0.3966
13097TIP3   OH260705   4.158   4.334   3.696 -0.4546 -0.1399 -0.3112
13097TIP3    H160706   4.077   4.352   3.744  1.1551 -0.4258  2.7737
13097TIP3    H260707   4.168   4.239   3.700 -0.0557 -0.1232 -0.8568
13098TIP3   OH260708   3.980   6.090   3.246 -0.6168  0.5844 -0.5345
13098TIP3    H160709   3.908   6.033   3.276 -0.5133  1.0857  0.7270
13098TIP3    H260710   3.964   6.173   3.290  0.5066  0.8293 -0.5752
13099TIP3   OH260711   0.587   0.536   5.494 -0.0595  0.3449 -0.3741
13099TIP3    H160712   0.531   0.593   5.547 -0.9047  0.6249 -1.5270
13099TIP3    H260713   0.676   0.557   5.522 -0.4492  0.8867  0.5200
13100TIP3   OH260714   6.134   1.676   4.171  0.4541 -0.0393 -0.3127
13100TIP3    H160715   6.089   1.700   4.253  2.1012  0.6748  0.4187
13100TIP3    H260716   6.064   1.672   4.106 -1.0511 -1.4687  1.2816
13101TIP3   OH260717   1.021   5.577  11.758  0.1259 -0.0185  0.8990
13101TIP3    H160718   1.048   5.535  11.677 -0.7276 -0.8083  1.0038
13101TIP3    H260719   1.028   5.508  11.824  0.8627  0.6303  1.5156
13102TIP3   OH260720   2.828   5.423   2.751  0.7079 -0.3951  0.2248
13102TIP3    H160721   2.770   5.445   2.678  0.4127 -0.8431  0.3167
13102TIP3    H260722   2.770   5.384   2.816  0.6646  1.4744  1.4001
13103TIP3   OH260723   5.330   5.752   1.518  0.4309  0.5876 -0.0753
13103TIP3    H160724   5.350   5.758   1.611  0.7730 -0.2697 -0.0790
13103TIP3    H260725   5.279   5.671   1.510  1.7528 -0.2199 -0.8224
13104TIP3   OH260726   0.102   3.287   5.657  0.4370 -0.4220  0.1025
13104TIP3    H160727   0.190   3.247   5.656  0.0391 -1.3113 -0.2442
13104TIP3    H260728   0.118   3.379   5.680  1.4912 -0.4891 -0.2956
13105TIP3   OH260729   5.488   2.647   2.003  0.2494 -0.3330  1.0229
13105TIP3    H160730   5.460   2.643   1.912  0.7120  0.8033  0.8203
13105TIP3    H260731   5.557   2.713   2.004  0.1018 -0.1775  2.2368
13106TIP3   OH260732   4.409   5.873  13.946  0.2333 -0.0198 -0.0210
13106TIP3    H160733   4.348   5.803  13.967  0.3300  0.1972  1.0218
13106TIP3    H260734   4.451   5.894  14.029 -2.6604  4.0688  0.7209
13107TIP3   OH260735   4.328   3.615  16.162 -0.7200  0.6508 -0.4494
13107TIP3    H160736   4.326   3.520  16.160  1.3975  0.5603 -1.1626
13107TIP3    H260737   4.314   3.638  16.254 -0.9742 -0.3530 -0.2353
13108TIP3   OH260738   5.279   3.446   1.450  0.0637  0.0982 -0.3678
13108TIP3    H160739   5.287   3.532   1.409 -1.1865  0.1877 -0.4714
13108TIP3    H260740   5.189   3.419   1.431  0.2492 -0.9612  0.1905
13109TIP3   OH260741   0.615   3.028   1.403  0.0666  0.2066 -0.0263
13109TIP3    H160742   0.561   3.040   1.324 -1.5166  0.6367  1.0722
13109TIP3    H260743   0.696   3.077   1.384  0.0050 -0.2487 -1.6219
13110TIP3   OH260744   0.489   3.118   1.637 -0.0615  0.2548 -0.0764
13110TIP3    H160745   0.446   3.038   1.667 -1.5259  1.2563  0.6017
13110TIP3    H260746   0.547   3.090   1.567  1.1567 -1.7371  1.6101
13111TIP3   OH260747   6.222   2.340   0.889  0.1462  0.2312  0.0339
13111TIP3    H160748   6.245   2.380   0.804 -1.4252  0.6579 -0.2242
13111TIP3    H260749   6.273   2.390   0.953 -0.0374  1.1335 -0.5006
13112TIP3   OH260750   1.192   6.090  11.382 -0.4239 -0.8643  0.0893
13112TIP3    H160751   1.241   6.073  11.302 -0.3874 -1.5373  0.2430
13112TIP3    H260752   1.104   6.057  11.364 -0.3319 -1.3077  0.4269
13113TIP3   OH260753   1.898   1.092   2.512 -0.2279  0.4994  0.1910
13113TIP3    H160754   1.961   1.131   2.451 -0.1126  2.8747  1.6866
13113TIP3    H260755   1.856   1.167   2.555 -0.4680 -0.9985  2.8246
13114TIP3   OH260756   2.837   2.888  13.008  0.1230  0.3905  0.1628
13114TIP3    H160757   2.814   2.937  12.928 -0.4094  1.3249  0.8707
13114TIP3    H260758   2.808   2.945  13.079  1.5318  0.0301  1.0444
13115TIP3   OH260759   2.162   3.736  15.161  0.0055 -0.1131 -0.5463
13115TIP3    H160760   2.108   3.732  15.082 -0.6479 -1.6263 -0.0608
13115TIP3    H260761   2.106   3.702  15.230  1.0966 -0.3192  0.2655
13116TIP3   OH260762   0.819   1.151  15.329 -0.1571  0.4573 -0.5406
13116TIP3    H160763   0.732   1.114  15.315 -0.2337  0.8758 -1.2386
13116TIP3    H260764   0.862   1.145  15.244  0.0550  1.3565 -0.5156
13117TIP3   OH260765   6.197   0.832  11.293  0.2629  0.2009 -0.3584
13117TIP3    H160766   6.275   0.782  11.271  0.3759  0.6189 -0.9338
13117TIP3    H260767   6.198   0.836  11.389  0.4678 -0.5394 -0.3234
13118TIP3   OH260768   1.994   3.784  15.401  0.0285  0.2970  0.2302
13118TIP3    H160769   2.089   3.798  15.406 -0.1358  1.2907  1.1504
13118TIP3    H260770   1.973   3.739  15.483 -0.2037 -0.5735 -0.3039
13119TIP3   OH260771   3.021   6.390  15.721  0.1611 -0.3511  0.1449
13119TIP3    H160772   3.097   6.335  15.737  0.5872  0.1044 -0.2729
13119TIP3    H260773   2.951   6.351  15.773  0.3864 -1.4318 -0.3538
13120TIP3   OH260774   3.802   0.781  14.173 -0.3710  0.4699  0.3442
13120TIP3    H160775   3.751   0.859  14.194 -1.1869  0.0881 -0.2065
13120TIP3    H260776   3.886   0.815  14.141 -0.0043  1.0931  1.8551
13121TIP3   OH260777   1.136   0.838   1.430 -0.2001  0.0198  0.3348
13121TIP3    H160778   1.207   0.901   1.414 -1.3477  1.4845  0.7454
13121TIP3    H260779   1.181   0.754   1.442  1.6078  1.1359  2.0707
13122TIP3   OH260780   0.338   1.437  11.967 -0.4384  0.5779  0.0533
13122TIP3    H160781   0.303   1.523  11.990 -0.4702  0.5981 -0.0708
13122TIP3    H260782   0.274   1.401  11.906 -0.1982  0.6534 -0.2486
13123TIP3   OH260783   2.178   0.587   5.310  0.4444 -0.0507 -0.1465
13123TIP3    H160784   2.107   0.529   5.281  0.3895 -0.3376  0.5455
13123TIP3    H260785   2.201   0.637   5.232 -0.6729  0.2096 -0.3291
13124TIP3   OH260786   5.065   4.519   3.023  0.3469  0.5807 -0.1719
13124TIP3    H160787   4.990   4.501   3.080  0.9296  1.5749  0.9512
13124TIP3    H260788   5.130   4.559   3.081  1.2823  0.8629 -1.3775
13125TIP3   OH260789   1.705   3.266  14.171 -0.4768 -0.0211  0.9643
13125TIP3    H160790   1.669   3.351  14.146 -1.2557 -0.4254  0.6660
13125TIP3    H260791   1.743   3.231  14.091  0.8103  0.4991  1.3278
13126TIP3   OH260792   2.096   5.957  11.855  0.0046 -0.1061 -0.1922
13126TIP3    H160793   2.010   5.932  11.886  0.5084 -1.4161  0.1927
13126TIP3    H260794   2.125   6.024  11.917  0.2394 -1.3853  1.1417
13127TIP3   OH260795   6.196   3.148   3.106  0.0437 -0.0132  0.0973
13127TIP3    H160796   6.219   3.123   3.196 -2.8872 -0.6846  0.7655
13127TIP3    H260797   6.145   3.228   3.116 -1.4638 -0.8176 -0.7776
13128TIP3   OH260798   2.398   6.384  13.193  0.2537 -0.7608 -0.5645
13128TIP3    H160799   2.424   6.317  13.130  0.6652 -0.2058 -0.9996
13128TIP3    H260800   2.361   6.454  13.139  0.7644 -0.2065 -0.2145
13129TIP3   OH260801   2.102   5.555  16.984  0.3013  0.4252 -0.4484
13129TIP3    H160802   2.133   5.484  17.040  0.3811  1.5518  0.9749
13129TIP3    H260803   2.182   5.599  16.955  0.2030  1.3307  0.5746
13130TIP3   OH260804   0.614   4.823   2.553  0.0140  0.0576  0.0537
13130TIP3    H160805   0.541   4.863   2.505  0.7249  0.5123 -0.6626
13130TIP3    H260806   0.692   4.857   2.511  0.6544 -0.2326  0.9838
13131TIP3   OH260807   6.041   0.545   2.533  0.5491  0.1588 -0.1029
13131TIP3    H160808   5.978   0.494   2.482 -0.3047  1.4337 -0.3784
13131TIP3    H260809   5.998   0.630   2.547  1.5927  0.5401  1.0153
13132TIP3   OH260810   6.302   3.925   1.200 -0.0802  0.3281 -0.8206
13132TIP3    H160811   6.218   3.935   1.244 -0.0373  1.0665 -0.8898
13132TIP3    H260812   6.314   3.831   1.193 -1.0721  0.2105 -1.1336
13133TIP3   OH260813   3.538   3.621  13.179  0.2101  0.5157 -0.1261
13133TIP3    H160814   3.557   3.537  13.222  0.7982  1.5634  1.7978
13133TIP3    H260815   3.620   3.671  13.188 -0.0731  1.2375 -1.4111
13134TIP3   OH260816   5.685   5.854  16.292 -0.0031 -0.2984  0.3646
13134TIP3    H160817   5.598   5.821  16.268  0.2460 -0.7959  0.1347
13134TIP3    H260818   5.702   5.925  16.230  1.5377 -2.9357 -2.4335
13135TIP3   OH260819   3.129   1.768  12.500 -0.0549 -0.3291  0.1220
13135TIP3    H160820   3.054   1.827  12.499 -0.1325 -0.3587 -2.5532
13135TIP3    H260821   3.196   1.816  12.549 -1.8516 -0.4913  2.9553
13136TIP3   OH260822   3.227   0.148  12.713  0.2971  0.2043 -0.5936
13136TIP3    H160823   3.255   0.091  12.642  1.4985  0.2104 -0.1479
13136TIP3    H260824   3.136   0.170  12.692  0.2790 -0.6990 -1.5203
13137TIP3   OH260825   5.960   0.050   3.647  0.6456  0.2684  0.9091
13137TIP3    H160826   5.991   0.138   3.630  2.9216 -0.4726  0.9111
13137TIP3    H260827   5.957   0.009   3.560 -0.3688  0.3103  0.9120
13138TIP3   OH260828   2.449   6.621  12.435 -0.0079 -0.0773 -0.0886
13138TIP3    H160829   2.390   6.691  12.406  0.3463 -0.1833 -1.1049
13138TIP3    H260830   2.528   6.633  12.383  1.1522  0.4785  1.7568
13139TIP3   OH260831   1.263   1.657   5.439 -0.6498  0.0941 -0.1138
13139TIP3    H160832   1.232   1.745   5.418  1.1826  0.4728 -1.4596
13139TIP3    H260833   1.261   1.653   5.534 -1.7302  1.2120 -0.0660
13140TIP3   OH260834   2.552   4.575  17.068 -0.0705  0.2183  0.3063
13140TIP3    H160835   2.581   4.666  17.059 -1.6314  0.7506  0.2919
13140TIP3    H260836   2.540   4.545  16.978 -3.1723  1.2906  0.2354
13141TIP3   OH260837   5.111   5.158   1.732 -0.5942  0.2055 -0.4631
13141TIP3    H160838   5.048   5.126   1.668 -0.1966 -1.6267 -0.0060
13141TIP3    H260839   5.059   5.176   1.811 -0.8455  0.9064 -0.7787
13142TIP3   OH260840   1.116   6.581   1.082  0.5857  0.2364  0.0612
13142TIP3    H160841   1.138   6.539   1.165  0.4551  1.3267  0.6570
13142TIP3    H260842   1.142   6.672   1.093 -1.0581  0.8050 -0.4443
13143TIP3   OH260843   6.045   5.425  10.935  0.0073 -0.0784 -0.8423
13143TIP3    H160844   6.080   5.395  10.852  0.3136 -0.2908 -0.6397
13143TIP3    H260845   5.954   5.448  10.917  0.2147  0.3566 -1.3432
13144TIP3   OH260846   3.277   2.142   3.830 -0.3860 -0.3723 -0.3847
13144TIP3    H160847   3.207   2.154   3.766 -0.4625  2.0253  0.0518
13144TIP3    H260848   3.341   2.210   3.809  0.6366 -0.9412  0.7473
13145TIP3   OH260849   3.652   1.485  10.602 -0.2133 -0.2001  0.3984
13145TIP3    H160850   3.739   1.452  10.582 -0.1949 -0.0479  0.2245
13145TIP3    H260851   3.595   1.409  10.594 -0.0073 -0.4464  1.1581
13146TIP3   OH260852   1.515   0.183   3.532 -0.0661  0.6384  0.2115
13146TIP3    H160853   1.483   0.215   3.448  0.8870  2.4366  0.4986
13146TIP3    H260854   1.461   0.227   3.597 -0.8671 -0.8245  0.5749
13147TIP3   OH260855   5.953   4.388  12.913  0.0663 -0.6156 -0.6003
13147TIP3    H160856   5.969   4.338  12.993  0.5505 -1.2220 -1.0661
13147TIP3    H260857   5.858   4.397  12.909  0.0839  2.0333  1.6037
13148TIP3   OH260858   3.208   1.631  13.126  0.2030 -0.0818  0.2318
13148TIP3    H160859   3.223   1.548  13.172 -1.5149 -0.2837  0.4846
13148TIP3    H260860   3.114   1.631  13.106 -0.0548  2.2512  1.1330
13149TIP3   OH260861   3.896   4.047  12.347 -0.1600  0.1514 -0.0137
13149TIP3    H160862   3.811   4.028  12.307  0.2476 -0.5916 -0.5470
13149TIP3    H260863   3.942   4.099  12.282  0.1797 -0.3152 -0.1446
13150TIP3   OH260864   0.549   4.225  11.001  0.2894 -0.2154  0.4322
13150TIP3    H160865   0.571   4.133  11.015  0.2546 -0.1817  0.7259
13150TIP3    H260866   0.471   4.239  11.056 -1.2203 -0.6364 -1.4710
13151TIP3   OH260867   2.708   0.078   3.971 -0.1349 -0.5720 -0.1481
13151TIP3    H160868   2.706   0.120   3.884  0.2640 -0.8197 -0.2775
13151TIP3    H260869   2.765   0.002   3.960  1.6003  0.5202  0.8331
13152TIP3   OH260870   5.573   2.950  16.929 -0.5651 -0.4231  0.0256
13152TIP3    H160871   5.490   2.988  16.958  1.1690  1.8645  2.4848
13152TIP3    H260872   5.620   3.024  16.889  1.0268 -1.1561  0.4629
13153TIP3   OH260873   4.988   1.973  17.323  0.0713  0.2726  0.5511
13153TIP3    H160874   5.060   1.913  17.304  1.7772  1.6882  2.1240
13153TIP3    H260875   4.921   1.918  17.363 -0.9787 -1.5797 -3.2939
13154TIP3   OH260876   3.704   3.314   4.604  0.4196  0.6028 -0.3917
13154TIP3    H160877   3.773   3.315   4.670 -0.1337  0.7749  0.1968
13154TIP3    H260878   3.623   3.330   4.653 -0.0143  0.6454 -1.0973
13155TIP3   OH260879   2.535   2.881  16.528  0.1304  0.2778 -0.0199
13155TIP3    H160880   2.504   2.929  16.604 -1.8098 -0.1440 -0.5010
13155TIP3    H260881   2.582   2.806  16.564 -0.4487  0.2800  0.7572
13156TIP3   OH260882   6.748   1.659   3.629  0.2246  0.3267 -0.4758
13156TIP3    H160883   6.813   1.590   3.642 -0.3204 -0.3130 -1.0321
13156TIP3    H260884   6.667   1.611   3.611  0.4884  1.0466 -4.3742
13157TIP3   OH260885   5.899   3.012   0.236  0.2172 -0.1427 -0.0155
13157TIP3    H160886   5.891   3.104   0.214 -1.9882 -0.5017 -0.9483
13157TIP3    H260887   5.961   2.977   0.172 -0.2573  0.3642 -0.7635
13158TIP3   OH260888   1.133   6.278  15.898 -0.4787  0.0325  0.1343
13158TIP3    H160889   1.141   6.303  15.990 -2.3651  0.0788  0.3375
13158TIP3    H260890   1.215   6.233  15.877  0.7341  1.5783  1.3124
13159TIP3   OH260891   0.339   0.804  13.308 -0.5161  0.0059  0.3684
13159TIP3    H160892   0.393   0.883  13.309 -1.3930  0.6354  2.1955
13159TIP3    H260893   0.256   0.831  13.348 -1.9430 -1.1302 -1.6090
13160TIP3   OH260894   5.790   1.083  12.563 -0.1959 -0.3194  0.2160
13160TIP3    H160895   5.815   1.111  12.475 -1.8963  0.4498 -0.0440
13160TIP3    H260896   5.774   1.164  12.611  2.1843 -0.6568  1.7452
13161TIP3   OH260897   4.772   0.450  16.998  0.6981 -0.4427 -0.2140
13161TIP3    H160898   4.775   0.433  16.904  0.4033 -3.5986  0.2487
13161TIP3    H260899   4.764   0.363  17.038  2.6413  0.6207  2.8164
13162TIP3   OH260900   1.181   5.523   5.448 -0.2708 -0.1017  0.8411
13162TIP3    H160901   1.226   5.574   5.380  0.1120  0.9361  1.8477
13162TIP3    H260902   1.240   5.449   5.465 -0.3313 -0.3267  0.1170
13163TIP3   OH260903   2.673   0.546  12.261  0.1733  0.3397 -0.0099
13163TIP3    H160904   2.704   0.466  12.218 -0.7024 -0.0838  0.1396
13163TIP3    H260905   2.753   0.590  12.290  0.6245 -1.2596  1.3055
13164TIP3   OH260906   4.824   1.015   0.388  0.2676  0.3660  0.3683
13164TIP3    H160907   4.793   1.026   0.298 -2.1724  2.6133  1.3653
13164TIP3    H260908   4.891   0.947   0.382 -0.3598 -0.1200 -3.0031
13165TIP3   OH260909   0.124   4.145  16.231 -0.1420 -0.1031 -0.1919
13165TIP3    H160910   0.033   4.176  16.226 -0.3210 -0.2138  1.7401
13165TIP3    H260911   0.131   4.079  16.162 -1.2041  0.6439 -1.0554
13166TIP3   OH260912   2.312   2.993  13.361  0.1989 -0.1037  0.4607
13166TIP3    H160913   2.403   3.020  13.350  0.4792 -0.9892  0.5275
13166TIP3    H260914   2.275   3.057  13.421  0.6802  0.4631  0.1583
13167TIP3   OH260915   1.840   4.184   1.127  0.0789  0.1885 -0.0619
13167TIP3    H160916   1.901   4.160   1.057  0.7051 -0.2930  0.6394
13167TIP3    H260917   1.776   4.241   1.084 -0.1471 -0.9262 -1.2605
13168TIP3   OH260918   1.029   6.339  13.327  0.8207  0.4936  0.7849
13168TIP3    H160919   0.965   6.330  13.257  3.0488 -2.4164 -1.1521
13168TIP3    H260920   1.035   6.433  13.343 -1.0381  1.1394 -1.7151
13169TIP3   OH260921   0.899   4.071  13.420  0.5371  0.0676 -0.0484
13169TIP3    H160922   0.987   4.105  13.408  0.1620  1.8388  1.6669
13169TIP3    H260923   0.842   4.138  13.380 -0.1110  0.2125  1.0729
13170TIP3   OH260924   1.452   3.095  15.863  0.1402  0.6601  0.1504
13170TIP3    H160925   1.542   3.098  15.897 -0.4722 -0.8241  2.0785
13170TIP3    H260926   1.414   3.179  15.888  0.6658  0.8673  0.2631
13171TIP3   OH260927   2.210   5.597   1.822  0.0318 -0.0237  0.0645
13171TIP3    H160928   2.232   5.660   1.891  0.4846  0.5294 -0.5737
13171TIP3    H260929   2.277   5.529   1.829  0.4509  0.3534 -0.2270
13172TIP3   OH260930   1.227   1.274  12.237  0.0075 -0.2421  0.3275
13172TIP3    H160931   1.303   1.219  12.258 -0.0974 -1.2018 -1.5767
13172TIP3    H260932   1.166   1.215  12.194 -1.3457  0.7830  0.7738
13173TIP3   OH260933   4.987   3.268  16.945 -0.9320 -0.9177  0.1575
13173TIP3    H160934   4.984   3.328  16.870 -0.5685 -0.0648  0.8178
13173TIP3    H260935   4.907   3.216  16.937 -0.4032 -1.5865 -1.4247
13174TIP3   OH260936   1.026   5.305  14.219  0.1774  0.3522 -0.1009
13174TIP3    H160937   1.075   5.324  14.298  0.4813 -2.4292  0.4571
13174TIP3    H260938   1.022   5.210  14.214 -0.8706  0.4306 -2.8080
13175TIP3   OH260939   5.292   1.239   5.567 -0.3062 -0.5326 -0.6871
13175TIP3    H160940   5.247   1.322   5.585  0.6083 -0.5464  2.1487
13175TIP3    H260941   5.237   1.172   5.608  0.8222 -0.8669  0.3282
13176TIP3   OH260942   6.298   2.726   3.195 -0.5993 -0.1228  0.0973
13176TIP3    H160943   6.249   2.781   3.255 -2.1941 -0.2533 -1.0053
13176TIP3    H260944   6.346   2.665   3.251 -1.0018  0.5801  1.2431
13177TIP3   OH260945   6.572   3.264  12.987 -0.5294  0.0896  0.0400
13177TIP3    H160946   6.656   3.239  13.026 -0.4617 -1.1084 -0.8189
13177TIP3    H260947   6.510   3.197  13.017 -0.5601 -0.6330 -1.5320
13178TIP3   OH260948   2.016   4.234  14.856  0.6297  0.1236  0.1053
13178TIP3    H160949   2.104   4.212  14.887  0.0312  0.6472  2.3753
13178TIP3    H260950   1.985   4.300  14.918 -1.7625 -0.8485  0.0390
13179TIP3   OH260951   4.411   5.165   0.394  0.4765  0.0221  0.0572
13179TIP3    H160952   4.428   5.146   0.302  1.6404 -1.2888  0.5167
13179TIP3    H260953   4.393   5.080   0.434  0.1697  0.5517  1.0903
13180TIP3   OH260954   3.600   5.434  16.945 -0.1230  0.3370  0.3519
13180TIP3    H160955   3.633   5.505  16.890  0.1590 -0.7226 -0.8949
13180TIP3    H260956   3.644   5.446  17.029  2.6472 -0.3764 -0.9019
13181TIP3   OH260957   4.989   2.658   0.654 -0.4698 -0.2673 -0.8401
13181TIP3    H160958   5.068   2.697   0.617 -0.7693  2.3066  0.9938
13181TIP3    H260959   5.010   2.641   0.746 -1.2733 -2.0068 -0.9225
13182TIP3   OH260960   3.915   1.128  12.045 -0.1232  0.3306 -0.2843
13182TIP3    H160961   3.905   1.173  11.961  0.3011 -0.5476 -0.8109
13182TIP3    H260962   3.836   1.153  12.094 -0.6369  0.4249 -1.1328
13183TIP3   OH260963   1.237   0.592  11.623  0.6844 -0.1645 -0.3902
13183TIP3    H160964   1.321   0.559  11.591  1.2694  0.7136  0.1886
13183TIP3    H260965   1.171   0.540  11.576  1.5133  0.1476 -1.9638
13184TIP3   OH260966   6.230   6.190   6.388  0.2889  0.3231  0.0893
13184TIP3    H160967   6.250   6.271   6.436 -0.0822  0.0099  0.7886
13184TIP3    H260968   6.193   6.132   6.455  0.2039 -0.2898 -0.4894
13185TIP3   OH260969   1.217   4.321  15.606 -0.1127  0.5427 -0.1990
13185TIP3    H160970   1.224   4.396  15.665 -1.4262 -0.2448  1.0381
13185TIP3    H260971   1.171   4.355  15.529 -1.3175  0.8981  0.6444
13186TIP3   OH260972   5.250   2.246  12.866 -0.9380 -0.2802 -0.0691
13186TIP3    H160973   5.192   2.317  12.894  0.5952  1.1466 -0.3415
13186TIP3    H260974   5.216   2.220  12.781 -0.7001  1.1169 -0.6098
13187TIP3   OH260975   1.550   0.394   4.232  0.4709  0.3203 -0.6840
13187TIP3    H160976   1.504   0.477   4.239 -1.5135 -0.7462 -0.1187
13187TIP3    H260977   1.546   0.371   4.139  2.0625  1.3712 -1.0370
13188TIP3   OH260978   0.696   1.399   4.409  0.3391  0.0392  0.2584
13188TIP3    H160979   0.768   1.399   4.472  0.1583 -0.9355  0.4867
13188TIP3    H260980   0.654   1.484   4.421  1.5891  0.7339 -0.0571
13189TIP3   OH260981   1.883   5.178   5.045 -0.2210 -0.4505 -0.4495
13189TIP3    H160982   1.917   5.145   5.128  1.1827 -0.3944 -0.9766
13189TIP3    H260983   1.934   5.257   5.028  0.6719 -1.3516 -2.1526
13190TIP3   OH260984   2.401   6.321   4.741 -0.6211  0.2298  0.2982
13190TIP3    H160985   2.389   6.375   4.820 -0.8078 -0.3894  0.7031
13190TIP3    H260986   2.482   6.354   4.702 -0.6567  0.7074  0.6163
13191TIP3   OH260987   6.549   2.696  13.556  0.1193 -0.2485  0.0166
13191TIP3    H160988   6.569   2.706  13.650 -2.0477  0.4982  0.4624
13191TIP3    H260989   6.487   2.623  13.553  0.9468 -0.9257 -0.9843
13192TIP3   OH260990   6.664   4.072  11.956 -0.2773  0.0631 -0.2115
13192TIP3    H160991   6.634   4.077  11.865 -0.0587  0.5668 -0.2569
13192TIP3    H260992   6.583   4.068  12.007 -0.3955 -1.2904 -0.4780
13193TIP3   OH260993   2.863   3.222   0.424 -0.3129  0.3127 -0.5025
13193TIP3    H160994   2.916   3.302   0.429  1.0811 -0.6603  1.7720
13193TIP3    H260995   2.839   3.204   0.515 -0.7590 -1.7591 -0.9975
13194TIP3   OH260996   3.441   3.797  15.572 -0.2029  0.5485 -0.5710
13194TIP3    H160997   3.379   3.735  15.535 -1.2405  0.2540  1.4976
13194TIP3    H260998   3.493   3.827  15.498 -2.5269  0.4955 -2.3176
13195TIP3   OH260999   1.443   5.180  14.553 -0.6136 -0.0157 -0.3852
13195TIP3    H161000   1.530   5.147  14.576 -1.2948  0.5394  3.5785
13195TIP3    H261001   1.383   5.111  14.581 -1.5811  0.4957 -1.1373
13196TIP3   OH261002   2.221   4.354  16.706  0.2850  0.2780  0.0275
13196TIP3    H161003   2.165   4.432  16.705 -1.0903 -0.6943 -1.3268
13196TIP3    H261004   2.219   4.321  16.617 -1.3960 -2.8551  1.0861
13197TIP3   OH261005   2.655   1.759  16.392  0.0155 -0.3898  0.0985
13197TIP3    H161006   2.716   1.703  16.440  0.2698  0.7085  1.1211
13197TIP3    H261007   2.651   1.721  16.304  1.2914 -1.1460  0.3361
13198TIP3   OH261008   4.372   3.240  12.311  0.2256 -0.2703  0.7732
13198TIP3    H161009   4.404   3.151  12.324 -1.6494 -1.1502 -0.1260
13198TIP3    H261010   4.283   3.229  12.278  0.0042  1.9482  0.4216
13199TIP3   OH261011   3.139   2.464   5.146 -0.1046  0.3482  0.0276
13199TIP3    H161012   3.089   2.540   5.174  1.2787  0.2121  3.3022
13199TIP3    H261013   3.215   2.500   5.101  0.9277  1.0380  2.2083
13200TIP3   OH261014   0.193   2.110  14.257  0.2238 -0.4247 -0.3167
13200TIP3    H161015   0.255   2.107  14.184 -0.5842 -0.9049 -1.0132
13200TIP3    H261016   0.177   2.203  14.271  0.2969 -0.3311 -0.8313
13201TIP3   OH261017   0.674   2.069   5.431  0.5956  0.0098  0.1381
13201TIP3    H161018   0.701   2.136   5.493 -1.7453  0.8822  0.3480
13201TIP3    H261019   0.603   2.023   5.475  0.5544 -1.0127 -0.9445
13202TIP3   OH261020   5.087   1.818   0.251  0.1102 -0.1002 -0.1439
13202TIP3    H161021   5.065   1.883   0.318 -0.4495  0.0204 -0.4444
13202TIP3    H261022   5.003   1.780   0.224  0.3875 -0.6167 -0.3100
13203TIP3   OH261023   4.881   1.733   0.083 -0.2863  0.3523 -0.3210
13203TIP3    H161024   4.910   1.652   0.041 -0.0226 -1.0930  2.3848
13203TIP3    H261025   4.788   1.740   0.060 -0.4946 -1.1342 -0.0843
13204TIP3   OH261026   3.101   4.819  16.237 -0.1140 -0.3162 -0.0709
13204TIP3    H161027   3.077   4.910  16.252  1.7663  0.2831 -0.4616
13204TIP3    H261028   3.027   4.783  16.188 -0.3549  1.3469 -1.0105
13205TIP3   OH261029   0.890   6.116  12.992  0.3075  0.4805  0.1521
13205TIP3    H161030   0.969   6.087  12.947  0.0629 -1.1261  0.6685
13205TIP3    H261031   0.852   6.183  12.935  1.1729  0.0951 -0.9132
13206TIP3   OH261032   5.690   4.443   1.646  0.3247 -0.2395 -0.6758
13206TIP3    H161033   5.728   4.510   1.590 -2.0272  2.1082  0.3131
13206TIP3    H261034   5.596   4.462   1.646 -0.2445 -2.6227  0.8781
13207TIP3   OH261035   4.995   5.469  10.322  0.7588  0.0477 -0.0958
13207TIP3    H161036   5.058   5.524  10.370 -0.0232 -1.0565  2.3565
13207TIP3    H261037   5.031   5.381  10.328 -1.1172 -0.6947  1.7780
13208TIP3   OH261038   0.640   1.324  17.113 -0.2624  0.3103 -0.1475
13208TIP3    H161039   0.571   1.389  17.123  0.2103  1.7407 -4.2045
13208TIP3    H261040   0.594   1.241  17.096 -0.8591  0.1639  1.9287
13209TIP3   OH261041   2.359   3.586   2.269 -0.1149 -0.4426 -0.2035
13209TIP3    H161042   2.308   3.564   2.347  1.2042  0.7082  1.0634
13209TIP3    H261043   2.306   3.555   2.195 -1.7421 -0.9311  1.1091
13210TIP3   OH261044   5.277   5.373   5.332 -0.5966 -0.0723 -0.1571
13210TIP3    H161045   5.329   5.427   5.391  2.4702 -1.0941 -1.7100
13210TIP3    H261046   5.335   5.354   5.259 -2.1179 -3.9097 -0.6011
13211TIP3   OH261047   3.895   6.720   4.953 -0.1946 -0.0134 -0.3671
13211TIP3    H161048   3.849   6.754   4.876 -0.9522 -0.3546 -0.0831
13211TIP3    H261049   3.983   6.701   4.923 -0.7655 -1.1072 -1.4250
13212TIP3   OH261050   5.589   1.873   4.981  0.2194  0.0129  0.3598
13212TIP3    H161051   5.606   1.805   5.046 -0.1926 -0.5590 -0.1218
13212TIP3    H261052   5.617   1.954   5.023  1.6738 -0.5704  0.5556
13213TIP3   OH261053   0.134   1.670  14.596 -0.5570 -0.0332 -0.1956
13213TIP3    H161054   0.133   1.757  14.555  0.2967  1.4508  2.6494
13213TIP3    H261055   0.049   1.663  14.638 -0.1044  0.0826  0.7668
13214TIP3   OH261056   2.565   5.117  16.000  0.0096 -0.1604 -0.2537
13214TIP3    H161057   2.638   5.135  15.941  1.0749  1.8906  1.5708
13214TIP3    H261058   2.588   5.160  16.082 -1.9283 -1.9510  1.3577
13215TIP3   OH261059   0.819   6.018   4.439 -0.0482 -0.4277  0.0125
13215TIP3    H161060   0.750   6.076   4.409 -1.5596 -0.5739  2.8694
13215TIP3    H261061   0.898   6.048   4.393 -1.5074  1.3447 -1.4677
13216TIP3   OH261062   2.516   6.023   3.860  0.3306  0.2505  0.2989
13216TIP3    H161063   2.469   5.951   3.818  0.6167  0.1206  0.2019
13216TIP3    H261064   2.515   6.001   3.953 -0.1937  0.4754  0.3536
13217TIP3   OH261065   4.776   0.586  15.235 -0.5419  0.0750 -0.1790
13217TIP3    H161066   4.731   0.666  15.208 -1.3845 -0.7360 -1.2156
13217TIP3    H261067   4.848   0.577  15.173  0.2811  0.6545  0.6693
13218TIP3   OH261068   0.084   0.094  17.404  0.1541 -0.3852 -0.5257
13218TIP3    H161069   0.095   0.010  17.450  0.1953 -0.7775 -1.2315
13218TIP3    H261070   0.002   0.129  17.438 -1.6720 -2.3002 -2.5800
13219TIP3   OH261071   6.411   2.175   5.050 -0.5594  0.7753  0.1694
13219TIP3    H161072   6.451   2.091   5.074 -1.1467  0.9606  1.9357
13219TIP3    H261073   6.451   2.238   5.110 -0.9258  1.5622 -0.4065
13220TIP3   OH261074   4.617   5.645   5.407 -0.0035 -0.0466  0.2640
13220TIP3    H161075   4.678   5.643   5.333  1.5709 -0.4966  1.5076
13220TIP3    H261076   4.660   5.701   5.472 -1.7431  1.0381  0.5376
13221TIP3   OH261077   6.467   4.801   1.374 -0.2980 -0.9414 -0.3371
13221TIP3    H161078   6.380   4.837   1.388  0.5554  1.0118  0.3408
13221TIP3    H261079   6.500   4.847   1.296  0.9710  0.1451  0.7786
13222TIP3   OH261080   5.181   1.434   1.308  0.3875  1.0007  0.5923
13222TIP3    H161081   5.221   1.438   1.221  1.7065  2.3310  1.2216
13222TIP3    H261082   5.235   1.371   1.356 -1.4700 -1.1919 -0.0493
13223TIP3   OH261083   0.058   5.212   4.960 -0.1839 -0.0806  0.2011
13223TIP3    H161084   0.043   5.131   4.911  0.1504 -0.3400  0.5243
13223TIP3    H261085   0.027   5.281   4.902  0.3516 -0.3717 -0.4416
13224TIP3   OH261086   2.445   3.411  15.847  0.1728 -0.0138 -0.3849
13224TIP3    H161087   2.439   3.466  15.769 -1.5340  1.3272  0.5962
13224TIP3    H261088   2.390   3.336  15.828 -0.8281  0.6608 -0.2522
13225TIP3   OH261089   1.092   0.436   5.506 -0.3792  0.0487  0.6915
13225TIP3    H161090   1.042   0.361   5.539 -0.2687 -0.2662  0.1542
13225TIP3    H261091   1.180   0.423   5.541  1.0575 -2.7855 -3.2221
13226TIP3   OH261092   6.638   2.181   3.344  0.0681 -0.5045  0.1891
13226TIP3    H161093   6.666   2.106   3.397  0.1959  0.5166  1.6332
13226TIP3    H261094   6.546   2.163   3.325 -0.4810 -0.1288  2.2295
13227TIP3   OH261095   0.009   0.125  15.907 -0.1015 -0.4850  0.4203
13227TIP3    H161096  -0.084   0.107  15.891 -0.1115  0.6001 -0.9202
13227TIP3    H261097   0.043   0.153  15.823  0.8369  1.5714  1.4071
13228TIP3   OH261098   0.098   5.020  11.122  0.0253 -0.3567 -0.0007
13228TIP3    H161099   0.065   5.037  11.034 -0.4330 -2.4355 -0.2750
13228TIP3    H261100   0.025   5.041  11.180 -0.0905 -0.1835 -0.2085
13229TIP3   OH261101   5.356   0.002   6.001  0.0852  0.1091  0.3072
13229TIP3    H161102   5.342  -0.092   5.991 -0.6117  0.3178 -0.8461
13229TIP3    H261103   5.319   0.023   6.087 -1.0877 -0.4197 -0.0602
13230TIP3   OH261104   4.444   0.801   4.930 -0.5024 -0.0849  0.0818
13230TIP3    H161105   4.418   0.772   5.018 -0.2785  0.2966  0.2756
13230TIP3    H261106   4.428   0.724   4.875 -1.7644  0.0497  0.2338
13231TIP3   OH261107   2.659   2.843   5.546  0.2511  0.2073  0.1421
13231TIP3    H161108   2.566   2.867   5.540  0.3599  0.4764 -0.5673
13231TIP3    H261109   2.699   2.915   5.596  0.2015  0.4522 -0.1665
13232TIP3   OH261110   1.115   6.055  12.848 -0.3939  0.1002 -0.2156
13232TIP3    H161111   1.190   6.072  12.791 -1.1635 -0.6681 -1.4908
13232TIP3    H261112   1.142   5.981  12.902 -0.2547 -0.2355 -0.7368
13233TIP3   OH261113   3.330   6.448  17.285  0.6260 -0.5798 -0.6064
13233TIP3    H161114   3.378   6.530  17.292  1.1262 -0.6009 -2.9748
13233TIP3    H261115   3.245   6.472  17.248  0.7374 -1.1004 -1.2214
13234TIP3   OH261116   6.017   6.534  12.962  0.1760  0.5784 -0.3963
13234TIP3    H161117   5.972   6.610  12.927  1.3824  1.5919  0.1910
13234TIP3    H261118   5.985   6.526  13.052 -2.2011 -1.4522 -1.3137
13235TIP3   OH261119   3.702   6.279  11.376 -0.5277  0.1143 -0.6886
13235TIP3    H161120   3.633   6.294  11.312 -1.4458 -2.5384 -0.4668
13235TIP3    H261121   3.660   6.288  11.461 -0.1808  0.1588 -0.5169
13236TIP3   OH261122   3.373   0.014   5.400 -0.6064 -0.2688  0.3562
13236TIP3    H161123   3.283  -0.008   5.377  0.0283 -3.2336  0.2713
13236TIP3    H261124   3.406  -0.063   5.446  1.8107  0.8242  0.6411
13237TIP3   OH261125   0.221   6.122  14.382 -0.0050 -0.0795 -0.6847
13237TIP3    H161126   0.156   6.084  14.323  0.3144 -2.9185  0.6254
13237TIP3    H261127   0.237   6.054  14.448  2.2878  1.5609  0.6204
13238TIP3   OH261128   3.866   4.801   1.616 -0.2255 -0.1280 -0.4033
13238TIP3    H161129   3.950   4.811   1.571 -1.0111 -2.2268 -2.5972
13238TIP3    H261130   3.874   4.717   1.662 -0.4433  0.6548  1.1173
13239TIP3   OH261131   5.581   1.964  13.801 -0.2411  0.4346 -0.1460
13239TIP3    H161132   5.637   1.887  13.805 -0.9389 -0.1597 -1.3553
13239TIP3    H261133   5.530   1.961  13.882 -1.8801 -1.6743 -1.1675
13240TIP3   OH261134   1.042   6.372  16.141  0.4577  0.7623 -0.2233
13240TIP3    H161135   1.105   6.440  16.166 -0.5223  1.4571  0.4236
13240TIP3    H261136   0.990   6.357  16.220 -0.2426  0.2499 -0.7697
13241TIP3   OH261137   1.617   4.508  16.337  0.2325  0.4955  0.4116
13241TIP3    H161138   1.706   4.541  16.322  0.1819  0.9889  1.1434
13241TIP3    H261139   1.629   4.422  16.376  0.3783  0.2591 -0.1452
13242TIP3   OH261140   6.479   1.235   3.580  0.6879  0.0516 -0.0344
13242TIP3    H161141   6.510   1.219   3.669 -0.1794  1.1460  0.5035
13242TIP3    H261142   6.505   1.158   3.530  0.5349 -0.9160  1.3408
13243TIP3   OH261143   0.585   4.908  16.590  0.2658  0.4558 -0.0409
13243TIP3    H161144   0.536   4.957  16.656 -0.2447  2.5732 -1.8823
13243TIP3    H261145   0.520   4.850  16.551 -0.1089  1.1699 -0.5024
13244TIP3   OH261146   2.537   2.845   1.895  0.1518 -0.3977 -0.3801
13244TIP3    H161147   2.494   2.763   1.919  1.7495 -0.4548  2.8149
13244TIP3    H261148   2.466   2.908   1.888 -0.8009 -1.1855  1.3922
13245TIP3   OH261149   5.371   0.282  16.292 -0.2400  0.3746 -0.0753
13245TIP3    H161150   5.354   0.189  16.277 -0.9976  0.5959 -0.6887
13245TIP3    H261151   5.391   0.288  16.385 -2.3913 -0.1112  0.4766
13246TIP3   OH261152   5.408   2.610   4.132 -0.1952  0.0765 -0.2339
13246TIP3    H161153   5.463   2.536   4.106  0.2495  0.4651 -0.4105
13246TIP3    H261154   5.390   2.656   4.049 -0.1449  0.3892 -0.0718
13247TIP3   OH261155   0.017   1.839   5.953  0.1077 -0.0328 -0.0874
13247TIP3    H161156   0.112   1.839   5.938  0.4316  0.7019  1.7303
13247TIP3    H261157  -0.014   1.917   5.908  0.4448  0.0104 -0.2511
13248TIP3   OH261158   2.881   5.228   3.056  0.6355  0.0905  0.0164
13248TIP3    H161159   2.900   5.319   3.035  1.7961 -0.1001  0.1743
13248TIP3    H261160   2.843   5.231   3.144  0.4522  0.4353 -0.0727
13249TIP3   OH261161   2.582   5.028   5.259 -0.2701  0.3539 -0.0258
13249TIP3    H161162   2.582   5.117   5.225  2.3528  0.1946 -0.6611
13249TIP3    H261163   2.656   5.026   5.320 -0.1390 -1.4430 -0.2027
13250TIP3   OH261164   1.446   2.263   4.070 -0.1900 -0.1704 -0.0163
13250TIP3    H161165   1.368   2.249   4.125 -1.1553 -0.1512 -1.3243
13250TIP3    H261166   1.412   2.264   3.981  1.3007  0.0852 -0.6084
13251TIP3   OH261167   0.208   6.736  12.108  0.2630  0.0296  1.1742
13251TIP3    H161168   0.302   6.717  12.110  0.7301  2.1368  0.8225
13251TIP3    H261169   0.190   6.758  12.016 -0.7511 -0.9754  1.0950
13252TIP3   OH261170   4.104   5.221  12.342  0.2700  0.0241  0.1475
13252TIP3    H161171   4.141   5.189  12.424  0.8648 -1.5222 -0.6724
13252TIP3    H261172   4.053   5.147  12.309 -3.2776  1.9027  0.9896
13253TIP3   OH261173   3.630   5.714  12.625  0.4754 -0.2546 -0.4184
13253TIP3    H161174   3.616   5.730  12.532  1.8627  2.8603 -0.2331
13253TIP3    H261175   3.718   5.676  12.630  0.5688 -0.0285 -0.3492
13254TIP3   OH261176   1.902   2.385   3.352  1.0053  0.2156  0.0262
13254TIP3    H161177   1.914   2.441   3.429  3.5154  1.7118 -1.3098
13254TIP3    H261178   1.843   2.435   3.295 -1.4800 -1.2347  1.1824
13255TIP3   OH261179   3.912   1.063  12.798 -0.3057  0.2746  0.4104
13255TIP3    H161180   3.901   0.972  12.770  1.9506  0.0014  0.1919
13255TIP3    H261181   3.966   1.058  12.877  1.3070  1.4542 -0.5455
13256TIP3   OH261182   0.711   1.237   0.668 -0.2503 -0.7139  0.3902
13256TIP3    H161183   0.648   1.172   0.699 -0.6915 -0.2026  0.5677
13256TIP3    H261184   0.739   1.283   0.747 -1.4436  0.6575  0.0444
13257TIP3   OH261185   5.658   3.948   4.467 -0.1959 -0.3779  0.1971
13257TIP3    H161186   5.715   3.964   4.391  0.7826  0.0787  0.9991
13257TIP3    H261187   5.683   3.861   4.498  1.8772  0.7586  2.0026
13258TIP3   OH261188   5.613   5.757   0.268  0.4659  0.2012 -0.4911
13258TIP3    H161189   5.649   5.845   0.282  0.6856  0.3199 -1.6700
13258TIP3    H261190   5.607   5.749   0.172  1.1616 -1.3496 -0.4297
13259TIP3   OH261191   1.095   5.341   4.840 -0.1365  0.5979 -0.4898
13259TIP3    H161192   1.190   5.353   4.830  0.2733 -1.4228  0.5127
13259TIP3    H261193   1.064   5.425   4.873  1.4522  1.0180  0.0505
13260TIP3   OH261194   1.706   6.253  13.839  0.5473  0.4023  0.0646
13260TIP3    H161195   1.710   6.196  13.762  1.1073 -0.3289  0.6291
13260TIP3    H261196   1.796   6.282  13.852  0.3157  1.1989 -0.0454
13261TIP3   OH261197   3.001   5.564  13.670 -0.1231  0.2976 -0.1039
13261TIP3    H161198   3.016   5.565  13.764 -1.3246 -0.0735  0.1153
13261TIP3    H261199   3.078   5.521  13.633  0.7713  1.2320  0.6119
13262TIP3   OH261200   3.137   6.020  13.321 -0.0105  0.5579 -0.4342
13262TIP3    H161201   3.095   5.966  13.254 -0.6217  1.5678 -0.8804
13262TIP3    H261202   3.150   5.960  13.395  0.8803 -0.6212 -1.5157
13263TIP3   OH261203   4.685   4.602  14.778 -0.1030 -0.6980 -0.1272
13263TIP3    H161204   4.652   4.633  14.863 -0.0237  3.5989 -1.4264
13263TIP3    H261205   4.742   4.673  14.747  0.6963 -2.5476 -3.3341
13264TIP3   OH261206   4.103   0.332  13.295  0.0034 -0.3973 -0.1843
13264TIP3    H161207   4.167   0.278  13.340 -0.0208  0.8504  1.4341
13264TIP3    H261208   4.052   0.271  13.242  1.0633 -1.7008  0.2568
13265TIP3   OH261209   1.498   6.733  14.293  0.5931  0.0864 -0.0301
13265TIP3    H161210   1.570   6.760  14.237  1.1819 -0.1899  0.5884
13265TIP3    H261211   1.518   6.643  14.318 -0.7787 -0.5786 -1.1486
13266TIP3   OH261212   4.512   5.038  16.170  0.4047  0.5832 -0.2870
13266TIP3    H161213   4.547   5.100  16.234  2.0586  1.4546 -1.9182
13266TIP3    H261214   4.504   4.956  16.217  1.0782  1.3183  1.1677
13267TIP3   OH261215   1.952   0.514  13.334 -0.1774 -0.2094 -0.4162
13267TIP3    H161216   1.988   0.468  13.258  1.4571 -0.2175  0.3241
13267TIP3    H261217   1.974   0.606  13.319 -1.8781  0.1402 -1.0268
13268TIP3   OH261218   1.864   5.407  16.526 -0.2320 -0.0757 -0.7529
13268TIP3    H161219   1.815   5.488  16.542  0.0685  0.2373 -1.4055
13268TIP3    H261220   1.896   5.415  16.437  1.4084 -0.0797 -0.1869
13269TIP3   OH261221   6.664   5.700  13.239  0.0766 -0.3080  0.0406
13269TIP3    H161222   6.672   5.752  13.159 -1.0833  0.2600  0.2697
13269TIP3    H261223   6.693   5.612  13.214  3.2216  0.6272 -0.0703
13270TIP3   OH261224   1.838   5.437  12.065  0.4063  0.2140 -0.1075
13270TIP3    H161225   1.746   5.417  12.049  1.1660 -1.5235 -2.9427
13270TIP3    H261226   1.867   5.369  12.126  0.6833 -1.8118 -2.3549
13271TIP3   OH261227   0.461   0.342  12.574 -0.6769 -0.3521  0.6739
13271TIP3    H161228   0.413   0.351  12.492  0.0198 -4.4587 -0.4352
13271TIP3    H261229   0.550   0.372  12.554 -0.9132  0.2185  0.4625
13272TIP3   OH261230   2.935   4.090  15.033  0.7354 -0.6082 -0.0853
13272TIP3    H161231   3.016   4.071  14.987  1.2173 -0.0073  0.4955
13272TIP3    H261232   2.949   4.176  15.073 -0.2298 -0.4394 -0.0814
13273TIP3   OH261233   2.282   1.688   0.193 -0.2374 -0.0650 -0.1217
13273TIP3    H161234   2.207   1.691   0.253 -0.2634 -1.3780 -0.0418
13273TIP3    H261235   2.246   1.652   0.112 -0.1569  1.5054 -0.8737
13274TIP3   OH261236   3.606   2.443   5.759 -0.4029  0.0352  0.0850
13274TIP3    H161237   3.600   2.353   5.793  2.3982 -0.3491 -0.2244
13274TIP3    H261238   3.606   2.498   5.837  2.9168 -0.6374  0.6842
13275TIP3   OH261239   2.717   2.874  14.734 -0.0144 -0.2547 -0.5184
13275TIP3    H161240   2.622   2.875  14.732 -0.0196  1.2149 -1.4393
13275TIP3    H261241   2.741   2.949  14.789  0.6272 -1.2616  0.6194
13276TIP3   OH261242   3.565   1.736  16.517  0.5019 -0.0530  0.4426
13276TIP3    H161243   3.498   1.741  16.586  1.1169 -0.3699  1.0691
13276TIP3    H261244   3.566   1.824  16.479 -2.1110 -0.6853 -1.3672
13277TIP3   OH261245   4.491   4.524   0.403  0.7512  0.1209  0.5687
13277TIP3    H161246   4.490   4.492   0.313  0.0139 -0.1659  0.6700
13277TIP3    H261247   4.551   4.599   0.402 -0.6896  1.3197 -0.5811
13278TIP3   OH261248   4.962   1.744  12.348 -0.0565  0.3786  0.0344
13278TIP3    H161249   4.982   1.688  12.272 -2.1867 -1.1564  0.5060
13278TIP3    H261250   4.919   1.685  12.410 -0.9301  2.2323  1.2660
13279TIP3   OH261251   4.248   1.551  12.629 -0.2687 -0.3381  0.1024
13279TIP3    H161252   4.256   1.485  12.560 -0.6365  0.2772 -0.5368
13279TIP3    H261253   4.156   1.576  12.628 -0.1770  0.0309  0.4914
13280TIP3   OH261254   0.061   6.582   2.113 -0.6794 -0.1654  0.0444
13280TIP3    H161255   0.029   6.515   2.054 -2.3141  1.0940 -0.5915
13280TIP3    H261256   0.022   6.560   2.198 -0.9390 -0.2140 -0.0861
13281TIP3   OH261257   4.276   2.314  11.269  0.0976  0.2674  0.2948
13281TIP3    H161258   4.321   2.284  11.348 -2.0821 -1.7806  0.8808
13281TIP3    H261259   4.267   2.235  11.216 -1.1818  0.9774 -0.5974
13282TIP3   OH261260   0.452   2.370   5.690 -0.2507  0.5326  0.2140
13282TIP3    H161261   0.487   2.396   5.776  1.1171  0.4861 -0.3077
13282TIP3    H261262   0.358   2.391   5.695  0.0994  1.9891  1.1611
13283TIP3   OH261263   3.463   3.805  12.019  0.3367 -0.5751 -0.3570
13283TIP3    H161264   3.404   3.748  12.069  1.2402 -0.7943  0.4744
13283TIP3    H261265   3.418   3.816  11.935 -0.7181 -1.0318  0.1208
13284TIP3   OH261266   0.216   2.056   5.348 -0.2130 -0.6784 -0.2323
13284TIP3    H161267   0.252   1.970   5.370 -2.4260 -0.8502  3.5647
13284TIP3    H261268   0.272   2.118   5.395 -0.6349 -0.3281 -0.1863
13285TIP3   OH261269   0.373   6.663  14.541 -0.0642  0.4197 -0.6079
13285TIP3    H161270   0.307   6.596  14.529 -1.5032  1.5732  0.4481
13285TIP3    H261271   0.450   6.616  14.573 -0.4305 -0.9183 -1.6433
13286TIP3   OH261272   4.893   0.764  14.893  0.0999  0.9972 -0.0027
13286TIP3    H161273   4.808   0.763  14.937  0.1012  0.0267 -0.0046
13286TIP3    H261274   4.893   0.686  14.838  2.9600 -2.1747  3.8742
13287TIP3   OH261275   6.128   5.510  14.818 -0.2576  0.0559 -0.4311
13287TIP3    H161276   6.144   5.562  14.897 -0.6218 -0.3430 -0.0867
13287TIP3    H261277   6.148   5.420  14.844  0.3504  0.0149 -1.0159
13288TIP3   OH261278   0.256   2.817   1.428 -0.6462  0.1717  0.1585
13288TIP3    H161279   0.200   2.742   1.413 -1.6428  0.9379 -0.0465
13288TIP3    H261280   0.274   2.815   1.522 -0.7737 -0.2380  0.1755
13289TIP3   OH261281   1.127   2.842  16.099  0.3052 -0.0823  0.3807
13289TIP3    H161282   1.047   2.890  16.079  0.4842  0.8948  1.8474
13289TIP3    H261283   1.195   2.884  16.046 -0.1298 -0.9405 -0.8972
13290TIP3   OH261284   6.408   5.540   4.973 -0.0186  0.7463  0.1335
13290TIP3    H161285   6.413   5.602   4.900  1.0777  1.0033  0.4164
13290TIP3    H261286   6.474   5.571   5.035 -0.9435  0.5402  1.2527
13291TIP3   OH261287   3.859   1.414  13.205  0.2904  0.3334 -0.7044
13291TIP3    H161288   3.823   1.343  13.152  1.2756  0.0329 -0.9861
13291TIP3    H261289   3.832   1.392  13.295  1.7670 -1.2008 -0.5814
13292TIP3   OH261290   5.574   2.267   6.456  0.0579 -0.4347  0.5342
13292TIP3    H161291   5.501   2.287   6.515  1.0647  0.9041  1.3934
13292TIP3    H261292   5.644   2.236   6.513  1.0667  0.9318  0.0960
13293TIP3   OH261293   0.688   4.872  12.039  0.1782 -0.1323 -0.1072
13293TIP3    H161294   0.774   4.851  12.076 -0.5483 -0.7879  1.2945
13293TIP3    H261295   0.630   4.803  12.071 -0.7480 -0.1198 -1.6276
13294TIP3   OH261296   6.035   5.925  14.139 -0.0561  0.6598 -0.1724
13294TIP3    H161297   6.009   5.967  14.057 -0.7166 -0.2025 -0.4254
13294TIP3    H261298   5.979   5.964  14.206 -1.9487 -1.0272 -0.6772
13295TIP3   OH261299   3.314   2.891   6.803  0.0838  0.7252  0.4253
13295TIP3    H161300   3.272   2.812   6.768 -0.3082  1.4901 -0.9333
13295TIP3    H261301   3.241   2.953   6.815  0.4380  1.0299  1.0467
13296TIP3   OH261302   3.578   0.741   1.017 -0.1225 -0.3059 -0.7336
13296TIP3    H161303   3.588   0.649   1.043 -0.4196  0.0226  0.6354
13296TIP3    H261304   3.541   0.738   0.929 -0.3460 -1.4940 -0.6094
13297TIP3   OH261305   0.143   4.514  13.143  0.0479  0.1452  0.8999
13297TIP3    H161306   0.188   4.435  13.176  0.0276 -0.0419  0.4864
13297TIP3    H261307   0.161   4.514  13.049 -2.5942 -1.1310  0.2929
13298TIP3   OH261308   5.932   1.893   0.324 -0.1522  0.3137  0.1199
13298TIP3    H161309   6.020   1.894   0.287 -0.5404 -1.4407 -0.9728
13298TIP3    H261310   5.946   1.895   0.419  1.0261  0.8094 -0.0520
13299TIP3   OH261311   1.222   6.241  12.158  0.2949 -0.1879  0.7749
13299TIP3    H161312   1.301   6.188  12.154  0.7725  0.5726 -0.3364
13299TIP3    H261313   1.214   6.265  12.250  0.8880 -0.9543  1.0364
13300TIP3   OH261314   2.494   1.651   1.465 -0.4651 -0.6327  0.1240
13300TIP3    H161315   2.443   1.708   1.407  0.7836  0.0770 -0.2920
13300TIP3    H261316   2.568   1.623   1.413 -0.2368 -1.3937  0.8356
13301TIP3   OH261317   2.564   4.220  14.820  0.2985  0.1536 -0.7847
13301TIP3    H161318   2.647   4.265  14.803  1.6072 -1.4628  0.8940
13301TIP3    H261319   2.556   4.219  14.915 -0.2037 -2.1252 -0.7895
13302TIP3   OH261320   4.556   4.657  14.007 -0.2391  0.3223 -0.9364
13302TIP3    H161321   4.606   4.735  13.982  1.0414  0.4162  1.5978
13302TIP3    H261322   4.599   4.585  13.962  0.9058  0.6707 -0.4368
13303TIP3   OH261323   5.030   2.469  12.652  0.0627  0.6905 -0.1566
13303TIP3    H161324   5.063   2.489  12.740  1.2870 -0.6108 -0.2607
13303TIP3    H261325   5.049   2.547  12.601  0.6436  0.9464  0.4266
13304TIP3   OH261326   6.518   4.063   5.828  0.1336 -0.3917 -0.1239
13304TIP3    H161327   6.590   4.091   5.884  1.1914  0.1277 -1.6692
13304TIP3    H261328   6.441   4.105   5.865  1.1283  1.7070 -0.2860
13305TIP3   OH261329   3.568   5.083   6.822 -0.0755  0.4004  0.6580
13305TIP3    H161330   3.640   5.146   6.812 -1.0651  1.3305 -1.2986
13305TIP3    H261331   3.559   5.071   6.916 -0.9323  4.6067  1.3278
13306TIP3   OH261332   3.597   0.245  11.721  0.2655  0.7059 -0.1118
13306TIP3    H161333   3.633   0.202  11.798  1.0255 -3.2211 -2.3669
13306TIP3    H261334   3.508   0.270  11.747  0.7114  0.1550  2.1749
13307TIP3   OH261335   1.508   3.743   5.314  0.1863 -0.1788  0.2487
13307TIP3    H161336   1.569   3.810   5.282  1.0173 -1.0263 -0.0211
13307TIP3    H261337   1.541   3.661   5.275 -1.0593 -0.6840  0.2048
13308TIP3   OH261338   2.836   5.348  14.277  0.2050 -0.0834  0.5208
13308TIP3    H161339   2.743   5.338  14.254  0.3976  1.2424 -0.9987
13308TIP3    H261340   2.881   5.281  14.226 -0.0367 -2.0529  2.7295
13309TIP3   OH261341   2.395   0.707   6.521 -0.4865  0.3083 -0.1302
13309TIP3    H161342   2.452   0.726   6.596  1.3026  0.9315 -1.5602
13309TIP3    H261343   2.346   0.629   6.547  0.6292  0.0610  1.3900
13310TIP3   OH261344   0.771   5.730  17.174  0.6864  0.1632 -0.1071
13310TIP3    H161345   0.792   5.774  17.092 -0.1067  1.5494  0.4027
13310TIP3    H261346   0.683   5.696  17.161  1.2749 -1.2751 -0.4765
13311TIP3   OH261347   3.006   4.685   0.606 -0.7520 -0.0137  0.0390
13311TIP3    H161348   2.997   4.769   0.561  1.9142  0.2033 -0.2622
13311TIP3    H261349   3.067   4.704   0.678 -0.7578 -1.5278  0.4703
13312TIP3   OH261350   0.776   2.086  14.817 -0.4400  0.5637 -0.3728
13312TIP3    H161351   0.848   2.135  14.776  0.1218  1.4280  1.5140
13312TIP3    H261352   0.819   2.031  14.883 -1.4125  0.3894  0.1393
13313TIP3   OH261353   2.706   2.266   4.274 -0.3321 -0.6174 -0.4137
13313TIP3    H161354   2.643   2.197   4.253  0.1678 -0.2390 -3.5705
13313TIP3    H261355   2.791   2.224   4.264  0.0218 -0.6273  2.0215
13314TIP3   OH261356   6.732   6.344   5.935 -0.0875  0.0940 -0.0667
13314TIP3    H161357   6.721   6.270   5.994 -1.1147  0.0056 -0.3372
13314TIP3    H261358   6.722   6.421   5.991  2.3818  0.0882  0.4728
13315TIP3   OH261359   6.295   4.876  13.720 -0.1277  0.1271 -0.2714
13315TIP3    H161360   6.222   4.814  13.719 -1.3599  1.5161 -0.9381
13315TIP3    H261361   6.353   4.843  13.788 -0.9306 -1.5168 -0.3218
13316TIP3   OH261362   2.650   5.096  11.442  0.0723  0.2055  0.7016
13316TIP3    H161363   2.711   5.023  11.429 -1.6572 -1.3167  0.6820
13316TIP3    H261364   2.615   5.113  11.354 -1.9472 -1.2369  1.1445
13317TIP3   OH261365   5.290   0.800   0.944  0.3329  0.2233  0.2829
13317TIP3    H161366   5.334   0.867   0.892  0.3932  0.0646  0.1280
13317TIP3    H261367   5.200   0.832   0.954 -0.0497 -0.3723 -1.0460
13318TIP3   OH261368   5.804   6.264   3.719 -0.3629  0.3156  0.5899
13318TIP3    H161369   5.751   6.333   3.678 -1.7042 -0.4785  0.9376
13318TIP3    H261370   5.886   6.264   3.669 -1.6549 -0.1527 -1.6884
13319TIP3   OH261371   5.159   1.946   3.973 -0.2463 -0.4454 -0.3289
13319TIP3    H161372   5.090   1.883   3.992 -0.2405 -0.6162 -0.8618
13319TIP3    H261373   5.207   1.955   4.055  0.1966 -1.6687 -0.4440
13320TIP3   OH261374   4.852   1.747   5.629  0.0086 -0.3003  0.2432
13320TIP3    H161375   4.838   1.654   5.648  0.1140 -0.1002  1.3891
13320TIP3    H261376   4.947   1.757   5.632 -0.0381 -0.0052  0.9489
13321TIP3   OH261377   5.742   3.888  16.080 -0.2796 -0.0821  0.0933
13321TIP3    H161378   5.707   3.967  16.123 -2.4585 -1.9420  2.0357
13321TIP3    H261379   5.791   3.843  16.148 -0.9868 -1.4884 -0.2874
13322TIP3   OH261380   5.644   2.818   3.459 -0.3185 -0.6379 -0.1376
13322TIP3    H161381   5.634   2.903   3.417 -0.2636 -0.4652  0.1925
13322TIP3    H261382   5.568   2.811   3.517 -1.6058 -1.8192 -1.8530
13323TIP3   OH261383   1.570   2.205  10.879 -0.4564  0.1890 -0.3047
13323TIP3    H161384   1.581   2.226  10.787  3.9872 -0.1749 -0.0620
13323TIP3    H261385   1.600   2.283  10.926 -1.4339 -0.0970  0.8621
13324TIP3   OH261386   1.457   5.009  14.847  0.1932 -0.0760  0.1727
13324TIP3    H161387   1.456   4.921  14.808 -2.0648  0.2545 -0.6505
13324TIP3    H261388   1.375   5.014  14.897  1.1714  0.9318  1.7817
13325TIP3   OH261389   3.247   3.294  15.322 -0.0592 -0.0712 -0.1439
13325TIP3    H161390   3.248   3.293  15.226 -0.7426 -3.4318 -0.2370
13325TIP3    H261391   3.171   3.242  15.346  0.2532  0.4704  2.2594
13326TIP3   OH261392   5.558   0.442  13.530 -0.3651 -0.1915  0.1165
13326TIP3    H161393   5.604   0.524  13.513 -0.7248  0.5259  2.3576
13326TIP3    H261394   5.548   0.439  13.625 -4.1372 -0.7015 -0.1448
13327TIP3   OH261395   3.318   4.698   0.575  0.2122  0.2040  0.0334
13327TIP3    H161396   3.322   4.606   0.601  3.6022 -0.2958 -1.6384
13327TIP3    H261397   3.282   4.697   0.487  1.2972  0.2887 -0.4308
13328TIP3   OH261398   6.497   5.771  14.914 -0.5196  0.3088  0.4012
13328TIP3    H161399   6.436   5.796  14.844 -1.7649 -1.8651  0.6174
13328TIP3    H261400   6.449   5.792  14.995 -0.4857 -0.2749  0.5752
13329TIP3   OH261401   2.451   3.705   0.774  0.4009  0.6433 -0.2008
13329TIP3    H161402   2.525   3.643   0.770  0.9240  1.2992 -1.4324
13329TIP3    H261403   2.455   3.750   0.690 -0.5397  1.7045  0.3165
13330TIP3   OH261404   6.477   1.042  15.430 -0.0772 -0.1036 -0.6179
13330TIP3    H161405   6.421   1.031  15.354 -0.2494 -0.6244 -0.4148
13330TIP3    H261406   6.466   0.962  15.481  0.6739 -0.1195 -0.4629
13331TIP3   OH261407   2.296   3.346   2.761  0.5482  0.1935  0.7756
13331TIP3    H161408   2.307   3.357   2.856  1.9382 -1.8869  0.9293
13331TIP3    H261409   2.369   3.290   2.735  0.6482  1.3635 -1.6959
13332TIP3   OH261410   0.738   4.120  15.599 -0.3747  0.6444 -0.0806
13332TIP3    H161411   0.740   4.064  15.521 -0.6036 -0.8865  0.9607
13332TIP3    H261412   0.646   4.118  15.627 -0.3870  1.5752 -0.0357
13333TIP3   OH261413   0.297   5.843   0.568  0.2073  0.1294  0.0018
13333TIP3    H161414   0.248   5.907   0.619 -1.5963 -0.2108 -1.2189
13333TIP3    H261415   0.232   5.803   0.510  1.9442 -0.3513 -1.7121
13334TIP3   OH261416   6.226   3.253   4.475  0.7230  0.2994 -0.3004
13334TIP3    H161417   6.190   3.310   4.543 -2.4883 -1.0092 -0.7601
13334TIP3    H261418   6.242   3.170   4.521 -0.8967 -0.4033 -0.9434
13335TIP3   OH261419   6.360   5.285   3.134  0.0429  0.0719  0.5708
13335TIP3    H161420   6.432   5.347   3.125  1.0212 -1.2691 -2.0389
13335TIP3    H261421   6.283   5.332   3.102  1.0734 -0.3909 -3.0201
13336TIP3   OH261422   3.572   2.187   5.887  0.4291  0.4525 -0.2853
13336TIP3    H161423   3.541   2.111   5.838  0.1995  1.7603 -2.2791
13336TIP3    H261424   3.638   2.151   5.946  0.8740 -1.1896 -1.6850
13337TIP3   OH261425   0.065   0.474   0.136  0.1262 -0.0989 -0.8679
13337TIP3    H161426   0.145   0.427   0.159 -0.5902 -1.4234 -0.9336
13337TIP3    H261427   0.000   0.404   0.122 -1.8252  0.9705  2.0272
13338TIP3   OH261428   3.278   6.751   1.878  0.8066 -0.5688  0.1864
13338TIP3    H161429   3.224   6.814   1.927 -0.1593 -0.7997 -0.5487
13338TIP3    H261430   3.341   6.718   1.943  2.0780  1.9260  0.3465
13339TIP3   OH261431   3.674   4.349   6.814  0.7619 -0.1422  0.1061
13339TIP3    H161432   3.749   4.400   6.781 -0.3883  1.1554 -0.6098
13339TIP3    H261433   3.682   4.265   6.769 -0.7379  1.5332 -3.7678
13340TIP3   OH261434   5.266   1.796  10.730  0.1743  0.0200  0.1909
13340TIP3    H161435   5.176   1.777  10.754  0.2707 -1.2732 -0.3921
13340TIP3    H261436   5.319   1.754  10.797  0.3992  3.4301  2.4004
13341TIP3   OH261437   4.298   5.685   0.051  0.0163 -0.7348  0.2179
13341TIP3    H161438   4.350   5.765   0.046 -2.1912  0.7389 -1.1463
13341TIP3    H261439   4.314   5.651   0.139  0.5269  1.5763  1.0826
13342TIP3   OH261440   0.342   2.596  16.444 -0.0035 -0.2429  0.1867
13342TIP3    H161441   0.292   2.624  16.367  0.8151 -0.6963 -0.5328
13342TIP3    H261442   0.360   2.676  16.493 -0.9812 -0.0178  0.1823
13343TIP3   OH261443   0.085   0.139  14.235 -0.1370  0.5424  0.4756
13343TIP3    H161444   0.093   0.119  14.328  0.3511  2.1008  0.7930
13343TIP3    H261445  -0.009   0.148  14.220 -0.2517 -0.2345  0.6879
13344TIP3   OH261446   2.702   5.540  16.020 -0.2508  0.4616  0.0247
13344TIP3    H161447   2.652   5.458  16.025 -0.8749  0.8945  1.0917
13344TIP3    H261448   2.664   5.596  16.088 -0.1942  1.8370 -1.0169
13345TIP3   OH261449   4.715   2.748   5.060  0.2215 -0.2130 -0.0735
13345TIP3    H161450   4.755   2.662   5.074 -0.6449 -0.7410 -0.7514
13345TIP3    H261451   4.682   2.774   5.146  0.1228 -0.7379  0.0484
13346TIP3   OH261452   6.337   4.273  14.381 -0.5049  0.4456 -0.3834
13346TIP3    H161453   6.389   4.253  14.459  1.9357 -2.4931 -2.5335
13346TIP3    H261454   6.255   4.225  14.395  0.0213 -0.3075  0.2433
13347TIP3   OH261455   1.613   2.260   4.613 -0.3604  0.6735  0.6902
13347TIP3    H161456   1.615   2.164   4.618 -4.6644  0.2952 -1.0144
13347TIP3    H261457   1.555   2.287   4.684  1.2947  2.1857  1.5477
13348TIP3   OH261458   6.511   5.301   2.299  0.1810  0.5624  0.0071
13348TIP3    H161459   6.497   5.259   2.384  0.8136  0.5254  0.0961
13348TIP3    H261460   6.519   5.394   2.319  1.6281  0.4272  0.1558
13349TIP3   OH261461   5.374   1.391   5.805 -0.1259 -0.3872  0.1744
13349TIP3    H161462   5.305   1.334   5.838 -0.1939 -0.3603  0.0791
13349TIP3    H261463   5.427   1.413   5.882  0.1443 -0.9144  0.1420
13350TIP3   OH261464   4.142   4.534  15.643  0.3210  0.9307 -0.3344
13350TIP3    H161465   4.212   4.514  15.581  0.6040 -2.1157  0.7850
13350TIP3    H261466   4.175   4.502  15.727 -2.4831 -1.0763  0.1726
13351TIP3   OH261467   1.666   6.396  12.889  0.2507  0.6053 -0.0193
13351TIP3    H161468   1.719   6.345  12.828  0.0065 -0.1551  0.3975
13351TIP3    H261469   1.713   6.479  12.897  0.0411  0.9168 -1.6033
13352TIP3   OH261470   2.063   2.784  14.302 -0.6894  0.4469  0.1000
13352TIP3    H161471   2.068   2.846  14.228 -0.5846  1.6239  1.0535
13352TIP3    H261472   2.084   2.838  14.379  3.0034 -1.4782  0.6447
13353TIP3   OH261473   2.435   2.129   0.723 -0.1801  0.6942 -0.3471
13353TIP3    H161474   2.450   2.053   0.667 -0.9572 -0.0618  0.4332
13353TIP3    H261475   2.395   2.194   0.665  0.5806  0.5484 -1.0451
13354TIP3   OH261476   5.260   1.872  12.711  0.8298 -1.1478 -0.0323
13354TIP3    H161477   5.172   1.839  12.692 -0.2451  1.3154  0.2368
13354TIP3    H261478   5.269   1.948  12.654  1.9608 -0.1557  1.3966
13355TIP3   OH261479   4.041   5.367   0.043 -0.0312  0.3698 -0.3501
13355TIP3    H161480   3.981   5.365  -0.032 -0.9910  0.4844  0.3915
13355TIP3    H261481   3.986   5.347   0.118  1.1036 -0.7288  0.2258
13356TIP3   OH261482   1.169   3.518  16.628  0.3624  0.0617 -0.0842
13356TIP3    H161483   1.160   3.605  16.669  0.1137  0.5202 -1.0847
13356TIP3    H261484   1.256   3.489  16.653  0.5397  0.7068  0.0794
13357TIP3   OH261485   4.424   6.470   0.047  0.1268 -0.0337 -0.1601
13357TIP3    H161486   4.432   6.481  -0.048  0.4609 -0.9906 -0.2542
13357TIP3    H261487   4.351   6.409   0.058  0.5461 -0.4864  0.1609
13358TIP3   OH261488   2.340   5.925   0.567 -0.3567 -0.0707 -0.7193
13358TIP3    H161489   2.302   5.937   0.654  0.2668 -1.6071 -0.1968
13358TIP3    H261490   2.277   5.872   0.520  0.7453 -2.1011 -0.0507
13359TIP3   OH261491   6.041   0.020   4.336  0.0941 -0.1343  0.4706
13359TIP3    H161492   6.013   0.112   4.337 -0.3691 -0.2644  0.0556
13359TIP3    H261493   6.123   0.020   4.287  1.5882  0.4465  2.8177
13360TIP3   OH261494   4.457   5.725   2.322 -0.1610  0.2414 -0.1043
13360TIP3    H161495   4.503   5.752   2.242  1.1964 -0.0759  0.5298
13360TIP3    H261496   4.427   5.636   2.302  0.5521 -0.0033 -0.1206
13361TIP3   OH261497   2.352   0.977   4.784  0.1602  0.3600 -0.6927
13361TIP3    H161498   2.409   0.932   4.721  1.7202  0.5260  0.5274
13361TIP3    H261499   2.299   0.906   4.823  1.2199 -0.1759 -0.1779
13362TIP3   OH261500   5.622   3.934   3.283  0.2235 -0.0812 -0.2254
13362TIP3    H161501   5.562   4.000   3.249  0.0923  0.2003  0.5323
13362TIP3    H261502   5.565   3.867   3.320  0.3686  0.1398  0.4062
13363TIP3   OH261503   2.420   0.399  13.113  0.1217  0.0290 -0.2185
13363TIP3    H161504   2.459   0.412  13.200  0.0551  3.3191 -0.5560
13363TIP3    H261505   2.328   0.420  13.124 -0.1719 -0.8602 -0.8434
13364TIP3   OH261506   4.607   5.199  11.513  0.2942  0.0868  0.2875
13364TIP3    H161507   4.603   5.246  11.430 -0.5083  0.2836  0.4304
13364TIP3    H261508   4.558   5.254  11.574  1.0390  0.0416  0.9378
13365TIP3   OH261509   5.983   1.586   5.033 -0.2892  0.2874 -0.8094
13365TIP3    H161510   5.923   1.538   4.975  0.4280  0.2954 -1.5687
13365TIP3    H261511   6.030   1.645   4.975  1.9770 -1.1902 -0.5817
13366TIP3   OH261512   4.822   0.629  12.942 -0.0383 -0.2998 -0.0704
13366TIP3    H161513   4.907   0.664  12.970 -0.1415 -1.0824  1.3379
13366TIP3    H261514   4.834   0.609  12.849  0.9403  0.6730 -0.1778
13367TIP3   OH261515   5.407   1.804   2.052 -0.5012 -0.0481  0.1088
13367TIP3    H161516   5.339   1.767   2.109  0.8905 -1.2795  1.0156
13367TIP3    H261517   5.489   1.769   2.086  0.6354  1.5463 -0.8612
13368TIP3   OH261518   0.317   4.755   2.953  0.7563 -0.2092 -0.3150
13368TIP3    H161519   0.333   4.678   2.899  1.1484 -1.4396  1.4401
13368TIP3    H261520   0.402   4.775   2.992  0.5696  0.8918 -0.4494
13369TIP3   OH261521   3.848   3.519  12.890 -0.4596  0.6009  0.2274
13369TIP3    H161522   3.880   3.429  12.881  1.5430  1.4418 -2.3000
13369TIP3    H261523   3.794   3.533  12.812  1.0024  2.2048 -0.5530
13370TIP3   OH261524   2.595   0.137  16.607 -0.0287 -0.4863  0.0739
13370TIP3    H161525   2.654   0.073  16.646  0.3289 -0.2290 -0.0326
13370TIP3    H261526   2.509   0.095  16.607  0.0493 -0.6483  0.7406
13371TIP3   OH261527   0.945   2.239  12.887 -0.0809 -0.4726  0.1923
13371TIP3    H161528   0.947   2.156  12.934  0.8737 -0.0724  0.8784
13371TIP3    H261529   0.979   2.303  12.949 -2.2780  0.7387  0.2366
13372TIP3   OH261530   5.196   4.147   3.493 -0.2066  0.2659 -0.5920
13372TIP3    H161531   5.145   4.178   3.569 -1.8542 -0.5156 -1.3259
13372TIP3    H261532   5.286   4.171   3.514 -0.7639  1.0998  1.0937
13373TIP3   OH261533   1.784   6.281   3.647 -0.1180 -0.4279 -0.0344
13373TIP3    H161534   1.718   6.216   3.620 -0.2707  0.4476 -1.9347
13373TIP3    H261535   1.865   6.250   3.606  0.7988 -1.6056  2.4479
13374TIP3   OH261536   3.453   2.981   0.959  0.5391  0.1303 -0.3063
13374TIP3    H161537   3.546   3.002   0.970  0.5308 -0.2817  0.6903
13374TIP3    H261538   3.421   3.043   0.894  1.3399  0.7708 -0.1000
13375TIP3   OH261539   1.913   5.734  16.375 -0.0018  0.5077 -0.0564
13375TIP3    H161540   2.008   5.738  16.379  0.2195 -0.1087 -2.7340
13375TIP3    H261541   1.884   5.769  16.459  2.5591  0.9373  0.7405
13376TIP3   OH261542   2.234   2.041   3.103 -0.9440  0.2349  0.1696
13376TIP3    H161543   2.241   2.113   3.040 -0.3165 -0.0644 -0.1054
13376TIP3    H261544   2.260   1.963   3.054  1.3320  0.2316  1.2615
13377TIP3   OH261545   1.218   2.038   2.483  0.0431 -0.2491  0.6295
13377TIP3    H161546   1.164   1.962   2.459 -0.3661  0.2410 -0.0249
13377TIP3    H261547   1.232   2.084   2.401 -0.5522  0.9304  1.1670
13378TIP3   OH261548   4.592   2.880  15.804 -0.6174 -0.0110  0.4016
13378TIP3    H161549   4.503   2.914  15.809 -1.5360 -2.0697 -1.0227
13378TIP3    H261550   4.612   2.853  15.894 -2.0180 -0.8989  0.4749
13379TIP3   OH261551   3.191   0.957   6.189  0.0495 -0.5078 -0.0648
13379TIP3    H161552   3.112   0.927   6.234  0.9386 -1.0607  1.2180
13379TIP3    H261553   3.252   0.884   6.198  0.9989  0.2419 -0.2466
13380TIP3   OH261554   0.861   1.853  15.959  0.0962 -0.0825 -0.5352
13380TIP3    H161555   0.939   1.815  15.919  1.2040 -0.2286  1.6019
13380TIP3    H261556   0.830   1.786  16.019 -2.2614 -0.3777 -1.9615
13381TIP3   OH261557   0.684   1.651   1.299  0.6906 -0.3113 -0.4935
13381TIP3    H161558   0.744   1.724   1.312  0.1547 -0.0091  0.3834
13381TIP3    H261559   0.691   1.599   1.378 -0.8660  0.2379  0.0547
13382TIP3   OH261560   2.818   2.501  15.541 -0.1238  0.0767  0.6956
13382TIP3    H161561   2.908   2.472  15.556  0.6949  1.7601 -0.4962
13382TIP3    H261562   2.815   2.521  15.447 -1.4053  1.0737  0.9097
13383TIP3   OH261563   5.940   4.424  15.512 -0.4302 -0.6248 -0.1247
13383TIP3    H161564   5.897   4.343  15.485 -1.7603 -0.2547  0.8146
13383TIP3    H261565   5.883   4.461  15.578  0.8650  0.3875  0.4808
13384TIP3   OH261566   0.043   0.217  13.120 -0.3557  0.2831  0.1313
13384TIP3    H161567   0.092   0.146  13.079 -0.8775  1.0361 -1.9424
13384TIP3    H261568   0.081   0.297  13.085 -2.4109  0.9114 -0.8589
13385TIP3   OH261569   1.673   2.814  11.904 -0.2123 -0.0404 -0.1803
13385TIP3    H161570   1.768   2.815  11.902 -0.0354  3.4491  2.1441
13385TIP3    H261571   1.651   2.746  11.968  0.6715 -0.7197 -0.5794
13386TIP3   OH261572   6.426   6.613   2.034  0.0235 -0.2760  0.3337
13386TIP3    H161573   6.345   6.598   2.083 -0.7000  1.3180 -0.3042
13386TIP3    H261574   6.415   6.700   1.995  1.0379 -1.0072 -1.7447
13387TIP3   OH261575   4.939   4.631   1.817 -0.3021  1.1090 -0.2308
13387TIP3    H161576   4.965   4.567   1.751  0.6684  0.5258  0.6948
13387TIP3    H261577   4.843   4.635   1.809 -0.3293 -0.0148 -0.7024
13388TIP3   OH261578   0.870   3.889   5.436 -0.5028 -0.0466  0.3213
13388TIP3    H161579   0.863   3.799   5.469 -0.3751 -0.5237 -0.9207
13388TIP3    H261580   0.964   3.903   5.424 -0.6547 -0.8132 -2.2706
13389TIP3   OH261581   3.997   3.999   1.955  0.4699  0.1700  0.1504
13389TIP3    H161582   4.035   4.052   1.885  0.8459 -0.0015  0.2189
13389TIP3    H261583   4.067   3.993   2.020 -0.5792  2.1807  1.5816
13390TIP3   OH261584   0.054   4.308   0.685 -1.1972 -0.6604 -0.1706
13390TIP3    H161585   0.036   4.283   0.776  2.9542  0.5821  1.1921
13390TIP3    H261586   0.139   4.269   0.666 -0.6857  1.3835 -2.5654
13391TIP3   OH261587   4.673   0.250  14.009  0.5152 -0.2029 -0.5274
13391TIP3    H161588   4.667   0.308  13.932  0.0434  0.7820  0.2308
13391TIP3    H261589   4.699   0.308  14.080 -0.5188 -0.8237  0.3738
13392TIP3   OH261590   0.953   2.208   2.366  0.0709  0.0322 -0.5363
13392TIP3    H161591   0.886   2.271   2.392  0.0825 -1.1191  2.7301
13392TIP3    H261592   0.928   2.126   2.409  2.7072 -0.8530 -0.4747
13393TIP3   OH261593   5.593   5.475   5.527  0.0199 -0.1322 -0.3244
13393TIP3    H161594   5.561   5.493   5.439  0.6892 -0.1450 -0.5800
13393TIP3    H261595   5.646   5.396   5.516  0.2689 -0.0163  0.0494
13394TIP3   OH261596   6.173   1.533   5.807 -0.2328  0.5860 -0.3338
13394TIP3    H161597   6.226   1.462   5.842 -2.0352  0.4245  2.3295
13394TIP3    H261598   6.227   1.611   5.820  0.9491  0.0060 -1.4693
13395TIP3   OH261599   0.663   6.465  12.768 -0.6473 -0.7119  0.0753
13395TIP3    H161600   0.655   6.396  12.702 -0.9566  1.2215 -2.0365
13395TIP3    H261601   0.648   6.421  12.851 -1.9604 -2.9797 -1.2749
13396TIP3   OH261602   2.905   1.255   1.953 -0.0971 -0.1243 -0.0459
13396TIP3    H161603   2.871   1.245   2.042  0.1582 -0.1587  0.0485
13396TIP3    H261604   2.887   1.171   1.911  1.4376 -0.7769  0.5397
13397TIP3   OH261605   3.673   6.547   0.346 -0.1362 -0.5361  0.6430
13397TIP3    H161606   3.642   6.469   0.300  0.7063 -0.3473 -0.2757
13397TIP3    H261607   3.641   6.536   0.435  0.7493 -2.3895  0.7720
13398TIP3   OH261608   2.242   5.215   5.075 -0.2865  0.3772  0.2791
13398TIP3    H161609   2.193   5.280   5.024  0.4999  0.1482 -0.7942
13398TIP3    H261610   2.318   5.262   5.108  0.1173  0.0826 -0.2300
13399TIP3   OH261611   1.500   0.096   0.720  0.0544 -0.0551 -0.2448
13399TIP3    H161612   1.494   0.008   0.757 -2.3335  0.9957  2.2219
13399TIP3    H261613   1.559   0.143   0.779 -0.1042  0.4672 -0.4974
13400TIP3   OH261614   3.388   5.614  12.207  0.3776 -0.0493 -0.1580
13400TIP3    H161615   3.368   5.663  12.286 -1.1601  1.1663 -1.2272
13400TIP3    H261616   3.329   5.651  12.141  1.9793 -0.6485 -2.0034
13401TIP3   OH261617   3.803   3.849  11.153 -0.3331 -0.2422  0.7558
13401TIP3    H161618   3.712   3.819  11.157 -0.9059  1.1471 -0.7379
13401TIP3    H261619   3.830   3.830  11.064  0.5933  0.0812  0.9595
13402TIP3   OH261620   6.363   4.607  12.731  0.6329 -0.4170 -0.1599
13402TIP3    H161621   6.356   4.696  12.697 -0.4925 -0.3028  0.3335
13402TIP3    H261622   6.419   4.615  12.809 -0.8563  0.1752  0.8906
13403TIP3   OH261623   2.399   1.460  14.835  0.2362 -0.0949 -0.3643
13403TIP3    H161624   2.382   1.434  14.926  1.4044 -3.9667 -1.0444
13403TIP3    H261625   2.323   1.428  14.786  1.3329 -1.5839 -1.1725
13404TIP3   OH261626   4.677   5.231   1.346  0.4576 -0.5894  0.0440
13404TIP3    H161627   4.740   5.282   1.295  0.7607 -0.1639  0.8405
13404TIP3    H261628   4.649   5.161   1.286  0.5706  0.0810 -0.8185
13405TIP3   OH261629   2.679   4.625   4.953  0.4374 -0.1531 -0.1786
13405TIP3    H161630   2.631   4.707   4.953  0.3995 -0.1610 -1.2356
13405TIP3    H261631   2.681   4.598   4.861  0.3826 -1.3715  0.1553
13406TIP3   OH261632   6.572   2.742  16.468  0.0677 -0.1797 -0.3141
13406TIP3    H161633   6.555   2.751  16.562  0.9625 -1.0435 -0.0463
13406TIP3    H261634   6.490   2.709  16.432  0.0562 -0.9315  0.3631
13407TIP3   OH261635   1.344   0.468   1.771  0.4665 -0.6464  0.3271
13407TIP3    H161636   1.268   0.522   1.795 -0.4252 -1.4019 -0.7196
13407TIP3    H261637   1.408   0.531   1.740 -0.8047 -0.1774 -1.5112
13408TIP3   OH261638   1.533   6.629   5.311 -0.3461 -0.2582  0.3476
13408TIP3    H161639   1.559   6.718   5.335  0.3260 -0.7038  1.3280
13408TIP3    H261640   1.615   6.585   5.287 -0.7241 -0.4975 -0.5486
13409TIP3   OH261641   4.429   6.048  12.047 -0.5241  0.6054  0.2072
13409TIP3    H161642   4.419   5.957  12.021 -0.7108  0.4676  0.7557
13409TIP3    H261643   4.473   6.045  12.132 -1.5421  0.9651  0.7730
13410TIP3   OH261644   1.300   0.739  12.324  0.2854  0.0107 -0.2544
13410TIP3    H161645   1.238   0.667  12.337  0.9499 -0.0120  4.3425
13410TIP3    H261646   1.354   0.710  12.250 -1.0158 -3.0456 -0.1939
13411TIP3   OH261647   5.636   6.727  16.426 -0.2744  0.2993 -0.5352
13411TIP3    H161648   5.541   6.734  16.412 -0.3416 -1.0027 -0.8293
13411TIP3    H261649   5.667   6.817  16.422 -1.7037  0.9425  1.1392
13412TIP3   OH261650   2.930   4.147   2.091  0.8593  0.5616 -0.3902
13412TIP3    H161651   2.859   4.207   2.115  0.8392  1.3480 -2.2219
13412TIP3    H261652   2.887   4.065   2.071  0.7317  0.3443  0.7155
13413TIP3   OH261653   2.237   0.692  16.468  0.2327  0.2299 -0.3335
13413TIP3    H161654   2.327   0.661  16.459  0.5785  0.5800  1.5311
13413TIP3    H261655   2.242   0.785  16.446 -0.1013 -0.1634 -2.2488
13414TIP3   OH261656   5.394   5.950  13.425  0.1520 -0.2087  0.0889
13414TIP3    H161657   5.471   5.922  13.474  1.5176  1.3073 -1.1259
13414TIP3    H261658   5.428   5.981  13.341 -1.7659  0.6276 -0.4285
13415TIP3   OH261659   2.194   4.873   1.475  0.0974  0.0436 -0.5463
13415TIP3    H161660   2.283   4.877   1.442 -0.3774  1.8417 -1.7217
13415TIP3    H261661   2.146   4.822   1.409  0.1483 -0.5832 -0.1130
13416TIP3   OH261662   4.282   1.205   5.759  0.1697 -0.2289 -0.2931
13416TIP3    H161663   4.202   1.202   5.812 -0.3482 -1.2560 -1.1128
13416TIP3    H261664   4.351   1.178   5.820 -0.3914 -1.2341 -0.0707
13417TIP3   OH261665   3.586   2.748   3.077 -0.5030  0.0481  0.8843
13417TIP3    H161666   3.569   2.780   2.989  1.6987 -0.2144  0.3183
13417TIP3    H261667   3.544   2.812   3.135  0.4399  1.7868 -0.2926
13418TIP3   OH261668   4.847   1.503  13.377 -0.2711  0.2172  0.4406
13418TIP3    H161669   4.907   1.553  13.432 -0.2326  0.1942  0.4196
13418TIP3    H261670   4.769   1.492  13.431  0.5212 -1.6258  1.2995
13419TIP3   OH261671   5.439   5.717  11.527 -0.0708 -0.0692  0.3214
13419TIP3    H161672   5.495   5.779  11.480 -0.0095  2.1258  3.0552
13419TIP3    H261673   5.373   5.771  11.570 -1.3726 -2.1391  1.0922
13420TIP3   OH261674   1.834   5.010  12.867  0.4135  0.1516 -0.6151
13420TIP3    H161675   1.877   4.950  12.806  3.0569  1.1083  0.1574
13420TIP3    H261676   1.816   5.088  12.815  1.6391  0.5421 -0.4977
13421TIP3   OH261677   5.955   5.262   4.408  0.2650 -0.1212 -0.3374
13421TIP3    H161678   5.936   5.176   4.446  0.8497  0.8406  2.3325
13421TIP3    H261679   6.018   5.244   4.338 -1.1189 -2.0303 -1.1858
13422TIP3   OH261680   4.183   2.940  13.260 -0.5792  0.2602  0.4389
13422TIP3    H161681   4.273   2.936  13.290 -0.5194 -0.9315  0.1463
13422TIP3    H261682   4.144   2.858  13.290 -0.4147 -1.2079 -2.9512
13423TIP3   OH261683   6.181   1.630  12.233 -0.0704 -0.1727  0.7228
13423TIP3    H161684   6.154   1.587  12.314  0.3551 -2.4213 -0.2462
13423TIP3    H261685   6.219   1.560  12.180  0.1703  1.3254 -1.2151
13424TIP3   OH261686   3.742   4.051  15.267  0.3259 -0.2098  0.2319
13424TIP3    H161687   3.797   3.981  15.233  0.2895 -0.2243  0.2037
13424TIP3    H261688   3.672   4.061  15.202  0.8160  0.4475 -0.2062
13425TIP3   OH261689   5.016   0.771   0.665 -0.5848  0.3522  0.3340
13425TIP3    H161690   4.998   0.865   0.668 -0.2556  0.4430 -0.4098
13425TIP3    H261691   5.080   0.761   0.594  0.9099 -0.1835  1.6993
13426TIP3   OH261692   0.118   5.283   5.751  0.0402  0.3263  0.1421
13426TIP3    H161693   0.059   5.340   5.701  0.4657 -0.5962 -1.4489
13426TIP3    H261694   0.123   5.202   5.701  0.3327 -0.7367  1.7960
13427TIP3   OH261695   3.875   4.264  11.103  0.0728  0.1899 -0.3239
13427TIP3    H161696   3.911   4.219  11.026 -0.7954  0.0706 -0.6742
13427TIP3    H261697   3.840   4.193  11.157  0.0938  0.3269 -0.1342
13428TIP3   OH261698   1.588   0.026   0.471 -0.2017  0.4113  0.9849
13428TIP3    H161699   1.567   0.057   0.559  2.6630  2.7469  0.9918
13428TIP3    H261700   1.568   0.100   0.414 -2.3019 -1.1633 -0.4965
13429TIP3   OH261701   4.078   6.516  11.236  0.5659  0.0239 -0.2555
13429TIP3    H161702   4.128   6.537  11.157 -0.0373  0.4678 -0.5250
13429TIP3    H261703   4.144   6.483  11.298  0.9560 -0.9043 -1.1416
13430TIP3   OH261704   5.664   6.674  17.017  0.1850 -0.1562 -0.4564
13430TIP3    H161705   5.609   6.603  16.981  1.8302 -0.0906 -3.4208
13430TIP3    H261706   5.737   6.628  17.058 -0.6119 -0.1829  0.9964
13431TIP3   OH261707   3.811   6.011  11.445 -0.2590  0.9684 -0.4995
13431TIP3    H161708   3.734   6.022  11.502  0.7744  1.5544  0.8282
13431TIP3    H261709   3.830   5.918  11.449 -0.6931  0.8778 -0.5306
13432TIP3   OH261710   1.746   4.422   4.432  0.0381 -0.5089 -0.1228
13432TIP3    H161711   1.686   4.445   4.503  0.6995  1.7505 -0.2107
13432TIP3    H261712   1.723   4.480   4.360  0.6163 -1.4435 -1.0941
13433TIP3   OH261713   6.160   4.296  15.334  0.4324  0.2401  0.5230
13433TIP3    H161714   6.197   4.384  15.331 -0.7449  0.7258 -0.3121
13433TIP3    H261715   6.073   4.305  15.296 -0.2237 -1.0370  1.6603
13434TIP3   OH261716   0.370   6.118   4.091  0.5397 -0.5202 -0.2047
13434TIP3    H161717   0.305   6.187   4.103  0.3618 -0.8274  0.6625
13434TIP3    H261718   0.452   6.165   4.078 -0.0342 -0.0905 -2.7454
13435TIP3   OH261719   3.729   6.505  15.150  0.0454  0.9001  0.0562
13435TIP3    H161720   3.741   6.410  15.146 -2.8358  0.4866 -1.8711
13435TIP3    H261721   3.719   6.523  15.243  0.2703 -0.7747  0.4492
13436TIP3   OH261722   4.389   3.071  17.144  0.0209  0.5115 -0.2563
13436TIP3    H161723   4.420   3.024  17.067 -0.7671  1.2148 -1.0257
13436TIP3    H261724   4.393   3.006  17.215  1.6049  0.1056 -0.6693
13437TIP3   OH261725   2.071   1.472   3.546  0.7545  0.4855 -0.1019
13437TIP3    H161726   1.978   1.475   3.521  0.3441  2.4012  1.4107
13437TIP3    H261727   2.096   1.381   3.533 -1.8704 -0.5363  1.1989
13438TIP3   OH261728   1.334   0.485   5.168  0.7498  0.6350  0.3138
13438TIP3    H161729   1.363   0.406   5.214  2.4602  1.3337  0.5257
13438TIP3    H261730   1.319   0.549   5.238 -0.9811  0.4307  0.1710
13439TIP3   OH261731   3.955   2.668  12.892  0.2652  0.1095 -0.2524
13439TIP3    H161732   4.021   2.641  12.956  0.4555 -0.4032 -0.6631
13439TIP3    H261733   3.982   2.756  12.865  0.5924  0.0305 -0.1797
13440TIP3   OH261734   5.769   6.252  10.427 -0.0760  0.4124 -0.0279
13440TIP3    H161735   5.763   6.211  10.340  1.4954  3.2475 -1.6022
13440TIP3    H261736   5.862   6.270  10.439 -0.5333  2.2710  1.1390
13441TIP3   OH261737   2.587   3.114   1.982 -0.0754 -0.4347  0.7551
13441TIP3    H161738   2.543   3.093   1.899 -0.2157 -0.4494  0.8342
13441TIP3    H261739   2.634   3.195   1.964 -2.5312  1.2401  1.5369
13442TIP3   OH261740   3.466   2.373  16.722  0.4186 -1.0065 -0.0158
13442TIP3    H161741   3.415   2.335  16.793  0.5580  0.3746  0.8399
13442TIP3    H261742   3.557   2.370  16.754  0.3082  1.2192  0.6541
13443TIP3   OH261743   5.438   5.312  13.406 -0.2983  0.2522 -0.0763
13443TIP3    H161744   5.501   5.255  13.361  0.8154  2.0755 -0.9541
13443TIP3    H261745   5.483   5.339  13.486 -0.3303  0.8159 -0.2457
13444TIP3   OH261746   6.567   4.407  11.828 -0.4746  0.0033 -0.3452
13444TIP3    H161747   6.612   4.397  11.911  0.9833  1.5685 -0.8932
13444TIP3    H261748   6.598   4.334  11.774 -0.2995 -0.1735 -0.0042
13445TIP3   OH261749   1.961   5.548  13.080 -0.7493  0.1957 -0.0084
13445TIP3    H161750   2.017   5.591  13.146  0.6960 -1.5137 -0.0539
13445TIP3    H261751   1.872   5.576  13.103  0.0114  2.4760  0.4819
13446TIP3   OH261752   5.549   4.236  16.424 -0.3049 -0.2756 -0.2986
13446TIP3    H161753   5.574   4.147  16.447 -0.3503  0.3878  2.6807
13446TIP3    H261754   5.625   4.289  16.445 -1.1306  0.6876  0.3646
13447TIP3   OH261755   0.310   3.224   4.530  0.0385  0.1988  0.7506
13447TIP3    H161756   0.267   3.223   4.616 -0.4546 -1.6503  0.5416
13447TIP3    H261757   0.263   3.158   4.479  0.4510  1.1218 -0.9011
13448TIP3   OH261758   4.000   3.128   4.246 -0.4279 -0.0851  0.0465
13448TIP3    H161759   3.922   3.134   4.303  0.4941  0.4957  1.3032
13448TIP3    H261760   4.070   3.100   4.305  0.4875  0.1591 -0.9003
13449TIP3   OH261761   6.045   5.527   1.860 -0.4579 -0.1071 -0.2607
13449TIP3    H161762   5.982   5.593   1.830  0.0340  1.0516  1.1506
13449TIP3    H261763   6.052   5.466   1.787 -1.1982  1.2059 -1.4784
13450TIP3   OH261764   1.318   2.665   0.990  0.2383 -0.1162  0.1807
13450TIP3    H161765   1.286   2.576   0.975 -1.4107  0.4330  0.2435
13450TIP3    H261766   1.248   2.708   1.039  0.4129  1.5960 -0.9727
13451TIP3   OH261767   0.924   6.560   2.434 -0.2380 -0.4255 -0.1559
13451TIP3    H161768   0.959   6.494   2.494 -0.2791 -0.9586 -0.7066
13451TIP3    H261769   0.923   6.517   2.349 -1.2551 -0.0595 -0.3439
13452TIP3   OH261770   4.586   1.923  17.018  0.2922  0.6677 -0.3780
13452TIP3    H161771   4.672   1.949  17.053 -0.3856  1.9087  0.4510
13452TIP3    H261772   4.531   1.911  17.096 -0.0869 -0.9849 -0.8559
13453TIP3   OH261773   2.715   3.363  14.081  0.1631 -0.3709 -0.7335
13453TIP3    H161774   2.808   3.346  14.068  0.4234 -0.3492  0.8232
13453TIP3    H261775   2.683   3.287  14.131 -0.0395  0.7564  0.9570
13454TIP3   OH261776   0.200   3.146  15.906 -0.5000 -0.5081  0.5366
13454TIP3    H161777   0.155   3.205  15.847 -1.6827 -1.3905  0.5155
13454TIP3    H261778   0.130   3.099  15.952  0.3623  0.0550  2.5609
13455TIP3   OH261779   0.958   1.678   3.293  0.5562 -0.1156 -0.4867
13455TIP3    H161780   0.964   1.746   3.226  0.7679 -0.7156 -1.0947
13455TIP3    H261781   0.895   1.615   3.257  0.4938 -0.3285 -0.0121
13456TIP3   OH261782   2.695   0.278  12.421  0.4204 -0.2192  0.2759
13456TIP3    H161783   2.723   0.324  12.501  0.1325  0.6169 -0.0872
13456TIP3    H261784   2.608   0.244  12.443  1.2973 -2.0517  1.1024
13457TIP3   OH261785   5.034   6.270  16.650 -0.2650  0.3688 -0.3419
13457TIP3    H161786   5.036   6.228  16.564 -2.6266  0.2504 -0.4027
13457TIP3    H261787   5.060   6.360  16.633 -1.9558  0.6857 -1.4484
13458TIP3   OH261788   6.739   3.561  15.137  0.3488 -0.0928 -0.5385
13458TIP3    H161789   6.811   3.590  15.082  0.2815  1.8022  0.2976
13458TIP3    H261790   6.660   3.574  15.083  0.6003 -3.2686 -1.8988
13459TIP3   OH261791   4.479   2.246  14.061  0.2078 -0.0731  0.0545
13459TIP3    H161792   4.393   2.275  14.090 -0.1621 -0.0120 -1.0429
13459TIP3    H261793   4.505   2.179  14.124 -1.2679 -1.1161 -0.3862
13460TIP3   OH261794   1.953   2.428  14.973 -0.2613 -0.1485 -0.3967
13460TIP3    H161795   1.976   2.418  14.880  0.0843 -0.7220 -0.2555
13460TIP3    H261796   1.878   2.486  14.973  0.2016  0.4688 -0.9917
13461TIP3   OH261797   4.958   1.848   5.856  0.2303 -0.3897  0.4776
13461TIP3    H161798   5.016   1.772   5.854 -0.3466 -0.8446  0.8951
13461TIP3    H261799   4.898   1.835   5.783  0.4164 -0.0953  0.2654
13462TIP3   OH261800   5.529   6.224   0.101 -0.0019 -0.0540 -0.1030
13462TIP3    H161801   5.434   6.224   0.105 -0.1268 -0.7693 -2.0909
13462TIP3    H261802   5.554   6.316   0.108 -0.8697  0.2036 -0.3505
13463TIP3   OH261803   2.392   6.028   5.787 -0.0591  0.8194 -0.2250
13463TIP3    H161804   2.400   6.114   5.745  1.8276  0.4797 -0.6757
13463TIP3    H261805   2.321   6.038   5.850  0.1621  2.7476 -0.2254
13464TIP3   OH261806   0.566   1.909  15.269  0.4163  0.1224 -0.2634
13464TIP3    H161807   0.624   1.846  15.312  0.5855 -0.4438 -1.2892
13464TIP3    H261808   0.504   1.855  15.221  0.0858  0.7422 -0.5407
13465TIP3   OH261809   3.544   0.429  15.720 -0.3435 -0.0243 -0.1165
13465TIP3    H161810   3.515   0.515  15.689 -0.7633 -0.7247 -1.7532
13465TIP3    H261811   3.591   0.448  15.801  1.3242  1.9957 -1.4329
13466TIP3   OH261812   6.188   6.225   0.288  0.1402  0.2546 -0.0969
13466TIP3    H161813   6.261   6.190   0.236 -1.2065 -0.9155 -1.2701
13466TIP3    H261814   6.140   6.148   0.317 -0.7378  1.0176  0.5237
13467TIP3   OH261815   5.474   0.031   4.507 -0.7014  0.4285 -0.0499
13467TIP3    H161816   5.458   0.125   4.506 -2.2253  0.2272  1.2963
13467TIP3    H261817   5.561   0.021   4.469 -1.5984  2.1118 -2.8551
13468TIP3   OH261818   3.246   5.512  11.972 -0.1837 -0.2082 -0.0497
13468TIP3    H161819   3.156   5.505  11.938 -1.1859  3.6906  1.2917
13468TIP3    H261820   3.301   5.514  11.893 -1.7030  1.2065 -1.1445
13469TIP3   OH261821   2.493   5.255  15.173 -0.1838 -0.4297  0.0331
13469TIP3    H161822   2.488   5.305  15.092  0.6100  0.7202  0.6638
13469TIP3    H261823   2.585   5.227  15.178 -0.6754 -2.2827 -0.4712
13470TIP3   OH261824   5.194   5.336  13.320  0.6039 -0.3776  0.5131
13470TIP3    H161825   5.277   5.296  13.347  0.9290  2.2108  3.9677
13470TIP3    H261826   5.202   5.345  13.225  2.5886 -3.5879  0.1980
13471TIP3   OH261827   6.649   2.870  17.404  0.2922  0.1819 -0.3364
13471TIP3    H161828   6.560   2.865  17.369  0.3679  0.7187 -0.6111
13471TIP3    H261829   6.651   2.951  17.454  0.2564 -0.4631  0.7480
13472TIP3   OH261830   5.537   4.059  16.195 -0.2975 -0.0624  0.1212
13472TIP3    H161831   5.529   4.151  16.221  0.7023 -0.2113  1.0005
13472TIP3    H261832   5.540   4.011  16.277  3.5824 -0.4981 -0.1233
13473TIP3   OH261833   6.154   5.035   2.100 -0.7051  0.7604 -0.4155
13473TIP3    H161834   6.061   5.015   2.106 -0.4558 -0.1726  0.5939
13473TIP3    H261835   6.195   4.984   2.170  0.6166  0.8439 -1.0843
13474TIP3   OH261836   1.292   1.905  14.180  0.2540  0.3815  0.2656
13474TIP3    H161837   1.291   1.992  14.141  0.7895  0.0019 -0.6225
13474TIP3    H261838   1.384   1.887  14.199  0.2222 -0.2152 -0.0988
13475TIP3   OH261839   0.635   4.372   0.824 -0.4773  0.0577 -0.7727
13475TIP3    H161840   0.555   4.347   0.871 -0.2717 -2.2814 -1.5519
13475TIP3    H261841   0.637   4.314   0.748  2.6921 -0.9456 -0.0239
13476TIP3   OH261842   2.173   0.471  13.558 -0.2873  0.6271  0.4075
13476TIP3    H161843   2.156   0.545  13.615 -0.3963 -0.3276  1.6492
13476TIP3    H261844   2.086   0.438  13.534 -0.2562 -0.2948  1.4845
13477TIP3   OH261845   3.871   3.329  14.684 -0.3387  0.9585  0.0683
13477TIP3    H161846   3.839   3.378  14.760 -0.6235  1.0252 -0.0937
13477TIP3    H261847   3.865   3.237  14.710 -0.2203  0.9894  0.2096
13478TIP3   OH261848   0.154   6.296  13.098 -0.1921 -0.3240  0.3408
13478TIP3    H161849   0.124   6.209  13.072  0.6279 -0.6527  0.4591
13478TIP3    H261850   0.230   6.279  13.155  0.7856  0.4747 -0.6792
13479TIP3   OH261851   0.208   5.530   0.525 -0.7040 -0.2878 -0.6907
13479TIP3    H161852   0.301   5.531   0.546 -0.5481 -0.7198 -1.3200
13479TIP3    H261853   0.170   5.472   0.591  0.1182 -3.4467 -2.7126
13480TIP3   OH261854   4.628   4.394   6.094 -0.1253 -0.3881 -0.3115
13480TIP3    H161855   4.591   4.477   6.125 -0.6763 -0.4730 -0.7086
13480TIP3    H261856   4.703   4.377   6.151  1.1843  1.3475 -1.4158
13481TIP3   OH261857   3.826   4.882   6.271 -0.4390 -0.0984  0.1065
13481TIP3    H161858   3.779   4.950   6.320  0.2434  1.6720 -1.5842
13481TIP3    H261859   3.756   4.831   6.228 -0.9377 -0.2249  1.0308
13482TIP3   OH261860   1.629   5.588   3.131  0.6800  0.3326 -0.3832
13482TIP3    H161861   1.710   5.555   3.093 -0.0953 -0.7255 -1.1656
13482TIP3    H261862   1.603   5.521   3.195 -1.0480 -0.8340 -2.1794
13483TIP3   OH261863   1.503   5.068   0.959  0.3691 -0.0473 -0.3467
13483TIP3    H161864   1.524   5.159   0.979 -0.8046 -0.1943  1.9746
13483TIP3    H261865   1.563   5.018   1.015  0.1556 -0.6667 -0.6683
13484TIP3   OH261866   1.242   6.009  13.665  0.0488  0.1231 -1.0208
13484TIP3    H161867   1.217   6.080  13.605 -0.6821  0.7451 -0.0161
13484TIP3    H261868   1.334   6.024  13.684 -0.4969  1.8845  0.5356
13485TIP3   OH261869   2.643   3.891   1.735 -0.6300 -0.5778 -0.6667
13485TIP3    H161870   2.569   3.831   1.725 -1.4942  0.4466 -0.6254
13485TIP3    H261871   2.676   3.875   1.823 -1.3133 -0.5022 -0.3930
13486TIP3   OH261872   5.060   5.196   0.712  0.5990  0.2173  0.0141
13486TIP3    H161873   5.109   5.124   0.672 -0.8294 -1.0686  0.5018
13486TIP3    H261874   5.099   5.275   0.673  1.2019 -0.8491 -1.6948
13487TIP3   OH261875   4.303   2.021   1.476 -0.3334  0.1682  0.5681
13487TIP3    H161876   4.236   1.964   1.513  0.9814 -2.9408 -1.3929
13487TIP3    H261877   4.307   1.996   1.383  1.9523  1.8545  0.1096
13488TIP3   OH261878   4.100   1.481   1.302  0.0731 -0.1280 -0.0386
13488TIP3    H161879   4.016   1.524   1.285  0.2536 -0.1996 -1.1597
13488TIP3    H261880   4.092   1.395   1.261  1.3973  0.6062 -1.9920
13489TIP3   OH261881   6.471   4.097  12.961 -0.0981  0.6915  1.2275
13489TIP3    H161882   6.437   4.142  13.038 -2.4698 -1.2486  1.4555
13489TIP3    H261883   6.493   4.166  12.899  1.6769  2.2886  3.5342
13490TIP3   OH261884   3.987   6.553  13.157 -0.4378  0.9326 -0.0237
13490TIP3    H161885   4.071   6.507  13.147 -0.9985 -0.0389 -0.2875
13490TIP3    H261886   3.976   6.561  13.252  0.0452  1.2508  0.0131
13491TIP3   OH261887   5.373   3.458  12.469 -0.8087  0.9779  0.4788
13491TIP3    H161888   5.291   3.414  12.491 -0.4932  0.7081  1.1593
13491TIP3    H261889   5.361   3.490  12.380 -0.7563 -1.1923 -0.3659
13492TIP3   OH261890   5.953   5.636  15.057  0.4191  0.4947  0.1099
13492TIP3    H161891   5.914   5.549  15.060  0.9134  0.2929  2.1832
13492TIP3    H261892   6.044   5.624  15.084  0.6451  1.5847 -0.0849
13493TIP3   OH261893   1.085   3.288   5.133  0.5061 -0.4509  0.1660
13493TIP3    H161894   1.101   3.380   5.113 -0.7175  0.3764  2.5526
13493TIP3    H261895   1.005   3.267   5.085  0.0010  0.1800  0.7107
13494TIP3   OH261896   2.247   3.975   2.053  0.0439 -0.0898  0.3584
13494TIP3    H161897   2.156   3.997   2.072 -0.3808 -1.1563 -0.3803
13494TIP3    H261898   2.298   4.042   2.099 -1.1065  0.5215  0.7694
13495TIP3   OH261899   2.885   2.573  14.548 -0.4041 -0.4446  0.3575
13495TIP3    H161900   2.961   2.545  14.600  0.9273  0.0122 -1.2723
13495TIP3    H261901   2.811   2.563  14.608  0.9490 -0.7068  2.0774
13496TIP3   OH261902   1.257   0.607   3.262  0.4767  0.1031  0.0051
13496TIP3    H161903   1.328   0.622   3.200 -0.5420 -1.4575 -1.6576
13496TIP3    H261904   1.179   0.643   3.219 -0.5284 -2.3924 -0.4407
13497TIP3   OH261905   2.760   6.293  15.764  0.2607  0.1964 -0.1079
13497TIP3    H161906   2.674   6.315  15.726  0.0692 -0.2350  0.0656
13497TIP3    H261907   2.749   6.204  15.796 -0.4449  1.4205  3.4658
13498TIP3   OH261908   2.610   1.964   1.289 -0.3569  0.3865  0.0385
13498TIP3    H161909   2.518   1.985   1.298 -0.0592  1.7063  0.1247
13498TIP3    H261910   2.617   1.921   1.204 -0.7626  1.9876 -0.8245
13499TIP3   OH261911   3.085   3.045   5.483 -0.4127 -0.0178  0.5344
13499TIP3    H161912   3.123   2.959   5.504 -2.0539 -0.8472  0.2723
13499TIP3    H261913   3.141   3.107   5.530  1.4650 -1.1125 -0.1321
13500TIP3   OH261914   3.016   2.956   5.925 -0.2658 -0.2698 -0.4529
13500TIP3    H161915   3.056   2.987   6.007  2.1339  0.0028 -1.6462
13500TIP3    H261916   2.950   2.893   5.954 -0.5271  0.8961  1.7419
13501TIP3   OH261917   2.316   5.259  12.903  0.4420 -0.0282  0.2754
13501TIP3    H161918   2.308   5.234  12.811 -1.4568  1.8081 -0.1248
13501TIP3    H261919   2.346   5.350  12.901 -1.3359  0.6365  1.3630
13502TIP3   OH261920   1.645   5.324   4.902  0.1249  0.4691 -0.3180
13502TIP3    H161921   1.627   5.267   4.977  0.6652 -0.4756 -0.8902
13502TIP3    H261922   1.725   5.370   4.926  0.8847 -0.6051 -0.7307
13503TIP3   OH261923   6.599   3.675   4.945  0.7046 -0.0823  0.2657
13503TIP3    H161924   6.668   3.609   4.951  1.6258  0.7629 -0.5511
13503TIP3    H261925   6.554   3.655   4.862  1.0552  0.3613 -0.0376
13504TIP3   OH261926   2.487   3.281   1.455 -0.1004 -0.4412 -0.0024
13504TIP3    H161927   2.544   3.205   1.442  0.6450 -0.4139  2.6648
13504TIP3    H261928   2.451   3.298   1.368  0.4931 -3.2082 -0.8948
13505TIP3   OH261929   1.236   5.151   3.612  0.2286 -0.6476  0.0546
13505TIP3    H161930   1.235   5.164   3.517  1.2414  1.2364  0.2570
13505TIP3    H261931   1.327   5.163   3.637 -0.1832 -0.1529  1.3922
13506TIP3   OH261932   0.346   1.877   3.599  0.6186  0.3458 -0.0335
13506TIP3    H161933   0.366   1.808   3.663  0.4291  0.3919  0.0760
13506TIP3    H261934   0.431   1.900   3.561  0.6286 -0.2728 -0.4038
13507TIP3   OH261935   6.639   1.226   6.047  0.2628  0.1738  0.0358
13507TIP3    H161936   6.563   1.238   5.990 -0.0811  0.1772  0.4879
13507TIP3    H261937   6.602   1.215   6.134  0.7952  0.4576  0.3054
13508TIP3   OH261938   5.347   3.176   1.836 -0.2290  0.0019 -0.2314
13508TIP3    H161939   5.296   3.096   1.850 -0.8835  0.6067  0.9729
13508TIP3    H261940   5.359   3.213   1.923 -0.0856  1.3156 -0.7833
13509TIP3   OH261941   4.983   0.676  12.697 -0.3963 -0.4365  0.1741
13509TIP3    H161942   4.963   0.645  12.608 -0.4759 -3.4024  1.1057
13509TIP3    H261943   5.044   0.749  12.684  1.9483 -2.6202 -2.2929
13510TIP3   OH261944   5.994   2.840  16.386  0.5306 -0.4981  0.1190
13510TIP3    H161945   6.082   2.815  16.417  0.4616 -0.2616  0.5167
13510TIP3    H261946   5.984   2.795  16.302  2.0509  1.4812 -1.2236
13511TIP3   OH261947   2.398   1.428  16.994 -0.0747  0.3912  0.3839
13511TIP3    H161948   2.480   1.382  16.977  0.0255  1.2368 -1.6602
13511TIP3    H261949   2.424   1.518  17.011 -0.4547  0.2422  1.8499
13512TIP3   OH261950   1.838   3.981  11.120 -0.5337 -0.0670  0.8760
13512TIP3    H161951   1.765   3.920  11.129 -1.9062  1.3260 -0.2007
13512TIP3    H261952   1.884   3.951  11.042 -0.8501 -0.0943  0.6957
13513TIP3   OH261953   5.287   2.198  15.344 -0.0370 -0.9645  0.3955
13513TIP3    H161954   5.288   2.248  15.425 -1.0431 -0.3307  0.0324
13513TIP3    H261955   5.343   2.247  15.284 -1.2718 -0.0698 -0.0595
13514TIP3   OH261956   5.518   4.404  14.930 -0.3214  0.5018 -0.5169
13514TIP3    H161957   5.513   4.346  15.006  1.5805 -0.0971 -0.7959
13514TIP3    H261958   5.539   4.490  14.966  0.6207  0.2087 -0.3489
13515TIP3   OH261959   3.500   5.495  13.078 -0.5017  0.2084  0.3412
13515TIP3    H161960   3.588   5.482  13.043 -0.9802 -0.0215 -0.8061
13515TIP3    H261961   3.457   5.553  13.015 -0.5545  1.9636  1.9189
13516TIP3   OH261962   2.120   2.846  10.983  0.0525  0.5282 -0.0755
13516TIP3    H161963   2.050   2.842  10.918  1.3010 -0.3867 -1.4281
13516TIP3    H261964   2.158   2.758  10.983  0.5016  0.6930  1.4338
13517TIP3   OH261965   0.342   4.996  12.947 -0.4073 -0.0003  0.2548
13517TIP3    H161966   0.413   4.946  12.907  0.6929 -0.3674  2.4990
13517TIP3    H261967   0.303   4.935  13.010 -0.3028  1.3343  1.6504
13518TIP3   OH261968   6.572   5.329  17.239  0.0043 -0.1149 -0.1345
13518TIP3    H161969   6.517   5.252  17.225 -0.3364 -0.2701  1.7533
13518TIP3    H261970   6.625   5.307  17.316  1.0332  0.9478 -0.5007
13519TIP3   OH261971   2.497   1.563   0.980  0.1142  0.2155  0.2565
13519TIP3    H161972   2.465   1.540   0.892 -2.4826  1.6152  0.7080
13519TIP3    H261973   2.529   1.652   0.971 -1.1433  0.7620  0.8777
13520TIP3   OH261974   4.105   1.319   4.753  0.6529 -0.1849  0.2926
13520TIP3    H161975   4.195   1.350   4.752  0.3240  0.9383  1.8600
13520TIP3    H261976   4.113   1.223   4.753  1.7882 -0.1155 -0.7937
13521TIP3   OH261977   0.546   1.071   1.664 -0.4159 -0.3457  0.0398
13521TIP3    H161978   0.499   1.077   1.747 -1.3770  2.1917 -0.6120
13521TIP3    H261979   0.489   1.113   1.600  1.2108 -0.3310 -1.4869
13522TIP3   OH261980   2.900   1.534   0.852 -0.6970 -0.3728  0.7019
13522TIP3    H161981   2.861   1.556   0.937 -1.3581  1.8484 -0.1141
13522TIP3    H261982   2.963   1.604   0.836  0.2156 -1.3555 -0.1868
13523TIP3   OH261983   5.730   5.183  15.851  0.3636 -0.0350  0.3608
13523TIP3    H161984   5.675   5.144  15.783 -2.4845  2.1504  1.1990
13523TIP3    H261985   5.716   5.128  15.928  0.2709 -0.1532  0.2603
13524TIP3   OH261986   0.629   5.808  13.559  0.0423 -0.2336 -0.1873
13524TIP3    H161987   0.663   5.888  13.599  0.8836 -0.9602  0.5911
13524TIP3    H261988   0.632   5.743  13.629 -0.2124 -1.0608 -0.9289
13525TIP3   OH261989   1.690   4.657  14.225  1.5343  0.2374  0.0776
13525TIP3    H161990   1.723   4.576  14.265  0.7412 -1.2136 -2.0137
13525TIP3    H261991   1.597   4.658  14.250  1.7547  1.0525  0.9021
13526TIP3   OH261992   2.784   4.992  14.496  0.5982 -0.8687 -0.3390
13526TIP3    H161993   2.794   5.074  14.544 -0.4386 -0.7086 -0.3928
13526TIP3    H261994   2.867   4.983  14.447 -0.3170  1.6128 -2.6010
13527TIP3   OH261995   2.306   4.033  14.226  0.1336 -0.7349  0.1009
13527TIP3    H161996   2.342   4.108  14.178 -0.5892 -0.5931 -0.2318
13527TIP3    H261997   2.345   4.039  14.313  0.7249 -0.4498 -0.1757
13528TIP3   OH261998   5.580   0.662   5.594  0.4950  0.1828 -0.4444
13528TIP3    H161999   5.537   0.734   5.548  2.1519  1.3995 -0.1599
13528TIP3    H262000   5.538   0.660   5.680 -1.4099 -0.9798 -1.3271
13529TIP3   OH262001   1.951   1.279  14.068 -0.2426 -0.1341 -0.0192
13529TIP3    H162002   2.008   1.355  14.075  0.3496 -0.6277  0.7474
13529TIP3    H262003   1.995   1.222  14.004 -0.5509  0.0411 -0.3950
13530TIP3   OH262004   2.622   6.382   5.077 -0.4884  0.0487  0.0179
13530TIP3    H162005   2.680   6.358   5.150 -1.3294  0.1184  0.7218
13530TIP3    H262006   2.653   6.329   5.003  0.5665  0.2015  0.3374
13531TIP3   OH262007   2.217   1.936   4.615  0.0517 -0.4838 -0.4071
13531TIP3    H162008   2.208   1.918   4.521  1.2163 -0.9246 -0.4453
13531TIP3    H262009   2.301   1.898   4.639  0.3007  0.6232  0.5779
13532TIP3   OH262010   5.249   2.407  16.122  0.7937  0.5856  0.0422
13532TIP3    H162011   5.186   2.477  16.141  1.6288  0.9259  1.6943
13532TIP3    H262012   5.324   2.426  16.177  1.4141 -1.1251 -0.1426
13533TIP3   OH262013   6.058   2.461  12.327  0.1159 -0.6078  0.1911
13533TIP3    H162014   6.070   2.538  12.272  1.5869 -1.5326 -0.8574
13533TIP3    H262015   6.119   2.474  12.400  0.0433 -0.5675  0.2441
13534TIP3   OH262016   6.549   5.187  12.452 -0.1594  0.4135  0.4577
13534TIP3    H162017   6.494   5.143  12.387  0.8733  2.8893 -2.3690
13534TIP3    H262018   6.591   5.116  12.500 -0.6261 -1.6326 -1.9381
13535TIP3   OH262019   0.646   0.236   5.541 -0.0872 -0.4670  0.0615
13535TIP3    H162020   0.634   0.331   5.542 -0.4422 -0.4970 -0.8825
13535TIP3    H262021   0.595   0.205   5.615  2.1869  0.2909  2.0978
13536TIP3   OH262022   1.673   5.810   6.248 -0.4292 -0.1716  0.3536
13536TIP3    H162023   1.754   5.838   6.205  1.4055 -1.4783  2.7649
13536TIP3    H262024   1.651   5.727   6.205 -0.9769  0.5417 -0.8126
13537TIP3   OH262025   1.339   3.410  14.079 -0.0172 -0.8367  0.2680
13537TIP3    H162026   1.384   3.381  14.000 -0.3378 -1.6944  0.3935
13537TIP3    H262027   1.283   3.336  14.104 -2.2820  0.5522 -0.4391
13538TIP3   OH262028   1.719   5.853  13.796 -0.1216  0.0766  0.8726
13538TIP3    H162029   1.775   5.892  13.863  1.2399  0.4830 -0.4444
13538TIP3    H262030   1.752   5.763  13.787 -0.4271 -0.0377  0.8773
13539TIP3   OH262031   5.269   6.529  15.915 -0.1292  0.2141  0.5321
13539TIP3    H162032   5.272   6.599  15.850  1.4123 -1.3217 -1.1738
13539TIP3    H262033   5.176   6.512  15.929 -0.4931  1.0470 -0.7544
13540TIP3   OH262034   3.710   0.325  15.050  0.1572  0.0611 -0.0359
13540TIP3    H162035   3.723   0.241  15.006 -2.0410 -1.0640  1.3013
13540TIP3    H262036   3.620   0.348  15.030  0.6140  1.9662 -0.0768
13541TIP3   OH262037   3.636   4.502   2.166  0.1647 -0.3552  0.0608
13541TIP3    H162038   3.609   4.418   2.129 -1.9276  0.4278 -0.3726
13541TIP3    H262039   3.619   4.565   2.096 -2.9204  1.0263  1.8455
13542TIP3   OH262040   2.778   1.250   3.732  0.3910 -0.4301 -0.4005
13542TIP3    H162041   2.768   1.156   3.717  0.1438 -0.2599 -1.3968
13542TIP3    H262042   2.755   1.290   3.648 -1.7852  0.6662  0.6214
13543TIP3   OH262043   6.622   5.276   1.113  0.2306  0.7422 -0.1728
13543TIP3    H162044   6.530   5.258   1.130 -0.2000  0.9887 -2.0040
13543TIP3    H262045   6.650   5.331   1.186 -1.2430  1.2054  0.0731
13544TIP3   OH262046   3.711   3.202   6.626  0.9637 -0.0808  0.1849
13544TIP3    H162047   3.654   3.270   6.663  1.5025  0.1803  0.5478
13544TIP3    H262048   3.710   3.132   6.691 -1.5237 -1.5118 -1.2596
13545TIP3   OH262049   1.357   0.901  14.778  0.5492  0.0554 -0.2007
13545TIP3    H162050   1.340   0.943  14.694  1.1964 -1.2099 -0.9948
13545TIP3    H262051   1.343   0.807  14.761 -1.9752 -0.0314  1.7914
13546TIP3   OH262052   1.722   3.632  15.602 -0.0537 -0.0842  0.2921
13546TIP3    H162053   1.713   3.563  15.668  0.3361 -1.8459 -1.4046
13546TIP3    H262054   1.808   3.670  15.619 -0.1931 -0.1093  1.1296
13547TIP3   OH262055   4.730   3.687   0.639  0.0019 -0.1013 -0.0509
13547TIP3    H162056   4.676   3.759   0.605 -0.8999 -0.6411  0.2138
13547TIP3    H262057   4.815   3.728   0.657 -0.6081  0.9922  0.4612
13548TIP3   OH262058   2.702   4.009  11.438  0.3903  0.1639 -0.9204
13548TIP3    H162059   2.654   3.956  11.374 -0.7074 -0.9764  0.7605
13548TIP3    H262060   2.790   4.015  11.402 -0.0909 -0.6982 -2.3710
13549TIP3   OH262061   4.811   2.709   3.595 -0.6105 -0.2140 -0.5723
13549TIP3    H162062   4.763   2.712   3.678 -0.7335 -0.5330 -0.6309
13549TIP3    H262063   4.766   2.642   3.544 -0.4027 -0.1685 -0.8147
13550TIP3   OH262064   3.042   5.485   5.275 -0.6656 -0.8305  0.0450
13550TIP3    H162065   2.956   5.525   5.292 -0.2648  0.6946 -1.2383
13550TIP3    H262066   3.027   5.391   5.284 -2.1519 -0.5146  1.1618
13551TIP3   OH262067   3.821   1.028  14.545 -0.3658  0.0454  0.2564
13551TIP3    H162068   3.878   0.962  14.583  0.6428  0.4049 -0.6071
13551TIP3    H262069   3.733   0.990  14.553 -0.0748 -0.3872  1.8550
13552TIP3   OH262070   3.378   1.035   1.008 -0.5322 -0.0670  0.1444
13552TIP3    H162071   3.407   0.987   0.930 -3.8238  2.4512 -2.9870
13552TIP3    H262072   3.458   1.072   1.045  1.1477 -0.8627 -2.4366
13553TIP3   OH262073   4.115   1.566  12.171 -0.9869  0.4118 -0.7089
13553TIP3    H162074   4.064   1.488  12.190  0.9209 -1.1148 -1.4937
13553TIP3    H262075   4.065   1.638  12.210 -1.2368 -1.5192  2.9184
13554TIP3   OH262076   2.982   5.150   1.509 -0.5449 -0.2296  0.0447
13554TIP3    H162077   2.987   5.170   1.602  1.3293 -0.4352  0.0192
13554TIP3    H262078   3.030   5.222   1.467  0.7160 -1.3699 -0.5443
13555TIP3   OH262079   5.574   2.330  12.782  0.1253  0.3695 -0.0147
13555TIP3    H162080   5.582   2.255  12.724 -1.9963  0.2211 -0.1952
13555TIP3    H262081   5.571   2.292  12.870  1.8138  0.4829  0.1183
13556TIP3   OH262082   3.799   0.008   1.670  0.3709  0.0715  0.0889
13556TIP3    H162083   3.768   0.098   1.665 -1.3189 -0.5073 -1.0954
13556TIP3    H262084   3.789  -0.016   1.762  1.9866  1.4152  0.6640
13557TIP3   OH262085   2.880   5.634   4.144  0.0136 -0.2939  0.1629
13557TIP3    H162086   2.830   5.585   4.209  1.0714 -1.8417 -0.1072
13557TIP3    H262087   2.948   5.678   4.194 -1.4633  1.6953  0.5130
13558TIP3   OH262088   4.131   3.261   0.860  0.1121  0.4859 -0.2591
13558TIP3    H162089   4.066   3.208   0.815  0.3215 -0.4509  0.5099
13558TIP3    H262090   4.207   3.203   0.869  0.8757  1.3857 -0.6725
13559TIP3   OH262091   5.347   5.267   4.614 -0.2341 -0.2130 -0.0722
13559TIP3    H162092   5.299   5.185   4.600  1.4258 -1.3302  0.4060
13559TIP3    H262093   5.439   5.240   4.622  0.7322  1.9567 -2.3387
13560TIP3   OH262094   0.596   2.949  17.127  0.2305  0.1351  0.1500
13560TIP3    H162095   0.579   2.969  17.035 -0.5545 -1.1058 -0.0005
13560TIP3    H262096   0.545   3.013  17.175 -0.5981 -0.1716 -0.2987
13561TIP3   OH262097   1.410   2.149  14.724  0.5546 -0.2066  0.2601
13561TIP3    H162098   1.329   2.098  14.730  0.1476 -0.0968 -2.5483
13561TIP3    H262099   1.381   2.239  14.711  1.1683  0.0565  0.6550
13562TIP3   OH262100   4.721   0.983  10.853 -0.3421 -0.3835  0.1208
13562TIP3    H162101   4.801   1.036  10.856  0.4507 -1.4611 -0.8522
13562TIP3    H262102   4.702   0.973  10.760 -0.7714 -1.3620  0.3047
13563TIP3   OH262103   4.798   6.361  15.340  0.3663  0.5505 -0.5095
13563TIP3    H162104   4.776   6.363  15.433  0.7917  1.0902 -0.4128
13563TIP3    H262105   4.822   6.451  15.319 -0.0994  0.5124 -1.2377
13564TIP3   OH262106   3.623   0.583   2.839 -0.3189  0.2965 -0.0700
13564TIP3    H162107   3.628   0.494   2.875 -1.9016  0.3929  0.4582
13564TIP3    H262108   3.707   0.595   2.794 -0.1530 -1.5310 -0.3270
13565TIP3   OH262109   5.298   2.440   5.738  0.5851  0.3088  0.1310
13565TIP3    H162110   5.294   2.393   5.655 -0.1366  1.0385 -0.2560
13565TIP3    H262111   5.367   2.506   5.725  0.0708  0.8039 -0.0913
13566TIP3   OH262112   4.809   5.075   0.096  0.2723  0.3584  0.2516
13566TIP3    H162113   4.844   4.989   0.070 -0.8484 -0.3786  1.0901
13566TIP3    H262114   4.851   5.093   0.180  1.8763  1.5073 -0.7419
13567TIP3   OH262115   4.141   1.883   3.741 -0.2460 -0.4075  0.0019
13567TIP3    H162116   4.192   1.834   3.677 -2.3464 -1.2990 -1.0629
13567TIP3    H262117   4.144   1.830   3.820 -1.9201 -2.0059 -0.9378
13568TIP3   OH262118   0.801   1.600   5.741 -0.2736 -0.0511 -0.1276
13568TIP3    H162119   0.871   1.634   5.685 -1.3322  0.6156 -1.1005
13568TIP3    H262120   0.756   1.678   5.773 -1.0218 -0.4779 -0.1099
13569TIP3   OH262121   2.027   0.855   4.829  0.3803 -0.2312  0.1256
13569TIP3    H162122   1.941   0.842   4.790  1.2041 -0.0692 -1.8771
13569TIP3    H262123   2.082   0.788   4.788  1.3958  0.2370  0.6929
13570TIP3   OH262124   6.017   6.373  15.513  0.0002 -0.1800 -0.5042
13570TIP3    H162125   6.057   6.287  15.521 -0.1396 -0.0941  1.6325
13570TIP3    H262126   5.945   6.360  15.451 -0.2293 -1.6710  0.0398
13571TIP3   OH262127   4.821   4.391   5.609  0.2954  0.7550 -0.0296
13571TIP3    H162128   4.805   4.317   5.550  1.9530  1.1529 -1.0502
13571TIP3    H262129   4.734   4.415   5.641 -0.5169 -0.3029 -1.3183
13572TIP3   OH262130   1.754   2.537   3.174  0.6805 -0.2452  0.5972
13572TIP3    H162131   1.749   2.562   3.081 -0.1513 -0.2827  0.6227
13572TIP3    H262132   1.730   2.617   3.221 -1.8755 -0.9823  0.6831
13573TIP3   OH262133   6.187   3.501   3.449 -0.0564  0.0495 -0.1385
13573TIP3    H162134   6.225   3.581   3.413  0.0042 -0.7290 -1.8797
13573TIP3    H262135   6.256   3.436   3.442 -0.9939 -0.8579 -1.4515
13574TIP3   OH262136   5.220   3.814  16.079 -0.5847 -0.0689  0.4877
13574TIP3    H162137   5.287   3.853  16.022 -1.6690  2.0832  0.5804
13574TIP3    H262138   5.264   3.739  16.119  1.4824  0.7172 -0.1526
13575TIP3   OH262139   5.842   6.282  11.645 -0.0436 -0.1604  0.2912
13575TIP3    H162140   5.751   6.311  11.653 -0.6960 -1.7115 -1.0977
13575TIP3    H262141   5.887   6.355  11.602 -0.9514  0.0360 -0.3415
13576TIP3   OH262142   3.047   5.897  11.293 -0.4869  0.7370 -0.2188
13576TIP3    H162143   3.049   5.991  11.273 -0.2651  0.4929 -1.3845
13576TIP3    H262144   3.089   5.891  11.379 -2.5914  1.9466  1.0009
13577TIP3   OH262145   2.573   1.718  13.709  0.3752  0.2892  0.0644
13577TIP3    H162146   2.576   1.680  13.797 -0.2241  0.2416  0.0673
13577TIP3    H262147   2.480   1.724  13.688  0.4612  1.5464 -0.0333
13578TIP3   OH262148   4.048   2.251   6.270  0.1234 -0.3630 -0.0206
13578TIP3    H162149   4.067   2.226   6.360 -1.7888  2.2771  1.2544
13578TIP3    H262150   4.111   2.321   6.251 -1.9248  1.8834  0.8533
13579TIP3   OH262151   0.709   5.929  16.340 -0.9472 -0.8746  0.0185
13579TIP3    H162152   0.744   5.978  16.265  1.2235 -2.4759 -0.1277
13579TIP3    H262153   0.758   5.846  16.339 -0.6422 -0.8576  3.3836
13580TIP3   OH262154   4.735   3.097  16.922 -0.1127 -0.0387  0.1939
13580TIP3    H162155   4.646   3.117  16.893 -0.1903  1.5085  1.3514
13580TIP3    H262156   4.726   3.020  16.977 -0.6644 -0.1877 -0.0950
13581TIP3   OH262157   2.808   1.910   3.461  0.2440  0.2817  0.1016
13581TIP3    H162158   2.767   1.828   3.434  0.2900  0.0107  0.8264
13581TIP3    H262159   2.739   1.957   3.508  0.3436  0.4610  0.0686
13582TIP3   OH262160   5.833   1.240  15.192 -0.1659  0.3007  0.1631
13582TIP3    H162161   5.757   1.299  15.183  1.1950  2.2095  0.5413
13582TIP3    H262162   5.834   1.217  15.285  0.7411  1.8389  0.5854
13583TIP3   OH262163   5.460   1.250   2.234 -0.5650 -0.1548 -0.6608
13583TIP3    H162164   5.452   1.324   2.294  0.0637 -0.0308 -0.7264
13583TIP3    H262165   5.456   1.290   2.147  0.5689 -0.1065 -0.6955
13584TIP3   OH262166   0.302   2.670  12.371 -0.2746 -0.0183  0.7491
13584TIP3    H162167   0.246   2.704  12.301  0.1424 -1.7954 -0.5377
13584TIP3    H262168   0.311   2.577  12.350  0.2538 -0.5102  2.9393
13585TIP3   OH262169   3.599   6.341   3.490  0.5761 -0.2558 -0.4115
13585TIP3    H162170   3.621   6.295   3.570 -3.7581 -1.2069  0.4749
13585TIP3    H262171   3.565   6.274   3.431 -1.4878  1.1104 -0.8823
13586TIP3   OH262172   1.152   4.423   5.025  0.2787  0.0861 -0.1931
13586TIP3    H162173   1.178   4.515   5.034 -0.3900  0.1145  1.8517
13586TIP3    H262174   1.069   4.417   5.072 -0.2860 -1.3410 -1.3111
13587TIP3   OH262175   6.250   5.352   3.749  0.1914 -0.0492  0.2924
13587TIP3    H162176   6.314   5.397   3.804 -1.8460  2.3160  0.9054
13587TIP3    H262177   6.270   5.381   3.660 -0.8541  1.8640  0.6420
13588TIP3   OH262178   2.858   4.360   5.683 -0.1147  0.0183  0.0685
13588TIP3    H162179   2.797   4.342   5.610 -1.9269  0.9863  1.2617
13588TIP3    H262180   2.824   4.309   5.756  1.2348 -0.3365  0.4787
13589TIP3   OH262181   5.514   1.451   1.593  0.0339 -0.0026  0.1064
13589TIP3    H162182   5.597   1.472   1.637 -0.2283  1.4342 -0.0330
13589TIP3    H262183   5.461   1.530   1.604 -0.0905  0.3931 -2.6746
13590TIP3   OH262184   5.796   0.582  12.958 -0.5574 -0.1934  0.1278
13590TIP3    H162185   5.819   0.602  13.049 -0.0468  0.4534 -0.1443
13590TIP3    H262186   5.758   0.494  12.963  0.1731 -0.4825  0.8614
13591TIP3   OH262187   6.713   3.236  13.350 -0.0346  0.2107 -0.1689
13591TIP3    H162188   6.801   3.198  13.337  0.3382  1.2967 -0.9763
13591TIP3    H262189   6.653   3.167  13.321  0.5200 -0.7133  0.8055
13592TIP3   OH262190   1.008   3.088  13.621 -0.2609 -0.1217 -0.5048
13592TIP3    H162191   1.017   3.082  13.526 -1.1906 -0.6466 -0.5663
13592TIP3    H262192   0.920   3.055  13.640  0.3073 -1.0885  0.6284
13593TIP3   OH262193   5.739   0.128  12.233 -0.0197 -0.5531  0.1353
13593TIP3    H162194   5.831   0.103  12.240 -0.2993 -1.7816 -0.2849
13593TIP3    H262195   5.735   0.184  12.156  0.1190 -1.9155 -0.9023
13594TIP3   OH262196   0.523   3.200   0.830 -0.0320  0.0067 -0.1677
13594TIP3    H162197   0.545   3.230   0.918  0.9275  1.5515 -0.8824
13594TIP3    H262198   0.437   3.160   0.839  0.7087 -1.2936  1.7422
13595TIP3   OH262199   0.373   1.093   2.574 -0.3210 -0.6288 -0.0104
13595TIP3    H162200   0.372   1.073   2.668 -1.6912 -0.2260  0.0743
13595TIP3    H262201   0.380   1.008   2.532  3.0567 -0.7086  0.4419
13596TIP3   OH262202   0.644   6.026   1.696  0.1747 -0.0427  0.2514
13596TIP3    H162203   0.554   6.055   1.712 -0.6413 -1.4503 -1.4008
13596TIP3    H262204   0.662   5.965   1.768 -0.3795 -0.1012  0.3468
13597TIP3   OH262205   1.122   4.075   5.138 -1.0513 -0.4907 -0.3461
13597TIP3    H162206   1.190   4.135   5.168  0.0488 -1.7908 -0.1852
13597TIP3    H262207   1.064   4.130   5.085 -1.2006  1.1385  1.3961
13598TIP3   OH262208   3.428   4.603   2.780  0.3378 -0.0870 -0.6572
13598TIP3    H162209   3.380   4.526   2.751  0.4034  0.1661 -1.4692
13598TIP3    H262210   3.435   4.658   2.701  1.7013  0.0147 -0.4874
13599TIP3   OH262211   1.358   2.087   3.024  0.0850  0.3553  0.3657
13599TIP3    H162212   1.448   2.077   3.057  0.8747  0.5977 -1.5845
13599TIP3    H262213   1.352   2.180   3.002 -0.2027  0.0972 -0.6773
13600TIP3   OH262214   4.949   4.520  15.398  0.2146  0.2861 -0.0618
13600TIP3    H162215   5.011   4.592  15.411  1.5368 -0.6852 -0.7551
13600TIP3    H262216   4.968   4.487  15.310 -0.6281 -0.6544  0.0912
13601TIP3   OH262217   4.384   0.176   3.917 -0.3680 -0.6045  0.1102
13601TIP3    H162218   4.400   0.168   4.011  2.3115  1.9093  0.0182
13601TIP3    H262219   4.302   0.225   3.911  0.4316  0.9912  1.2769
13602TIP3   OH262220   4.875   0.419   5.034  0.0131 -0.1586  0.3981
13602TIP3    H162221   4.782   0.437   5.046  0.2654  0.6129  1.3769
13602TIP3    H262222   4.908   0.496   4.986  0.0981 -0.5689 -0.2139
13603TIP3   OH262223   0.970   4.745   4.389  0.0453  0.2603  0.3417
13603TIP3    H162224   0.921   4.733   4.470 -1.1188 -1.0072 -0.5007
13603TIP3    H262225   0.922   4.813   4.342 -2.0581 -2.1239 -1.2239
13604TIP3   OH262226   2.129   6.628  11.654 -0.2805  0.1299 -0.3821
13604TIP3    H162227   2.152   6.714  11.691  0.6307  0.9311 -2.6095
13604TIP3    H262228   2.165   6.631  11.565 -1.7536 -1.9195 -1.0986
13605TIP3   OH262229   1.363   0.051  11.438  0.5451 -0.0703 -0.2246
13605TIP3    H162230   1.386   0.033  11.529 -0.2411  2.0519  0.4598
13605TIP3    H262231   1.434   0.107  11.405 -1.0597  2.4826  0.3978
13606TIP3   OH262232   1.808   2.952   5.201  0.4980  0.2103  0.6552
13606TIP3    H162233   1.751   2.990   5.135 -1.4288 -3.0482  0.2350
13606TIP3    H262234   1.894   2.946   5.159 -0.1493  0.2861 -0.7075
13607TIP3   OH262235   5.710   5.405   4.406  0.7053  0.5605  0.5457
13607TIP3    H162236   5.795   5.374   4.375  1.5554  0.7839  2.5031
13607TIP3    H262237   5.715   5.500   4.398  0.1986  0.5209 -0.3558
13608TIP3   OH262238   2.340   4.152   2.251 -0.2280 -0.2876  0.3918
13608TIP3    H162239   2.397   4.123   2.322  0.3314  0.4279  0.2468
13608TIP3    H262240   2.339   4.247   2.258 -0.4219 -0.2283 -0.3525
13609TIP3   OH262241   2.726   5.497  12.383  0.1405  0.7802 -0.3690
13609TIP3    H162242   2.743   5.471  12.292  0.4485  0.9193 -0.3514
13609TIP3    H262243   2.812   5.520  12.418  0.4421 -1.6570  0.7182
13610TIP3   OH262244   5.204   5.643  16.268 -0.0198  0.5869 -0.9926
13610TIP3    H162245   5.185   5.560  16.225  0.1910 -0.1373  0.2453
13610TIP3    H262246   5.144   5.645  16.343  0.2858  1.3465 -0.7614
13611TIP3   OH262247   6.509   1.782   3.449  0.5612  0.3493 -0.1885
13611TIP3    H162248   6.494   1.690   3.473 -0.7414  0.0682 -1.8577
13611TIP3    H262249   6.464   1.832   3.517 -0.4529 -0.3288 -0.3204
13612TIP3   OH262250   6.744   5.774   3.142 -0.2011  0.5872  0.1213
13612TIP3    H162251   6.835   5.751   3.161 -0.5704 -2.6531 -1.3826
13612TIP3    H262252   6.744   5.798   3.049 -0.8819  0.4108  0.0675
13613TIP3   OH262253   2.046   1.568  13.717  0.4111 -0.2918 -0.2598
13613TIP3    H162254   1.960   1.526  13.723  0.5909 -0.6198 -0.0055
13613TIP3    H262255   2.074   1.578  13.808 -0.5114  2.2029 -0.1637
13614TIP3   OH262256   3.418   5.399   4.260  0.6700 -0.5276 -0.2646
13614TIP3    H162257   3.464   5.399   4.345  2.2104 -0.2418 -1.0668
13614TIP3    H262258   3.354   5.329   4.268  2.4381 -2.1719  0.3193
13615TIP3   OH262259   4.376   2.266  12.120 -0.2164  0.4625 -0.1635
13615TIP3    H162260   4.302   2.296  12.173  0.0708 -0.1018  0.5792
13615TIP3    H262261   4.336   2.236  12.038 -0.8925 -0.3757  0.4463
13616TIP3   OH262262   0.682   5.665  11.763 -0.1049  0.3976  0.2195
13616TIP3    H162263   0.756   5.615  11.727 -0.7938  0.2823 -1.0890
13616TIP3    H262264   0.636   5.602  11.818  0.5007  0.3339  0.6637
13617TIP3   OH262265   2.896   5.226  13.636  0.0070 -0.2708  0.1174
13617TIP3    H162266   2.893   5.239  13.541 -0.2617 -0.1344  0.1417
13617TIP3    H262267   2.981   5.261  13.663 -0.6496  1.3495  0.1654
13618TIP3   OH262268   2.387   5.425   2.391  0.1808 -0.2553 -0.4706
13618TIP3    H162269   2.406   5.450   2.301 -1.0882  0.4129 -0.5860
13618TIP3    H262270   2.291   5.428   2.397  0.2613  1.1075  1.2540
13619TIP3   OH262271   2.557   2.368  12.734 -0.2524  0.6958 -0.3202
13619TIP3    H162272   2.593   2.285  12.702 -0.4999  0.9705 -1.3671
13619TIP3    H262273   2.508   2.344  12.813  2.1531  0.3088  1.1426
13620TIP3   OH262274   5.473   5.722   3.144  0.4467  0.0704 -0.0258
13620TIP3    H162275   5.568   5.736   3.137  0.2852  0.6066 -1.5160
13620TIP3    H262276   5.435   5.797   3.100 -0.7516  0.9046  2.3112
13621TIP3   OH262277   2.075   5.855   1.066 -0.2102 -0.0759  0.1448
13621TIP3    H162278   2.023   5.899   0.999  0.7244  0.7681 -0.0499
13621TIP3    H262279   2.011   5.810   1.120 -1.2678  1.9315  0.6631
13622TIP3   OH262280   5.587   2.200   4.795 -0.2666  0.0492  0.1048
13622TIP3    H162281   5.602   2.162   4.709  2.3898  3.3994 -1.1066
13622TIP3    H262282   5.533   2.277   4.778 -1.5625 -0.4037  1.8284
13623TIP3   OH262283   2.749   0.572  11.768  0.2443  0.3233  0.1172
13623TIP3    H162284   2.727   0.613  11.685  1.3614 -0.7094 -0.7356
13623TIP3    H262285   2.777   0.484  11.744  1.1496  0.1961  1.5190
13624TIP3   OH262286   5.585   0.348   0.552  0.1491  0.8024  0.1099
13624TIP3    H162287   5.516   0.378   0.612  0.9881  0.2182  1.4060
13624TIP3    H262288   5.610   0.426   0.503  0.5547  1.6851  1.6606
13625TIP3   OH262289   5.911   3.092   6.088  0.3813  0.3332  0.3855
13625TIP3    H162290   5.962   3.165   6.124  0.1094  0.1644  1.1223
13625TIP3    H262291   5.833   3.135   6.051 -0.6025  0.3052  2.2896
13626TIP3   OH262292   1.790   6.055   6.121  0.0645 -0.0831  0.5946
13626TIP3    H162293   1.850   6.129   6.108  0.0366  0.3744  2.6960
13626TIP3    H262294   1.718   6.071   6.061  1.9433 -0.6316 -2.0133
13627TIP3   OH262295   3.062   2.242  12.730  0.1810  0.1950 -0.1242
13627TIP3    H162296   3.098   2.166  12.776  2.1768  1.5677  0.7544
13627TIP3    H262297   2.985   2.208  12.684  0.0401 -1.9795  1.5244
13628TIP3   OH262298   1.020   2.403   4.006 -0.7581 -0.7970 -0.4870
13628TIP3    H162299   1.076   2.427   3.932  0.4106  2.4385  1.2461
13628TIP3    H262300   1.077   2.351   4.063 -0.8066 -0.9735 -0.5986
13629TIP3   OH262301   2.767   2.195  15.372  0.2110  0.5364 -0.2829
13629TIP3    H162302   2.717   2.178  15.452  1.4888 -1.1843  0.2220
13629TIP3    H262303   2.771   2.291  15.366 -1.0112  0.7040  0.9815
13630TIP3   OH262304   4.528   0.028  14.095 -0.1351  0.2066  0.4355
13630TIP3    H162305   4.467   0.009  14.023 -0.6654  0.0744  0.9144
13630TIP3    H262306   4.586   0.096  14.060  0.0475 -0.3371 -0.3532
13631TIP3   OH262307   3.422   3.334  16.943  0.2441 -0.6399  0.7911
13631TIP3    H162308   3.367   3.368  16.872 -1.4441 -1.2389  1.7368
13631TIP3    H262309   3.415   3.239  16.935  0.1627 -0.7109  1.6446
13632TIP3   OH262310   3.212   0.498   3.475 -0.5523 -0.5571 -0.6174
13632TIP3    H162311   3.239   0.415   3.437 -0.7666 -1.7711  1.6766
13632TIP3    H262312   3.281   0.518   3.539 -0.0287  1.5568 -1.7302
13633TIP3   OH262313   3.128   4.484   1.544 -0.0098  0.2673 -0.4420
13633TIP3    H162314   3.125   4.474   1.449 -1.6410 -2.7322 -0.1941
13633TIP3    H262315   3.037   4.475   1.572  0.7037 -1.6971  1.5480
13634TIP3   OH262316   5.665   3.728   4.683 -0.1996 -0.0232  0.8957
13634TIP3    H162317   5.701   3.678   4.610 -0.7084 -0.4019  0.8980
13634TIP3    H262318   5.574   3.697   4.691 -0.1956  0.1237  1.5847
13635TIP3   OH262319   3.194   5.446  13.433 -0.6388  0.8879 -0.2517
13635TIP3    H162320   3.175   5.539  13.442 -0.2625  1.0963 -1.4148
13635TIP3    H262321   3.210   5.434  13.339  0.6749 -0.0704  0.0632
13636TIP3   OH262322   6.075   1.033   5.665 -0.1313 -0.0594  0.0156
13636TIP3    H162323   6.137   1.088   5.617  0.2285  0.1021  0.6449
13636TIP3    H262324   6.107   0.944   5.654 -0.5589 -0.1237 -0.7778
13637TIP3   OH262325   0.100   6.628   3.209 -0.2665 -0.0745  0.0936
13637TIP3    H162326   0.110   6.535   3.191  0.4584 -0.0268  0.2107
13637TIP3    H262327   0.043   6.632   3.286 -1.6087 -0.3522 -0.8664
13638TIP3   OH262328   2.186   1.529  10.866 -0.4098  0.2021  0.1147
13638TIP3    H162329   2.097   1.557  10.890 -1.4050 -0.6057 -2.3338
13638TIP3    H262330   2.178   1.434  10.852 -0.1632  0.5845 -3.6937
13639TIP3   OH262331   6.673   5.795  12.650  0.4952 -0.5906  0.4533
13639TIP3    H162332   6.655   5.886  12.673 -2.3398 -1.6085  2.9329
13639TIP3    H262333   6.629   5.783  12.566  0.1944  0.1473  0.4931
13640TIP3   OH262334   2.195   4.464  11.783  0.5880 -0.1810  0.5422
13640TIP3    H162335   2.167   4.387  11.734  1.0665  0.7135 -1.1893
13640TIP3    H262336   2.114   4.502  11.817  0.3577 -1.4977  1.5759
13641TIP3   OH262337   4.598   2.840   3.348 -0.0837 -0.3195 -0.2846
13641TIP3    H162338   4.544   2.918   3.343 -0.2921 -0.4340  0.1876
13641TIP3    H262339   4.568   2.794   3.427 -1.0498 -1.6699 -1.3771
13642TIP3   OH262340   2.009   1.340   1.138 -0.1204  0.0190 -0.3497
13642TIP3    H162341   1.924   1.372   1.167  0.4009  1.1850 -0.0273
13642TIP3    H262342   2.061   1.333   1.218  0.3770  0.2598 -0.6423
13643TIP3   OH262343   4.193   0.356   3.718 -0.3384  0.6990  0.2068
13643TIP3    H162344   4.187   0.423   3.786 -0.4434  1.1167 -0.2082
13643TIP3    H262345   4.141   0.391   3.646 -1.4330 -0.3758  0.4319
13644TIP3   OH262346   2.981   4.079  16.283  0.5471  0.3290 -0.5232
13644TIP3    H162347   2.931   4.152  16.247  0.2451  0.0237 -0.7366
13644TIP3    H262348   3.022   4.039  16.206 -1.0844 -1.0732 -0.7390
13645TIP3   OH262349   1.012   6.748  11.566  0.0979 -0.1381 -0.1198
13645TIP3    H162350   1.002   6.804  11.643  0.4906  0.3250 -0.4007
13645TIP3    H262351   1.086   6.786  11.518  0.7609 -1.2331 -0.0160
13646TIP3   OH262352   1.336   2.889   6.121 -0.7271  0.2132  0.0032
13646TIP3    H162353   1.351   2.924   6.033  0.6774 -1.6900 -0.5865
13646TIP3    H262354   1.409   2.922   6.173 -1.4007  1.1023  0.4040
13647TIP3   OH262355   5.667   1.844   4.468 -0.4564  0.0490 -0.5089
13647TIP3    H162356   5.745   1.893   4.494 -1.3382  1.2417  0.0026
13647TIP3    H262357   5.611   1.844   4.546 -0.4806 -1.8395 -0.4878
13648TIP3   OH262358   5.729   0.184   3.269  0.0669  0.4656  0.1971
13648TIP3    H162359   5.819   0.199   3.241  1.0447 -2.1557  1.5903
13648TIP3    H262360   5.695   0.118   3.207 -1.0274  1.5896 -0.4549
13649TIP3   OH262361   1.788   2.533   1.643 -0.4809  1.1123 -0.2860
13649TIP3    H162362   1.731   2.552   1.717 -2.1935 -0.3291 -1.1543
13649TIP3    H262363   1.866   2.493   1.682 -1.1572  0.7889  0.7704
13650TIP3   OH262364   4.213   5.680  12.479 -0.2916 -0.0238  0.3940
13650TIP3    H162365   4.232   5.653  12.569  2.5651  1.1936  0.2453
13650TIP3    H262366   4.181   5.770  12.487  1.3276  0.6148  0.1842
13651TIP3   OH262367   0.767   1.528  13.092  0.0219  0.0609 -0.8980
13651TIP3    H162368   0.695   1.490  13.143 -0.3311 -0.1109 -1.5173
13651TIP3    H262369   0.844   1.519  13.149  0.0393 -1.9323 -1.1545
13652TIP3   OH262370   2.611   5.595  11.428  0.1683  0.0831 -0.2512
13652TIP3    H162371   2.680   5.641  11.381  1.5888 -2.0852 -0.4586
13652TIP3    H262372   2.579   5.658  11.493  3.5434  0.7127  1.0044
13653TIP3   OH262373   6.580   4.767   4.741  0.6006  0.1401 -0.1829
13653TIP3    H162374   6.649   4.740   4.681  0.7182  0.4805 -0.2002
13653TIP3    H262375   6.502   4.776   4.686  0.5714 -0.1065 -0.1859
13654TIP3   OH262376   2.247   5.384  16.335  0.3828 -0.5909  0.5855
13654TIP3    H162377   2.155   5.391  16.308 -0.0431 -0.3365  2.0422
13654TIP3    H262378   2.259   5.454  16.399  0.3042 -3.2850  3.8374
13655TIP3   OH262379   0.350   6.318   0.637 -0.2913  0.7742 -0.5244
13655TIP3    H162380   0.377   6.263   0.563 -0.6840  1.2691 -1.0473
13655TIP3    H262381   0.393   6.279   0.713  0.9923  0.8676 -1.1641
13656TIP3   OH262382   4.952   6.593  17.010 -0.2686 -0.7995 -0.2487
13656TIP3    H162383   4.998   6.677  17.001 -0.6555 -0.5076  0.4449
13656TIP3    H262384   5.023   6.529  17.019  0.0218 -0.3891  0.5111
13657TIP3   OH262385   4.745   2.984  13.234 -0.1022  0.4991 -0.1129
13657TIP3    H162386   4.815   2.989  13.170 -0.0937  1.1794 -0.0561
13657TIP3    H262387   4.783   3.020  13.314 -0.8678  2.0265 -0.4035
13658TIP3   OH262388   2.564   6.652   5.118 -0.3414  0.2622 -0.4986
13658TIP3    H162389   2.488   6.681   5.067 -0.6134 -0.7408 -0.6992
13658TIP3    H262390   2.553   6.557   5.125  0.8197  0.1123 -0.4077
13659TIP3   OH262391   4.075   3.338  14.039 -0.3872  0.1570 -0.0493
13659TIP3    H162392   4.082   3.420  13.990  3.4989 -0.1165 -0.2268
13659TIP3    H262393   4.081   3.270  13.972  1.5362 -0.2214  0.4680
13660TIP3   OH262394   2.883   2.123   3.246 -0.7344 -0.0856  0.2722
13660TIP3    H162395   2.887   2.084   3.333  0.6759  1.6485  1.0282
13660TIP3    H262396   2.802   2.175   3.246  0.0348  1.1590  1.1392
13661TIP3   OH262397   4.905   3.990   0.837  0.0119 -0.3865 -0.1044
13661TIP3    H162398   4.849   4.032   0.902  0.8442 -0.2467  0.5439
13661TIP3    H262399   4.885   4.034   0.754  0.3209  0.7783  0.4229
13662TIP3   OH262400   2.760   5.777  16.307  0.6222  0.0047  0.3022
13662TIP3    H162401   2.830   5.826  16.264  0.7683  0.5216  1.1140
13662TIP3    H262402   2.681   5.802  16.259  0.4314  2.2954  1.6332
13663TIP3   OH262403   6.628   4.505  14.722  0.1588  0.1404  0.3653
13663TIP3    H162404   6.714   4.477  14.755  0.8375  3.0764  1.4663
13663TIP3    H262405   6.565   4.450  14.767  1.4161 -1.1499  0.6008
13664TIP3   OH262406   4.843   3.268   0.461 -0.0025 -0.0888  0.2701
13664TIP3    H162407   4.809   3.291   0.547 -0.1732 -1.5930  0.6444
13664TIP3    H262408   4.881   3.349   0.427 -0.0628  0.5695  1.6962
13665TIP3   OH262409   1.347   4.565  16.518  0.2879 -0.0068 -0.0240
13665TIP3    H162410   1.302   4.631  16.465  0.1145 -1.9968 -2.5222
13665TIP3    H262411   1.421   4.538  16.465  0.2684 -1.9347  0.8539
13666TIP3   OH262412   0.627   3.954   1.562 -0.6575 -0.7280  0.5407
13666TIP3    H162413   0.642   3.958   1.656  1.1837 -0.9711  0.3094
13666TIP3    H262414   0.571   4.029   1.543  0.2789  0.2890  1.6363
13667TIP3   OH262415   5.966   2.217  14.389 -0.4275  0.1341 -0.5535
13667TIP3    H162416   6.015   2.229  14.470  0.0927  1.4830 -1.0441
13667TIP3    H262417   6.024   2.165  14.333 -0.5395 -0.2754 -0.2979
13668TIP3   OH262418   5.588   3.040   6.046  0.2687 -0.1368  0.6125
13668TIP3    H162419   5.614   3.084   6.127  0.5863  0.6418  0.0980
13668TIP3    H262420   5.500   3.007   6.063  0.1372  0.4617  1.1044
13669TIP3   OH262421   1.388   5.998  10.780  0.7411  0.1453 -0.5251
13669TIP3    H162422   1.392   6.071  10.841 -1.2455  0.8110 -1.1263
13669TIP3    H262423   1.443   5.930  10.820 -1.3550  0.1025  2.6100
13670TIP3   OH262424   1.439   2.158  11.910 -0.2139 -0.0868 -0.7180
13670TIP3    H162425   1.414   2.205  11.830 -1.1067  0.7285  0.0176
13670TIP3    H262426   1.434   2.224  11.979  2.4173 -0.2707 -0.2357
13671TIP3   OH262427   2.535   5.020  14.817  0.2310  0.3265  0.0671
13671TIP3    H162428   2.441   5.032  14.828 -0.4491 -2.9564 -1.0300
13671TIP3    H262429   2.548   5.025  14.722  1.1744  0.7474  0.2131
13672TIP3   OH262430   1.902   1.741   4.998 -0.6885 -0.1623 -0.3269
13672TIP3    H162431   1.835   1.758   4.932 -1.1783  0.8927  0.4176
13672TIP3    H262432   1.984   1.758   4.953 -1.0544  1.6010 -0.4071
13673TIP3   OH262433   1.363   5.469  12.863 -1.0397  0.3098  0.1912
13673TIP3    H162434   1.293   5.505  12.809 -1.1642 -0.4260 -0.1529
13673TIP3    H262435   1.382   5.537  12.928 -0.5971  1.3883 -1.0284
13674TIP3   OH262436   4.543   0.869   2.412 -0.3746 -0.1199  0.0380
13674TIP3    H162437   4.572   0.857   2.503 -0.5034  3.6322  0.7098
13674TIP3    H262438   4.624   0.883   2.363 -0.3886 -1.0817 -0.2916
13675TIP3   OH262439   0.287   4.796   5.737 -0.0633 -0.0530 -0.3726
13675TIP3    H162440   0.336   4.761   5.812  1.7233  2.2418 -0.3567
13675TIP3    H262441   0.225   4.857   5.776  0.5428  0.7895 -0.7063
13676TIP3   OH262442   0.813   5.846   1.903  0.3571 -0.0526 -0.2058
13676TIP3    H162443   0.886   5.857   1.964  0.1771  0.1279 -0.0213
13676TIP3    H262444   0.826   5.759   1.866  1.1449  0.3068 -0.8128
13677TIP3   OH262445   3.946   4.369   0.547 -0.6106 -0.2141  0.9335
13677TIP3    H162446   4.037   4.390   0.570 -0.2717 -0.2546 -0.3063
13677TIP3    H262447   3.903   4.354   0.631  1.0928 -2.5531  1.4697
13678TIP3   OH262448   3.870   0.649  11.330 -0.6820 -0.5199  0.7717
13678TIP3    H162449   3.860   0.690  11.244 -1.1028  1.3210  1.6543
13678TIP3    H262450   3.815   0.571  11.327  1.2071 -1.8783 -1.4389
13679TIP3   OH262451   1.060   0.714  17.098 -0.3929  0.5871  0.2959
13679TIP3    H162452   1.092   0.700  17.009 -0.5400 -0.6173  0.4081
13679TIP3    H262453   1.000   0.788  17.091 -0.0429  0.8011 -0.5162
13680TIP3   OH262454   2.745   5.418   1.589 -0.2677  0.2506 -0.5030
13680TIP3    H162455   2.836   5.444   1.577 -0.2686  0.4586 -0.0856
13680TIP3    H262456   2.748   5.352   1.658 -0.1311 -1.7128 -2.2961
13681TIP3   OH262457   0.626   0.349   1.552 -0.0630 -0.1682  0.4759
13681TIP3    H162458   0.645   0.418   1.615  1.8445  0.1838 -0.4352
13681TIP3    H262459   0.582   0.281   1.603 -1.3803  1.3940  1.5228
13682TIP3   OH262460   5.242   1.192   6.836 -0.3251  0.2610  1.0072
13682TIP3    H162461   5.290   1.195   6.753 -1.3324  0.1591  0.4047
13682TIP3    H262462   5.231   1.098   6.853 -0.9382  0.2846  0.7613
13683TIP3   OH262463   5.663   1.728   3.070 -0.5322 -0.4297 -0.0673
13683TIP3    H162464   5.606   1.778   3.129  1.5013 -1.0518  2.6228
13683TIP3    H262465   5.662   1.640   3.107  0.5856 -0.9294 -1.1893
13684TIP3   OH262466   1.298   5.839  15.822 -0.0914  0.4894 -0.3208
13684TIP3    H162467   1.263   5.754  15.796  3.4511 -0.1412 -4.0516
13684TIP3    H262468   1.293   5.839  15.917 -3.3325 -2.3659 -0.3123
13685TIP3   OH262469   2.662   2.583  16.316 -0.4557  0.0233 -0.1111
13685TIP3    H162470   2.707   2.516  16.368 -2.3578 -0.1001  1.5057
13685TIP3    H262471   2.641   2.539  16.234  3.1367  0.3976 -1.4000
13686TIP3   OH262472   4.021   5.672   1.293 -0.2165  0.1963  0.7560
13686TIP3    H162473   3.972   5.680   1.375 -0.0444  0.7953  0.8115
13686TIP3    H262474   3.987   5.743   1.238  1.5829  1.6204  1.3390
13687TIP3   OH262475   3.977   5.693  11.925  0.6611  0.2868 -0.2785
13687TIP3    H162476   3.915   5.707  11.997  1.2286 -0.7271  0.4259
13687TIP3    H262477   4.039   5.629  11.959 -0.8704 -2.7724 -2.6905
13688TIP3   OH262478   2.182   6.484  15.327  0.1053  0.7163  0.0018
13688TIP3    H162479   2.238   6.555  15.296  0.1908  1.3779  1.6068
13688TIP3    H262480   2.240   6.430  15.381  0.0118 -0.5450 -1.0939
13689TIP3   OH262481   4.956   3.716  15.573 -0.3604 -0.6864 -0.0127
13689TIP3    H162482   4.863   3.694  15.567 -0.3791 -0.5296 -0.2980
13689TIP3    H262483   5.000   3.631  15.583 -0.3461 -0.9914 -2.1059
13690TIP3   OH262484   1.282   2.179   6.583 -0.2239 -0.4582 -0.3413
13690TIP3    H162485   1.351   2.245   6.585 -2.9784  2.7681 -2.2436
13690TIP3    H262486   1.288   2.140   6.496 -2.2786  1.8304 -1.6421
13691TIP3   OH262487   6.145   4.182  10.871  0.2147 -0.3659 -0.3002
13691TIP3    H162488   6.090   4.114  10.831  1.3371 -1.9288  0.7191
13691TIP3    H262489   6.149   4.251  10.804  0.2748 -1.9567 -2.0204
13692TIP3   OH262490   4.091   0.944   1.920 -0.1013 -0.1829 -0.0093
13692TIP3    H162491   4.150   0.977   1.988 -0.6463  1.4721 -0.2944
13692TIP3    H262492   4.149   0.907   1.853  0.6638  1.6941 -0.4314
13693TIP3   OH262493   1.847   5.401   3.046  0.0476  0.3891  0.3600
13693TIP3    H162494   1.841   5.307   3.059  0.6361  0.5802  2.3764
13693TIP3    H262495   1.893   5.433   3.124  1.4693  2.1453 -1.1175
13694TIP3   OH262496   4.337   4.079   0.687 -0.9104 -0.0061 -0.3443
13694TIP3    H162497   4.272   4.149   0.679  0.2265  0.9898 -1.2931
13694TIP3    H262498   4.413   4.122   0.726 -1.3657 -1.5679  2.6316
13695TIP3   OH262499   5.828   0.879   5.961 -0.1136  0.0402  0.1435
13695TIP3    H162500   5.870   0.894   6.045  1.8445  0.3689 -0.8419
13695TIP3    H262501   5.827   0.965   5.919  0.1610 -0.3577 -0.6984
13696TIP3   OH262502   1.975   5.820   2.827  0.2258 -0.3970 -0.2142
13696TIP3    H162503   1.925   5.901   2.816  0.2018 -0.0789  1.8929
13696TIP3    H262504   1.909   5.750   2.825 -0.1655 -0.0888  1.1310
13697TIP3   OH262505   0.280   2.592  14.839  0.2388  0.0412 -0.1964
13697TIP3    H162506   0.286   2.637  14.755  0.7315  1.0054  0.3225
13697TIP3    H262507   0.202   2.630  14.881  0.5555  0.2890  0.1753
13698TIP3   OH262508   5.955   2.153   1.494 -0.2273  0.1826 -0.2341
13698TIP3    H162509   5.919   2.205   1.566 -3.1502 -1.6743 -0.1614
13698TIP3    H262510   5.885   2.153   1.428  1.2869 -0.4108 -1.9144
13699TIP3   OH262511   4.775   0.870   1.763  0.4794 -0.2488  0.9165
13699TIP3    H162512   4.773   0.895   1.670 -1.4175 -3.2127  0.0277
13699TIP3    H262513   4.823   0.788   1.764 -0.7746 -0.9984  2.3130
13700TIP3   OH262514   3.694   2.633   6.729  0.0338 -0.0052 -0.3164
13700TIP3    H162515   3.650   2.573   6.789  1.7995 -1.9308 -0.8451
13700TIP3    H262516   3.760   2.677   6.782  1.4731 -1.5752 -0.7361
13701TIP3   OH262517   2.576   5.158   0.359 -0.2046  0.1223 -0.1043
13701TIP3    H162518   2.546   5.094   0.295 -0.1195 -0.1693  0.1444
13701TIP3    H262519   2.666   5.130   0.380 -0.3649 -0.0157  0.4277
13702TIP3   OH262520   3.570   6.395   0.119 -0.0297 -0.0400 -0.3171
13702TIP3    H162521   3.662   6.376   0.103  0.5549  0.9100  1.6255
13702TIP3    H262522   3.555   6.480   0.077 -0.0411 -0.1919 -0.6277
13703TIP3   OH262523   5.317   0.027   2.955 -0.0325 -0.0004 -0.3585
13703TIP3    H162524   5.270  -0.056   2.955 -1.5096  0.7986 -0.4462
13703TIP3    H262525   5.326   0.050   3.047  0.5355 -0.3221 -0.3262
13704TIP3   OH262526   1.873   0.087  13.864  0.3469  0.1417  0.2582
13704TIP3    H162527   1.854   0.006  13.816 -0.2984  0.5969 -0.2688
13704TIP3    H262528   1.910   0.146  13.798 -2.2254  1.4070 -0.1548
13705TIP3   OH262529   0.369   1.434  15.891 -0.4484 -0.0772 -1.0700
13705TIP3    H162530   0.374   1.481  15.808 -3.5345  2.3968 -0.0330
13705TIP3    H262531   0.393   1.498  15.958 -1.3702 -0.9631  0.1753
13706TIP3   OH262532   1.049   2.434   2.254  0.1895  0.1214 -0.2236
13706TIP3    H162533   0.960   2.464   2.272 -0.1595  0.0318 -1.7041
13706TIP3    H262534   1.054   2.348   2.296  0.1925  0.8861  1.4125
13707TIP3   OH262535   5.320   1.569   5.314  0.1019  0.2545 -0.2619
13707TIP3    H162536   5.361   1.617   5.386  1.1749  0.3806 -0.9283
13707TIP3    H262537   5.262   1.506   5.356  0.9768  0.0904  0.7348
13708TIP3   OH262538   0.610   2.921  16.351 -1.0465 -0.0054  0.3922
13708TIP3    H162539   0.596   2.998  16.407  1.6837  0.7312  0.1903
13708TIP3    H262540   0.669   2.866  16.402 -0.1429 -0.2807 -0.9262
13709TIP3   OH262541   6.540   1.699  11.643  0.1713  0.2202  0.1443
13709TIP3    H162542   6.519   1.767  11.578  0.5778 -1.0573 -1.4013
13709TIP3    H262543   6.455   1.672  11.677  0.0385  1.9982  1.3645
13710TIP3   OH262544   6.204   3.810  12.311  0.5190 -0.0307  0.2232
13710TIP3    H162545   6.130   3.819  12.371 -1.1930 -0.0158 -1.7507
13710TIP3    H262546   6.196   3.885  12.252 -0.9593 -2.4510 -3.0294
13711TIP3   OH262547   3.300   2.261  15.446 -1.2182  0.4307  0.1300
13711TIP3    H162548   3.351   2.191  15.487 -0.5549 -0.3031 -1.8160
13711TIP3    H262549   3.349   2.341  15.464  0.8869 -0.2725 -1.8861
13712TIP3   OH262550   1.208   3.976  11.589 -0.0606  0.4936 -0.0976
13712TIP3    H162551   1.131   4.019  11.553  0.5042  1.5617 -0.0901
13712TIP3    H262552   1.230   3.909  11.526 -0.5547  0.6842 -0.4782
13713TIP3   OH262553   4.490   5.054  11.733  0.0205 -0.6769  0.0514
13713TIP3    H162554   4.559   5.092  11.679  1.4743 -1.5682  1.1914
13713TIP3    H262555   4.412   5.056  11.678  1.1930 -0.5943 -1.6815
13714TIP3   OH262556   2.721   1.415  13.756  0.5337  0.3564  0.1714
13714TIP3    H162557   2.702   1.374  13.672  1.5707  0.1918  0.0053
13714TIP3    H262558   2.723   1.343  13.818  1.5598  0.2324  0.0156
13715TIP3   OH262559   4.966   5.049  14.269 -0.4188 -0.0696 -0.4183
13715TIP3    H162560   4.990   5.114  14.335 -0.1692 -1.0569  0.4998
13715TIP3    H262561   4.871   5.057  14.261 -1.0820 -2.4385  2.9333
13716TIP3   OH262562   5.155   2.081   0.686 -0.2768  0.9075  0.2300
13716TIP3    H162563   5.241   2.102   0.723  0.4420 -0.0513 -0.8396
13716TIP3    H262564   5.099   2.154   0.713  1.0948  2.0234  0.1743
13717TIP3   OH262565   5.743   0.132  13.577  0.0934  0.2698  0.2032
13717TIP3    H162566   5.775   0.042  13.576  1.6552  0.7856  0.0717
13717TIP3    H262567   5.730   0.155  13.485 -0.3003  0.1897  0.2359
13718TIP3   OH262568   3.229   6.223   0.469 -0.1304  0.0062  0.2971
13718TIP3    H162569   3.250   6.202   0.378 -0.4378  0.3153  0.1551
13718TIP3    H262570   3.135   6.211   0.476 -0.0654 -0.3071  0.6545
13719TIP3   OH262571   4.575   4.735  13.193 -0.2835 -0.6425  0.2453
13719TIP3    H162572   4.658   4.746  13.240 -1.2318  0.2316  1.8112
13719TIP3    H262573   4.563   4.818  13.146 -0.9196 -0.1944  1.1627
13720TIP3   OH262574   3.305   5.237  16.319 -0.5419 -0.2246 -0.1674
13720TIP3    H162575   3.289   5.164  16.379  1.7005 -0.9868 -0.3863
13720TIP3    H262576   3.339   5.307  16.374  1.3966 -0.8811 -0.4373
13721TIP3   OH262577   4.724   0.949  16.681  0.6630  0.3718  0.2762
13721TIP3    H162578   4.670   1.023  16.707 -0.3788 -0.5511  0.8598
13721TIP3    H262579   4.665   0.873  16.687  1.8820 -0.5997  0.3994
13722TIP3   OH262580   5.091   1.143   2.749  0.3342 -0.1906  0.2924
13722TIP3    H162581   5.162   1.125   2.688 -1.5978 -0.7187 -1.9287
13722TIP3    H262582   5.116   1.098   2.830  2.2981 -0.6693 -0.5359
13723TIP3   OH262583   2.198   2.671  14.570 -0.0505  0.7765 -0.2837
13723TIP3    H162584   2.188   2.684  14.665 -3.8494  0.1905 -0.4700
13723TIP3    H262585   2.130   2.609  14.547  1.8450 -0.4052 -3.2357
13724TIP3   OH262586   6.156   4.852   4.308  0.1613 -0.1748 -0.0967
13724TIP3    H162587   6.149   4.772   4.257  0.1921  0.1746 -0.6532
13724TIP3    H262588   6.249   4.875   4.304  0.0271  0.3088 -0.5962
13725TIP3   OH262589   0.921   1.427   0.562 -0.5124  0.4069 -0.2361
13725TIP3    H162590   0.843   1.375   0.580 -1.2910  1.1013 -1.4619
13725TIP3    H262591   0.888   1.515   0.547  0.1485  0.2071 -3.4762
13726TIP3   OH262592   4.705   3.758  15.143 -0.0895 -0.5848 -0.1850
13726TIP3    H162593   4.755   3.748  15.062  0.6010 -1.8400  0.3586
13726TIP3    H262594   4.624   3.710  15.127 -0.1788 -0.3964 -0.3045
13727TIP3   OH262595   2.587   6.050  17.319  0.0643 -0.4516  0.0141
13727TIP3    H162596   2.505   6.056  17.367  0.3559  0.0530  0.4592
13727TIP3    H262597   2.636   5.980  17.363  0.4591  0.2185  0.6635
13728TIP3   OH262598   1.472   0.788  12.571  0.0109  0.1804  0.6161
13728TIP3    H162599   1.433   0.754  12.491  0.1265  0.6074  0.3760
13728TIP3    H262600   1.416   0.862  12.595 -0.0970 -0.0228  0.9997
13729TIP3   OH262601   2.101   5.742   3.423 -0.0327  0.3936 -0.2607
13729TIP3    H162602   2.057   5.693   3.492 -2.3118  1.5216 -0.8204
13729TIP3    H262603   2.159   5.803   3.469  1.4512 -1.4565  0.4715
13730TIP3   OH262604   2.535   6.659   4.222 -0.1442 -0.2636  0.5682
13730TIP3    H162605   2.547   6.566   4.199  1.4210  0.2210 -0.8095
13730TIP3    H262606   2.456   6.684   4.175 -2.1378 -1.4965  3.0650
13731TIP3   OH262607   1.316   2.988   5.854  0.4850  0.4514 -0.2480
13731TIP3    H162608   1.302   3.075   5.892  0.2556  1.8171 -3.2038
13731TIP3    H262609   1.378   3.002   5.782  1.0081 -1.9780 -0.3621
13732TIP3   OH262610   5.038   4.119   4.555  0.6793  0.0749 -0.0854
13732TIP3    H162611   5.105   4.055   4.531  0.3131  0.0923 -1.2114
13732TIP3    H262612   5.011   4.094   4.643 -0.8965 -2.5982 -1.2259
13733TIP3   OH262613   5.808   2.137   0.238  0.2152  0.1347  0.0793
13733TIP3    H162614   5.804   2.048   0.274 -0.4455 -0.3319 -1.1021
13733TIP3    H262615   5.734   2.183   0.278  0.3973  0.0750  0.4854
13734TIP3   OH262616   6.013   4.563  15.261 -0.1308 -0.1624  0.1474
13734TIP3    H162617   6.022   4.573  15.356  0.3422 -1.1974  0.2244
13734TIP3    H262618   5.918   4.554  15.247 -0.4277  2.0937  0.2643
13735TIP3   OH262619   0.061   6.030  14.171 -0.0875  0.5767  0.0755
13735TIP3    H162620   0.081   5.970  14.099  0.9491  1.8330 -0.7469
13735TIP3    H262621  -0.033   6.020  14.186 -0.0222 -0.8923 -0.3288
13736TIP3   OH262622   4.167   5.306  12.909 -0.1541  0.2703 -0.5341
13736TIP3    H162623   4.123   5.277  12.989  0.0416  1.8613  0.1995
13736TIP3    H262624   4.204   5.226  12.872 -0.3655 -0.5404  0.9009
13737TIP3   OH262625   1.251   2.924   5.454 -0.7628  0.0476 -0.2590
13737TIP3    H162626   1.271   2.982   5.380 -0.9215  0.5712  0.1122
13737TIP3    H262627   1.286   2.969   5.530  3.9019 -2.6113 -0.4436
13738TIP3   OH262628   1.934   4.688   3.347  0.1712 -0.8671  0.5163
13738TIP3    H162629   1.840   4.668   3.352  0.2658 -1.3210  0.4866
13738TIP3    H262630   1.937   4.781   3.325 -0.2837 -1.0410 -0.3396
13739TIP3   OH262631   0.446   0.952  15.437  0.2312  0.2465 -0.3334
13739TIP3    H162632   0.536   0.965  15.466 -0.0305  0.5742  0.3622
13739TIP3    H262633   0.393   0.966  15.516 -0.6286  2.5569 -1.2409
13740TIP3   OH262634   0.212   4.432  13.510 -0.0714 -0.2792 -0.2563
13740TIP3    H162635   0.153   4.503  13.537 -0.1045  0.8240 -2.8617
13740TIP3    H262636   0.154   4.364  13.478  0.0135 -0.4400 -0.0669
13741TIP3   OH262637   6.498   4.606   4.957  0.1932 -0.3082 -0.4272
13741TIP3    H162638   6.512   4.647   5.042 -0.4473 -0.9298 -0.0099
13741TIP3    H262639   6.527   4.671   4.894  2.2806 -0.4520  0.2923
13742TIP3   OH262640   2.257   5.604  10.659  0.5336 -0.7099 -0.3613
13742TIP3    H162641   2.289   5.526  10.705  0.2977 -0.6790 -0.1421
13742TIP3    H262642   2.319   5.673  10.683 -0.1902 -0.4396  0.7737
13743TIP3   OH262643   6.669   1.276   6.681  0.6189 -0.5778 -0.7734
13743TIP3    H162644   6.705   1.364   6.695  1.9288 -1.3021  0.8176
13743TIP3    H262645   6.728   1.236   6.618 -0.5123 -0.0565 -2.2201
13744TIP3   OH262646   2.798   3.548  14.704  0.0633 -0.0922  0.4150
13744TIP3    H162647   2.732   3.597  14.754 -0.9052 -0.9382  0.0015
13744TIP3    H262648   2.836   3.487  14.767 -0.5697 -0.5828  0.3393
13745TIP3   OH262649   0.690   5.222   2.254 -0.1325 -0.3413 -0.1733
13745TIP3    H162650   0.612   5.214   2.308  0.4317 -2.5697  0.4381
13745TIP3    H262651   0.755   5.264   2.311 -0.5275  0.4009 -0.2715
13746TIP3   OH262652   1.265   2.995   5.006  0.0384  0.3780  0.0135
13746TIP3    H162653   1.325   3.058   4.966  1.3771 -0.8511  0.0094
13746TIP3    H262654   1.245   3.032   5.093  0.2373  1.1355 -0.2585
13747TIP3   OH262655   6.333   0.908  13.729 -0.5430  0.4156 -0.1085
13747TIP3    H162656   6.389   0.836  13.701 -1.3693  0.6151 -2.5870
13747TIP3    H262657   6.317   0.892  13.822  0.0441 -2.0497 -0.3655
13748TIP3   OH262658   2.282   2.336   1.071 -0.3376  0.5970 -0.6343
13748TIP3    H162659   2.337   2.342   0.993  0.3130 -1.2817 -0.3630
13748TIP3    H262660   2.337   2.372   1.141  0.4247 -0.8695 -0.4450
13749TIP3   OH262661   5.168   2.087   5.646 -0.3848  0.0374 -0.2183
13749TIP3    H162662   5.118   2.148   5.700 -0.0825 -1.9445  2.4639
13749TIP3    H262663   5.259   2.113   5.659 -0.3891  0.7437 -1.4021
13750TIP3   OH262664   4.289   6.672  11.673  0.7003 -0.0846 -0.3190
13750TIP3    H162665   4.196   6.688  11.656  0.9819  1.5598 -0.4971
13750TIP3    H262666   4.321   6.755  11.711  2.5668  0.1858 -2.3033
13751TIP3   OH262667   3.291   4.629   5.390  0.4817  0.0755 -0.1572
13751TIP3    H162668   3.373   4.583   5.407  0.1251  0.1427  2.0225
13751TIP3    H262669   3.224   4.577   5.435 -0.3594  1.1211 -0.1580
13752TIP3   OH262670   5.764   3.631  11.799 -0.1523 -0.3338  0.1993
13752TIP3    H162671   5.805   3.557  11.754 -0.9540  0.0726 -1.2897
13752TIP3    H262672   5.672   3.607  11.805 -0.1883 -0.0385  0.9482
13753TIP3   OH262673   1.077   3.942   2.313 -0.2215  0.3563 -0.4727
13753TIP3    H162674   1.031   3.897   2.242 -1.4610  0.2339  0.3776
13753TIP3    H262675   1.162   3.964   2.276 -0.8121  0.2387 -1.9763
13754TIP3   OH262676   3.914   3.244  11.150 -0.3271  0.0200  0.3246
13754TIP3    H162677   3.840   3.207  11.103 -1.9489  3.2983  0.0014
13754TIP3    H262678   3.920   3.192  11.231 -2.2983 -0.9937 -0.1165
13755TIP3   OH262679   1.476   2.280   2.360 -0.4975 -0.2797 -0.4880
13755TIP3    H162680   1.464   2.337   2.436 -1.2938 -0.6230 -0.3459
13755TIP3    H262681   1.436   2.327   2.288 -1.2584 -0.7069 -0.3469
13756TIP3   OH262682   5.655   0.126  17.185 -0.1091 -0.4464  0.5429
13756TIP3    H162683   5.637   0.203  17.131  0.5298 -0.6967 -0.0393
13756TIP3    H262684   5.654   0.053  17.123  0.0250 -0.8151  0.9685
13757TIP3   OH262685   5.174   5.956  15.042  0.4372 -0.0397  0.3069
13757TIP3    H162686   5.117   5.880  15.029 -0.5891  0.6946  0.4152
13757TIP3    H262687   5.129   6.009  15.107  1.6487  0.1807  1.0100
13758TIP3   OH262688   5.933   3.686  14.180 -0.1409  0.1438  0.0862
13758TIP3    H162689   5.885   3.639  14.112 -0.2758 -2.9032  2.0681
13758TIP3    H262690   6.026   3.668  14.161  0.0841  2.2866 -1.1940
13759TIP3   OH262691   4.764   0.398  11.286  0.1091  0.3229  0.5959
13759TIP3    H162692   4.827   0.355  11.344  0.5400  0.9043  0.5709
13759TIP3    H262693   4.750   0.484  11.326 -0.1438  0.4568  0.2278
13760TIP3   OH262694   1.314   2.248  12.215 -0.1745  0.2918  0.1821
13760TIP3    H162695   1.286   2.291  12.134 -0.3422  1.1467  0.6827
13760TIP3    H262696   1.307   2.155  12.196 -1.3870  0.4779 -0.4056
13761TIP3   OH262697   0.204   0.279  10.735  0.8374  0.1333  0.0032
13761TIP3    H162698   0.167   0.280  10.646 -1.8871 -3.4317  0.8767
13761TIP3    H262699   0.131   0.256  10.791  2.5926  1.7851  3.2481
13762TIP3   OH262700   6.485   6.609  12.230  0.5128  0.0883 -0.2319
13762TIP3    H162701   6.481   6.553  12.152 -0.9756  0.2875 -0.3323
13762TIP3    H262702   6.453   6.694  12.200 -0.4975  0.0529  0.6731
13763TIP3   OH262703   0.486   3.227  16.441 -0.0904  0.3058  0.3022
13763TIP3    H162704   0.443   3.224  16.355  0.9522  0.7788 -0.2499
13763TIP3    H262705   0.419   3.262  16.499 -0.2038  1.9051 -0.7239
13764TIP3   OH262706   3.325   2.141   4.459  0.9150 -0.4626 -0.0577
13764TIP3    H162707   3.352   2.202   4.390  1.0488 -1.1988 -0.6702
13764TIP3    H262708   3.265   2.081   4.415  0.3024 -0.4102  0.6860
13765TIP3   OH262709   2.915   1.284   6.023 -0.0970  0.0016  0.4339
13765TIP3    H162710   2.980   1.214   6.011  0.3782  0.1750  1.7742
13765TIP3    H262711   2.924   1.338   5.944  1.8362  0.3446  0.8183
13766TIP3   OH262712   5.314   4.090   1.924  0.8254 -0.1018  0.4497
13766TIP3    H162713   5.227   4.104   1.888  1.0873  1.8328  0.4624
13766TIP3    H262714   5.355   4.026   1.865 -0.3261 -0.4512  0.0116
13767TIP3   OH262715   2.469   1.634   6.025  0.4205 -0.2738 -0.2722
13767TIP3    H162716   2.439   1.716   5.985 -0.9346  0.4878  2.0891
13767TIP3    H262717   2.565   1.641   6.025  0.3363  2.0415  1.1377
13768TIP3   OH262718   3.685   6.421   6.950 -0.0558  0.4542  0.1349
13768TIP3    H162719   3.691   6.326   6.962 -0.7608  0.4161  0.2092
13768TIP3    H262720   3.731   6.437   6.868 -0.7479 -0.0755 -0.3703
13769TIP3   OH262721   0.464   1.403   3.541  0.4893  0.4841 -0.2995
13769TIP3    H162722   0.526   1.388   3.612 -0.5014 -0.4462  0.3944
13769TIP3    H262723   0.520   1.422   3.465  1.6856 -1.1806  0.0959
13770TIP3   OH262724   5.898   0.889  17.063  0.0614 -0.1463  0.1734
13770TIP3    H162725   5.943   0.831  17.123  1.1952  1.4185  0.9057
13770TIP3    H262726   5.836   0.833  17.017  0.5478 -1.7545  1.3976
13771TIP3   OH262727   4.801   2.565   2.749  0.1995 -0.1036  0.6878
13771TIP3    H162728   4.830   2.646   2.791  2.8701 -1.3692  1.5198
13771TIP3    H262729   4.876   2.505   2.758 -1.2691 -2.3272 -0.8318
13772TIP3   OH262730   0.028   5.724  11.726  0.1423 -0.0332  0.1378
13772TIP3    H162731   0.011   5.674  11.646 -0.4066 -0.1516  0.3258
13772TIP3    H262732   0.088   5.669  11.776 -1.3854 -1.0927  0.8877
13773TIP3   OH262733   0.757   3.294   1.251  0.4606 -0.5149  0.1262
13773TIP3    H162734   0.820   3.261   1.315  1.3184  1.7638  0.5556
13773TIP3    H262735   0.798   3.276   1.166  0.8958 -0.5366  0.3394
13774TIP3   OH262736   5.322   5.233   2.586  0.5748  0.0251 -0.1564
13774TIP3    H162737   5.381   5.178   2.638 -0.2818  0.7245  1.6335
13774TIP3    H262738   5.343   5.322   2.612  1.2337  0.5500 -2.2698
13775TIP3   OH262739   1.530   1.536   2.909  0.5249 -0.4404 -0.2081
13775TIP3    H162740   1.614   1.550   2.951  1.2048  2.0510 -2.1285
13775TIP3    H262741   1.552   1.496   2.825 -0.2406 -0.2467 -0.5093
13776TIP3   OH262742   0.830   1.061  16.800  0.0773  0.1426 -0.1113
13776TIP3    H162743   0.760   1.008  16.762 -0.1068  0.5486 -0.3444
13776TIP3    H262744   0.887   1.081  16.726  0.5964 -0.4260  0.1323
13777TIP3   OH262745   3.611   1.755  15.303  0.0734  0.1148  0.2915
13777TIP3    H162746   3.671   1.759  15.377  0.7773 -0.2149 -0.2536
13777TIP3    H262747   3.667   1.760  15.226 -0.5832 -0.3426 -0.2274
13778TIP3   OH262748   5.055   4.456   2.372  0.2753  0.0600 -0.0296
13778TIP3    H162749   5.114   4.507   2.427 -0.1026  0.9476 -0.4402
13778TIP3    H262750   5.107   4.432   2.295 -0.2358  1.9223 -0.9987
13779TIP3   OH262751   4.458   3.696  12.043 -0.0337 -0.1034 -0.4293
13779TIP3    H162752   4.373   3.741  12.040  0.1831  0.4076  0.6512
13779TIP3    H262753   4.438   3.611  12.081  0.0210  0.2585  0.4349
13780TIP3   OH262754   1.104   1.389  14.918 -0.5004 -0.9351  0.3909
13780TIP3    H162755   1.074   1.307  14.880  0.6696 -0.6252 -1.2762
13780TIP3    H262756   1.200   1.383  14.916 -0.4020 -0.0028  1.3399
13781TIP3   OH262757   5.568   5.528  11.394  0.1211 -0.0118  0.2620
13781TIP3    H162758   5.521   5.490  11.320  0.4650 -1.6366  0.8407
13781TIP3    H262759   5.501   5.576  11.443 -0.4494 -0.3315 -0.1990
13782TIP3   OH262760   4.784   0.264  14.456  0.4903 -0.4378  0.2925
13782TIP3    H162761   4.799   0.202  14.384 -2.0651 -0.1557 -0.5901
13782TIP3    H262762   4.798   0.350  14.416 -1.0989 -0.2724 -0.0170
13783TIP3   OH262763   3.303   5.056   5.004  0.2593 -0.0403 -0.1485
13783TIP3    H162764   3.287   4.973   4.958 -1.6830  0.7106 -0.9489
13783TIP3    H262765   3.219   5.101   5.001  0.7684  1.1629  1.9591
13784TIP3   OH262766   0.138   0.176   3.514  0.2520  0.1859 -0.1428
13784TIP3    H162767   0.044   0.171   3.527  0.4764  0.5102  2.1651
13784TIP3    H262768   0.172   0.202   3.600  2.6551 -2.3970 -0.1671
13785TIP3   OH262769   1.854   2.310  16.694  0.0221 -0.1830  0.2976
13785TIP3    H162770   1.904   2.287  16.772  2.1225 -0.9617 -1.2029
13785TIP3    H262771   1.783   2.246  16.690  0.1993 -0.4432  1.2777
13786TIP3   OH262772   3.230   1.227   2.706 -0.7499  0.1123  0.0077
13786TIP3    H162773   3.230   1.175   2.786 -1.6949 -0.5954 -0.4364
13786TIP3    H262774   3.137   1.238   2.684 -0.5535 -2.7410 -2.9260
13787TIP3   OH262775   4.281   5.258   4.775 -0.1703 -0.5533  0.5058
13787TIP3    H162776   4.376   5.249   4.761  0.1716  0.5694  1.7984
13787TIP3    H262777   4.266   5.352   4.774 -1.6454 -0.7664 -1.6164
13788TIP3   OH262778   5.366   2.924  12.049  0.3538 -0.6043  0.5015
13788TIP3    H162779   5.414   2.852  12.089  1.0972 -0.9045 -0.8591
13788TIP3    H262780   5.434   2.983  12.017 -0.1504 -0.8390 -1.1129
13789TIP3   OH262781   2.675   0.366   2.133  0.4018  0.1513  0.3172
13789TIP3    H162782   2.642   0.447   2.172  0.6453  0.6476 -0.4779
13789TIP3    H262783   2.646   0.370   2.042 -0.8807 -1.3813  0.6144
13790TIP3   OH262784   4.680   5.717   6.787  0.6911 -0.0322  0.1529
13790TIP3    H162785   4.768   5.682   6.770  0.1826 -2.3033  1.6842
13790TIP3    H262786   4.639   5.651   6.843 -2.3139  0.5176 -1.1890
13791TIP3   OH262787   1.187   0.734   4.193  0.3442 -0.7249  0.5874
13791TIP3    H162788   1.237   0.815   4.190  0.1897 -0.5930  1.3993
13791TIP3    H262789   1.101   0.760   4.227  0.1510 -1.1548  0.4376
13792TIP3   OH262790   1.282   0.614   3.955  0.0663  0.4236  0.2602
13792TIP3    H162791   1.209   0.612   3.894 -0.0586 -0.3441  0.4292
13792TIP3    H262792   1.248   0.661   4.031 -0.5225 -0.6448  0.6703
13793TIP3   OH262793   1.984   3.648  16.337 -0.1344 -0.2248  0.1219
13793TIP3    H162794   1.914   3.618  16.395 -1.0325 -1.0743 -1.3177
13793TIP3    H262795   2.053   3.679  16.395 -1.0144 -0.9760  1.6132
13794TIP3   OH262796   2.358   4.556   3.547  0.1935 -0.2193 -0.5471
13794TIP3    H162797   2.339   4.623   3.613 -0.7151 -0.1770 -0.8297
13794TIP3    H262798   2.452   4.543   3.552  0.4182  1.2320 -0.6292
13795TIP3   OH262799   5.341   0.369   0.837 -0.6515 -0.2330  0.5868
13795TIP3    H162800   5.373   0.454   0.866 -1.2212  0.0973  0.2837
13795TIP3    H262801   5.342   0.314   0.916 -0.9126  0.2544  0.9308
13796TIP3   OH262802   1.119   0.434  15.276 -0.2858  0.1342  0.4277
13796TIP3    H162803   1.197   0.400  15.320  0.1592  0.6468  0.0491
13796TIP3    H262804   1.047   0.383  15.313  0.3276 -1.0371  0.0891
13797TIP3   OH262805   2.939   4.249   2.769  0.7634  0.0995  0.1361
13797TIP3    H162806   2.979   4.311   2.830  0.9609 -0.1730  0.2857
13797TIP3    H262807   2.982   4.166   2.788 -0.1569 -0.2885  0.5768
13798TIP3   OH262808   2.932   5.475  12.809 -0.0242  0.0243 -0.1713
13798TIP3    H162809   2.950   5.430  12.892  1.1903 -0.3490 -0.6111
13798TIP3    H262810   3.003   5.447  12.751 -0.8473  0.2885 -1.3440
13799TIP3   OH262811   4.681   1.099  15.577  0.3107  0.3009 -0.2626
13799TIP3    H162812   4.667   1.131  15.666 -0.9393 -0.4151 -0.1682
13799TIP3    H262813   4.627   1.156  15.522 -2.0012 -1.5639 -0.0836
13800TIP3   OH262814   5.163   6.163   0.218  0.2525  0.0023 -0.2183
13800TIP3    H162815   5.101   6.170   0.146 -1.1104  0.1653  0.9357
13800TIP3    H262816   5.214   6.244   0.213  0.2636 -0.0425 -1.0495
13801TIP3   OH262817   6.489   6.191   0.200  0.7916  0.1686  0.7842
13801TIP3    H162818   6.508   6.097   0.206 -1.1800 -0.3170  0.2390
13801TIP3    H262819   6.524   6.218   0.115 -0.5253 -0.5998 -0.0325
13802TIP3   OH262820   2.673   2.577   2.039  0.1295 -0.1430 -0.3226
13802TIP3    H162821   2.594   2.630   2.041  0.1981 -0.0364 -0.4457
13802TIP3    H262822   2.645   2.493   2.002  0.1849  0.0818 -0.8864
13803TIP3   OH262823   2.067   1.980   3.302  0.2662  0.1572 -0.3954
13803TIP3    H162824   2.133   1.994   3.233  0.3122  0.0298 -0.3760
13803TIP3    H262825   2.088   1.895   3.339  0.5064  0.4147  0.0685
13804TIP3   OH262826   2.996   1.333   3.213  0.0084 -0.0716 -0.2052
13804TIP3    H162827   2.991   1.280   3.293 -1.0817  0.9693  0.4625
13804TIP3    H262828   2.906   1.333   3.179  0.1621  0.6893 -0.6253
13805TIP3   OH262829   4.948   3.512  16.057 -0.7259 -0.5999  0.0256
13805TIP3    H162830   4.911   3.598  16.078 -0.4401 -0.5414  0.3096
13805TIP3    H262831   4.923   3.497  15.966  1.0031  0.7529 -0.7432
13806TIP3   OH262832   6.689   1.456  17.007 -0.1524 -0.0346  0.2219
13806TIP3    H162833   6.616   1.396  16.993 -0.6680  0.7593 -0.6146
13806TIP3    H262834   6.732   1.462  16.921 -0.5390  1.3128  0.0964
13807TIP3   OH262835   1.144   3.952   6.416  0.0118 -0.0355 -0.4062
13807TIP3    H162836   1.067   3.979   6.366  0.7755 -0.4475 -1.8303
13807TIP3    H262837   1.219   3.983   6.366  0.8080  0.1463  0.8365
13808TIP3   OH262838   2.038   4.085  14.529  0.3899  0.9042 -0.0988
13808TIP3    H162839   2.114   4.028  14.540 -0.8574 -0.7937  0.1961
13808TIP3    H262840   2.025   4.125  14.615 -1.1736 -1.6919  1.0026
13809TIP3   OH262841   2.054   0.597   4.687  0.0887  0.4535  0.9530
13809TIP3    H162842   1.975   0.618   4.738 -0.4523 -0.4115  0.5083
13809TIP3    H262843   2.026   0.603   4.596  1.0224  1.8668  0.7398
13810TIP3   OH262844   2.348   2.883   3.078  0.4239 -0.8458  0.5731
13810TIP3    H162845   2.438   2.852   3.078  0.4050 -1.0894 -1.7910
13810TIP3    H262846   2.351   2.967   3.031 -0.6049 -1.0148  0.1743
13811TIP3   OH262847   2.848   2.118   0.676  0.9815 -0.0223  0.2332
13811TIP3    H162848   2.850   2.154   0.587  1.5103 -1.5359 -0.4062
13811TIP3    H262849   2.880   2.028   0.666 -2.7434 -1.6624  1.2464
13812TIP3   OH262850   3.326   3.378  13.963 -0.4533 -0.1946  0.3172
13812TIP3    H162851   3.287   3.463  13.984 -0.1446  0.0509 -0.0856
13812TIP3    H262852   3.306   3.364  13.871  1.7480  0.6891 -0.3540
13813TIP3   OH262853   3.486   1.187   1.696  0.3896 -0.0181  0.4872
13813TIP3    H162854   3.444   1.267   1.667 -0.0304 -0.5199 -0.3196
13813TIP3    H262855   3.421   1.118   1.681  0.5517 -0.4439  1.6544
13814TIP3   OH262856   4.470   2.590   1.402 -0.4699 -0.1924  0.9491
13814TIP3    H162857   4.502   2.678   1.419 -0.7866 -0.0833  0.9847
13814TIP3    H262858   4.391   2.602   1.350  0.2669 -0.5092 -0.2783
13815TIP3   OH262859   0.244   3.675  15.625  0.5320  0.6495  0.0340
13815TIP3    H162860   0.308   3.657  15.556 -0.7289  2.3454 -1.6686
13815TIP3    H262861   0.159   3.666  15.582 -0.3141  1.2360  1.5196
13816TIP3   OH262862   5.110   2.599   5.221  0.8995 -0.0809  0.0506
13816TIP3    H162863   5.115   2.692   5.241  2.1169 -0.7329  3.4506
13816TIP3    H262864   5.202   2.571   5.214  0.5502 -0.9410 -1.8020
13817TIP3   OH262865   4.741   1.803   4.538  0.2712  0.3867  0.2500
13817TIP3    H162866   4.741   1.877   4.599 -1.8577  0.8366 -0.2033
13817TIP3    H262867   4.715   1.728   4.591  1.3690  0.1652  0.4883
13818TIP3   OH262868   3.134   5.068  13.064  0.1139  0.2919 -0.3509
13818TIP3    H162869   3.211   5.014  13.047 -0.4649 -0.6206 -0.1500
13818TIP3    H262870   3.169   5.149  13.101  1.0115  0.1529 -0.8566
13819TIP3   OH262871   5.922   1.486  12.711  0.4698 -0.2363  0.8969
13819TIP3    H162872   5.909   1.580  12.722 -0.5259 -0.4357  1.5334
13819TIP3    H262873   6.014   1.472  12.735  0.6792  0.5893  0.6199
13820TIP3   OH262874   0.288   5.663   6.500  0.2675 -0.1405  0.0657
13820TIP3    H162875   0.250   5.737   6.454  2.3428  1.5293  0.8736
13820TIP3    H262876   0.216   5.600   6.509 -0.5275 -0.2846 -4.6158
13821TIP3   OH262877   0.873   0.552   6.615 -0.0962  0.7494 -0.0364
13821TIP3    H162878   0.810   0.547   6.687  0.2620  1.0035  0.2969
13821TIP3    H262879   0.958   0.545   6.658  0.1017 -2.9256 -0.7224
13822TIP3   OH262880   3.985   2.444  11.947 -0.2096  0.0186 -0.5901
13822TIP3    H162881   3.957   2.369  11.896  1.5232  0.0606 -1.6936
13822TIP3    H262882   3.952   2.520  11.899 -3.9052  0.0680  1.6886
13823TIP3   OH262883   2.276   4.036   0.671  0.7016 -0.2620 -0.2365
13823TIP3    H162884   2.338   4.023   0.743  0.1365 -1.2402  0.0959
13823TIP3    H262885   2.236   3.950   0.658  0.0577  0.1444 -1.0399
13824TIP3   OH262886   0.778   1.415   4.865 -0.5790 -0.0258  0.2961
13824TIP3    H162887   0.686   1.410   4.838 -0.3482 -1.8940 -0.2451
13824TIP3    H262888   0.823   1.450   4.789 -0.5823 -0.8733 -0.0962
13825TIP3   OH262889   3.003   1.934  16.280  0.3701  0.5372 -0.0147
13825TIP3    H162890   3.061   1.914  16.352 -1.1905 -0.2926  1.0719
13825TIP3    H262891   3.059   1.977  16.215  2.0106  0.4063  1.2516
13826TIP3   OH262892   5.833   6.011   1.548 -0.4429  0.6445 -0.4588
13826TIP3    H162893   5.743   5.983   1.538 -0.7093  1.2994  0.0011
13826TIP3    H262894   5.884   5.952   1.492 -1.0704 -0.1710 -0.1741
13827TIP3   OH262895   0.394   2.080   1.162  0.0770 -0.2790  0.7552
13827TIP3    H162896   0.434   2.162   1.133 -1.6038  0.6619  1.0178
13827TIP3    H262897   0.347   2.047   1.086  0.3955 -0.7934  0.7741
13828TIP3   OH262898   3.091   4.107   3.695 -0.0779  0.5546 -0.4563
13828TIP3    H162899   3.110   4.055   3.617  1.0186 -0.0443  0.1892
13828TIP3    H262900   3.047   4.185   3.661 -0.9191 -0.3537 -1.5255
13829TIP3   OH262901   4.768   6.658   1.328  0.1606  0.0587  0.3368
13829TIP3    H162902   4.702   6.595   1.296  1.2431 -0.2662 -1.4419
13829TIP3    H262903   4.719   6.718   1.383 -1.5618 -0.4067 -0.5956
13830TIP3   OH262904   3.933   1.431   4.297 -0.0934  0.2520  0.2993
13830TIP3    H162905   3.955   1.468   4.212 -1.4909 -0.2066 -0.2928
13830TIP3    H262906   3.971   1.492   4.360  0.6648  0.7862 -0.6397
13831TIP3   OH262907   0.338   0.447   3.472 -0.1036 -0.6664  0.3142
13831TIP3    H162908   0.340   0.419   3.563 -0.5812  0.1045  0.5723
13831TIP3    H262909   0.425   0.428   3.439  0.1631 -0.6911  1.0181
13832TIP3   OH262910   4.909   4.562   2.150  0.1452  0.5609 -0.1280
13832TIP3    H162911   4.823   4.605   2.144 -0.8194 -1.2952 -0.0879
13832TIP3    H262912   4.922   4.547   2.243  1.3987  2.4488  0.0621
13833TIP3   OH262913   1.286   4.358   3.945  0.2412  0.0804  0.3149
13833TIP3    H162914   1.239   4.389   4.023 -1.5520 -0.6046 -0.4343
13833TIP3    H262915   1.230   4.384   3.872  2.2504  1.3745 -0.8467
13834TIP3   OH262916   4.619   6.697  15.678  0.2712 -0.2554  0.4536
13834TIP3    H162917   4.606   6.781  15.721 -0.0000 -0.3917  0.6447
13834TIP3    H262918   4.573   6.706  15.595  0.9345  0.0657  0.1109
13835TIP3   OH262919   2.806   0.783   1.379  0.3951  0.0244  0.0372
13835TIP3    H162920   2.863   0.723   1.427  0.8659  0.8701  0.5515
13835TIP3    H262921   2.841   0.870   1.397 -0.5292  0.4957 -0.3586
13836TIP3   OH262922   5.320   1.233  13.459 -0.0053 -0.2877 -0.4794
13836TIP3    H162923   5.363   1.150  13.479  0.1089 -0.3440 -0.9337
13836TIP3    H262924   5.310   1.277  13.543  0.1150 -0.6769 -0.2624
13837TIP3   OH262925   4.024   2.929  12.814 -0.1236  0.1933  0.1836
13837TIP3    H162926   3.956   2.985  12.777  0.0974  0.0290 -0.4970
13837TIP3    H262927   4.092   2.927  12.747 -0.3584 -1.3216 -0.0450
13838TIP3   OH262928   0.782   3.917  17.355 -0.6939  0.8823  0.0414
13838TIP3    H162929   0.836   3.838  17.350  0.7548  1.8696 -0.7357
13838TIP3    H262930   0.803   3.965  17.275 -0.1995  2.8708  1.3007
13839TIP3   OH262931   0.207   1.611  12.909 -0.1098  0.0926  0.5650
13839TIP3    H162932   0.216   1.662  12.990 -0.4341 -1.4162  1.5976
13839TIP3    H262933   0.148   1.664  12.855 -0.0117  1.0701  1.3664
13840TIP3   OH262934   6.458   5.421  13.951 -0.4716 -0.1971  0.8487
13840TIP3    H162935   6.399   5.473  13.897 -0.5678 -1.0326  0.1153
13840TIP3    H262936   6.402   5.352  13.988 -0.4170  0.3832  2.0600
13841TIP3   OH262937   3.699   4.792  14.277  0.5238 -0.1970 -0.4147
13841TIP3    H162938   3.705   4.732  14.352 -0.7592 -0.1290 -0.2383
13841TIP3    H262939   3.752   4.750  14.209  1.0189 -0.6786  0.2558
13842TIP3   OH262940   3.849   1.320  11.857  0.7910 -0.4529 -0.3048
13842TIP3    H162941   3.815   1.352  11.773 -1.0110 -0.5979  0.3215
13842TIP3    H262942   3.881   1.398  11.901  0.0048 -0.0750 -0.3796
13843TIP3   OH262943   2.466   2.407   4.616  0.3953 -0.1539  0.0408
13843TIP3    H162944   2.519   2.483   4.643 -2.2238  1.1813  1.8471
13843TIP3    H262945   2.530   2.336   4.606  2.7831  1.8744 -0.2631
13844TIP3   OH262946   2.429   3.590   3.679  0.2289  0.0071 -0.0345
13844TIP3    H162947   2.490   3.544   3.736  0.3465  0.9231  0.5966
13844TIP3    H262948   2.438   3.546   3.594 -0.4333 -1.7810  0.7974
13845TIP3   OH262949   3.557   2.051  17.190 -0.6775 -0.2034  0.5457
13845TIP3    H162950   3.569   2.107  17.267  3.1026  0.1085 -0.0583
13845TIP3    H262951   3.552   1.962  17.226 -1.2288  0.0928  1.2355
13846TIP3   OH262952   5.872   5.293  12.044 -0.5341 -0.1687  0.4033
13846TIP3    H162953   5.779   5.282  12.063 -0.6807  1.1197  0.5354
13846TIP3    H262954   5.916   5.247  12.116 -1.0185 -1.9534 -0.3731
13847TIP3   OH262955   4.872   2.441  15.335  0.6922 -0.0983  0.1395
13847TIP3    H162956   4.875   2.353  15.299  3.0455 -0.6318  1.4382
13847TIP3    H262957   4.962   2.458  15.365 -0.2957  1.6798  2.3739
13848TIP3   OH262958   1.081   1.967   5.474  0.1746 -0.3670 -0.0117
13848TIP3    H162959   1.085   2.007   5.561  1.7356 -1.8672  0.6699
13848TIP3    H262960   1.023   2.024   5.424 -0.9912  0.3910  2.0818
13849TIP3   OH262961   4.548   5.589  13.108 -0.6237 -0.2549  0.3199
13849TIP3    H162962   4.490   5.597  13.183 -0.2115  2.5975  0.4456
13849TIP3    H262963   4.635   5.580  13.146 -0.5720 -0.3621  0.1761
13850TIP3   OH262964   4.284   3.310  11.843  0.2863  1.3159 -0.2189
13850TIP3    H162965   4.260   3.349  11.927 -0.3863  1.5695 -0.5186
13850TIP3    H262966   4.207   3.323  11.788 -1.2015 -2.9423  0.4671
13851TIP3   OH262967   5.087   2.714  12.526 -0.5260 -0.4160 -0.2091
13851TIP3    H162968   5.156   2.700  12.461 -0.8555  1.3324 -0.9888
13851TIP3    H262969   5.005   2.700  12.477 -0.7857 -2.3498  0.6754
13852TIP3   OH262970   0.672   5.826   2.140 -0.3166  0.5601 -0.3779
13852TIP3    H162971   0.702   5.917   2.135 -0.4002  0.5563 -1.0694
13852TIP3    H262972   0.660   5.800   2.049 -0.1791 -0.1847 -0.1907
13853TIP3   OH262973   1.086   0.903   0.578  0.1482  0.4633 -0.5770
13853TIP3    H162974   1.063   0.954   0.655  1.2082 -0.6726  0.5235
13853TIP3    H262975   1.181   0.894   0.582 -0.0877 -2.8341  0.1190
13854TIP3   OH262976   5.620   6.476  14.198 -0.5731 -0.0922 -0.6035
13854TIP3    H162977   5.617   6.527  14.279  0.7086  0.9764 -1.1944
13854TIP3    H262978   5.641   6.387  14.227 -2.3739 -0.2312  0.4041
13855TIP3   OH262979   2.016   0.178  13.152  0.6966  0.1901 -0.1445
13855TIP3    H162980   1.987   0.251  13.098  1.3355  0.8298  0.3529
13855TIP3    H262981   1.986   0.100  13.105 -0.0299  0.7645 -0.6649
13856TIP3   OH262982   6.422   0.126   2.384 -0.0301 -0.1662 -0.1155
13856TIP3    H162983   6.491   0.100   2.323 -1.6703 -0.2554 -1.9965
13856TIP3    H262984   6.458   0.104   2.470  1.3085 -2.5227 -1.1788
13857TIP3   OH262985   6.009   5.702  17.254  0.0458  0.6585 -0.0256
13857TIP3    H162986   6.071   5.706  17.326  0.6196  2.8625 -0.5581
13857TIP3    H262987   5.954   5.626  17.273 -0.9277  2.0951  3.6162
13858TIP3   OH262988   1.430   2.821  16.362 -0.0850 -0.5224 -0.3087
13858TIP3    H162989   1.488   2.783  16.297 -0.4766 -1.6987 -0.0073
13858TIP3    H262990   1.404   2.746  16.417  0.6984  0.5095  1.5550
13859TIP3   OH262991   6.450   0.371   2.621  0.3543 -0.0894  0.5504
13859TIP3    H162992   6.409   0.440   2.570 -1.0523 -0.9253  0.4912
13859TIP3    H262993   6.432   0.394   2.712 -0.2050 -0.4053  0.5274
13860TIP3   OH262994   6.443   0.913  14.433  0.1287  0.1556 -0.6600
13860TIP3    H162995   6.475   0.849  14.369 -1.2078 -1.0823 -0.1367
13860TIP3    H262996   6.394   0.976  14.381  0.3489  0.0181 -1.0392
13861TIP3   OH262997   2.847   6.230   4.009  0.0254  0.6618  0.5393
13861TIP3    H162998   2.856   6.252   3.917 -1.4949 -1.8714 -0.2993
13861TIP3    H262999   2.846   6.134   4.011 -2.7463  0.6252  2.8466
13862TIP3   OH263000   0.237   2.967   4.405 -0.2194  0.2828  0.3473
13862TIP3    H163001   0.144   2.990   4.415  0.3202  2.1029  1.6046
13862TIP3    H263002   0.246   2.884   4.453 -0.8179  1.1600  2.0832
13863TIP3   OH263003   1.700   2.696   6.104  0.2599 -0.6371 -0.0158
13863TIP3    H163004   1.669   2.608   6.124 -3.8520  0.5554 -0.2489
13863TIP3    H263005   1.642   2.727   6.034  1.9069  2.0924 -0.3476
13864TIP3   OH263006   0.521   1.739   2.399  0.4712 -0.8467  1.1379
13864TIP3    H163007   0.523   1.807   2.467  0.3447 -2.1694  2.5368
13864TIP3    H263008   0.608   1.699   2.403  1.0896  0.1793 -0.7473
13865TIP3   OH263009   1.857   4.978  14.725  0.1568 -0.2686  0.4572
13865TIP3    H163010   1.883   5.063  14.761  0.2701 -0.4346  0.7731
13865TIP3    H263011   1.775   4.995  14.679 -0.4931 -0.2354  1.5969
13866TIP3   OH263012   0.475   4.493  17.087  0.4915 -0.2563 -1.3095
13866TIP3    H163013   0.397   4.450  17.052  1.1159 -0.3947 -2.5769
13866TIP3    H263014   0.446   4.528  17.172 -0.7258 -0.9646 -1.4010
13867TIP3   OH263015   1.027   4.964  14.750 -0.5241 -0.4404  0.1718
13867TIP3    H163016   0.944   4.976  14.796  0.1749  1.9510  0.9840
13867TIP3    H263017   1.003   4.958  14.658 -1.6813 -1.0908  0.5068
13868TIP3   OH263018   3.629   1.608  14.080 -0.2557 -0.0113  0.1943
13868TIP3    H163019   3.551   1.556  14.063 -0.8597  1.0777 -0.5342
13868TIP3    H263020   3.674   1.611  13.996  0.1667  0.0065  0.4195
13869TIP3   OH263021   0.458   4.919  14.867  0.2159 -0.1969 -0.2617
13869TIP3    H163022   0.382   4.969  14.894  0.1533  0.1132 -0.9894
13869TIP3    H263023   0.496   4.886  14.949 -0.5484 -0.1457  0.1198
13870TIP3   OH263024   0.042   4.369  10.313 -0.1909 -0.6199 -0.1248
13870TIP3    H163025   0.017   4.281  10.285  0.0125 -0.5572 -0.5056
13870TIP3    H263026   0.103   4.354  10.386 -0.5333 -0.7861  0.1273
13871TIP3   OH263027   2.098   0.077  15.073  0.1881 -0.1198  0.0688
13871TIP3    H163028   2.174   0.022  15.091  0.0726  0.0513  1.1565
13871TIP3    H263029   2.025   0.032  15.115 -0.4088 -0.5140 -1.3525
13872TIP3   OH263030   0.253   5.634   3.317  0.0051 -0.5410 -0.2543
13872TIP3    H163031   0.304   5.565   3.358 -0.5209  0.3490  2.0281
13872TIP3    H263032   0.307   5.713   3.327  0.0610 -0.3510 -1.7355
13873TIP3   OH263033   4.295   6.180   3.619 -0.7784 -0.1952  0.2160
13873TIP3    H163034   4.367   6.158   3.678 -0.5163 -0.8845 -0.3478
13873TIP3    H263035   4.264   6.264   3.651 -1.0128 -0.8059  1.6818
13874TIP3   OH263036   2.681   5.307   5.249 -0.1327  0.2340  0.5624
13874TIP3    H163037   2.713   5.394   5.274 -0.2450  0.9943 -1.7494
13874TIP3    H263038   2.761   5.258   5.227 -0.2312  0.8193 -1.2337
13875TIP3   OH263039   1.003   0.708   2.532 -0.7175  0.1735  0.6279
13875TIP3    H163040   0.941   0.644   2.496 -1.3993  0.5360  1.1405
13875TIP3    H263041   1.030   0.761   2.456  1.8945 -2.3058 -0.3579
13876TIP3   OH263042   2.646   4.909   2.184 -0.2605 -0.4000 -0.4717
13876TIP3    H163043   2.689   4.887   2.267  0.1455 -0.4618 -0.6980
13876TIP3    H263044   2.709   4.885   2.117  0.8194  2.7479 -0.7121
13877TIP3   OH263045   0.057   5.112   2.458 -0.6651 -0.4793 -0.4504
13877TIP3    H163046   0.078   5.205   2.451 -1.7288  0.0928  2.3420
13877TIP3    H263047   0.096   5.071   2.381  0.5365  2.1514 -1.3173
13878TIP3   OH263048   3.027   5.084   4.744  0.6517 -0.8733  0.0208
13878TIP3    H163049   3.069   5.149   4.687  0.2117 -0.3410  0.2840
13878TIP3    H263050   3.031   5.123   4.831 -2.3929  0.3142 -0.2383
13879TIP3   OH263051   3.368   0.330  14.521 -0.3735  0.3674  0.0589
13879TIP3    H163052   3.413   0.274  14.584 -0.2715 -1.2916 -1.4046
13879TIP3    H263053   3.276   0.327  14.548 -0.5450 -1.4249 -0.5778
13880TIP3   OH263054   6.215   5.578  15.090 -0.2012  0.2676  0.0342
13880TIP3    H163055   6.272   5.652  15.112 -0.5536 -0.1017  2.4206
13880TIP3    H263056   6.269   5.500  15.106 -0.6899 -0.0506  0.1456
13881TIP3   OH263057   0.301   4.268  13.107 -1.2792 -0.2416 -0.8751
13881TIP3    H163058   0.367   4.275  13.038  0.5025 -0.7796  0.6823
13881TIP3    H263059   0.239   4.203  13.075  0.4473 -1.7592 -1.2790
13882TIP3   OH263060   4.389   3.313   4.495 -0.5214  0.1794  0.9331
13882TIP3    H163061   4.432   3.391   4.529 -1.5750  0.9399  0.5964
13882TIP3    H263062   4.451   3.242   4.511  1.0400  1.2804  0.0770
13883TIP3   OH263063   6.200   6.203  16.403 -0.0305 -0.4266  0.4503
13883TIP3    H163064   6.245   6.132  16.358 -0.8471  0.2659 -1.5888
13883TIP3    H263065   6.262   6.275  16.403  0.5825 -0.8973  2.0075
13884TIP3   OH263066   1.307   6.065   4.421  0.0286  0.3612  0.5653
13884TIP3    H163067   1.374   6.036   4.359 -0.6615 -1.3455  0.5514
13884TIP3    H263068   1.256   5.986   4.440 -2.6090  1.7351 -0.1706
13885TIP3   OH263069   6.724   1.455  13.780  0.3457 -0.1209 -0.3298
13885TIP3    H163070   6.633   1.444  13.752  0.0148  1.7293 -0.0972
13885TIP3    H263071   6.771   1.477  13.699  1.0193 -2.9540 -0.8122
13886TIP3   OH263072   1.181   0.075  15.858  0.0667 -0.1793  0.6111
13886TIP3    H163073   1.251   0.108  15.801 -0.5115  0.6187  0.3535
13886TIP3    H263074   1.210  -0.013  15.883  1.2821  0.2359  0.7114
13887TIP3   OH263075   1.829   5.061  16.843 -0.0860 -0.4095 -0.6809
13887TIP3    H163076   1.887   5.137  16.842 -1.4342  0.6542 -1.0902
13887TIP3    H263077   1.840   5.023  16.930  0.3580  0.4680 -0.3425
13888TIP3   OH263078   2.736   5.618   5.004  0.2177 -0.2896 -0.0744
13888TIP3    H163079   2.679   5.541   5.009 -2.0582  1.3098  0.5196
13888TIP3    H263080   2.743   5.647   5.095 -0.9456  1.4913 -0.4992
13889TIP3   OH263081   3.754   0.437  14.399 -0.2641 -0.0259  0.3290
13889TIP3    H163082   3.708   0.353  14.397 -2.8156  1.2821 -0.2289
13889TIP3    H263083   3.815   0.429  14.472 -3.3217 -1.0049  3.0609
13890TIP3   OH263084   4.658   2.981  14.202 -0.2621 -0.1955 -0.2094
13890TIP3    H163085   4.631   2.913  14.141 -0.3108  0.2513 -0.6930
13890TIP3    H263086   4.729   2.941  14.253 -0.8041 -0.8583  0.0364
13891TIP3   OH263087   5.767   2.944  16.243 -0.1983 -0.7791  0.4179
13891TIP3    H163088   5.822   2.895  16.304 -0.3106  2.1345  3.1257
13891TIP3    H263089   5.718   3.005  16.299 -0.9011  1.6033 -2.5311
13892TIP3   OH263090   2.098   0.178   0.036  0.1311  0.8122 -0.1343
13892TIP3    H163091   2.104   0.097  -0.015  0.8010  0.6556  0.1856
13892TIP3    H263092   2.028   0.228  -0.006  0.2782  0.4255 -0.8454
13893TIP3   OH263093   5.724   0.326  13.908 -0.4973 -0.3422 -0.0779
13893TIP3    H163094   5.657   0.357  13.970  0.0937 -0.3175  0.5657
13893TIP3    H263095   5.801   0.311  13.963  0.1723  0.1078 -0.8866
13894TIP3   OH263096   3.365   4.112  11.564 -0.3024 -0.0532  0.2137
13894TIP3    H163097   3.431   4.081  11.502 -0.6535 -0.8622  0.2247
13894TIP3    H263098   3.412   4.167  11.626 -0.0645  1.4486 -1.2317
13895TIP3   OH263099   4.413   2.526   5.631 -0.1748 -0.6267 -0.4822
13895TIP3    H163100   4.370   2.506   5.548 -0.0069 -1.9147 -0.2881
13895TIP3    H263101   4.342   2.531   5.695 -0.5409  2.5258 -1.0146
13896TIP3   OH263102   1.872   0.566   6.062 -0.0536 -0.4256 -0.1890
13896TIP3    H163103   1.872   0.489   6.118 -0.0623  0.1129  0.5765
13896TIP3    H263104   1.933   0.627   6.105  0.5773 -0.3187 -1.2221
13897TIP3   OH263105   0.694   0.648  11.704  0.3788 -0.4996  0.1538
13897TIP3    H163106   0.766   0.712  11.710  1.4665 -1.4148 -2.2242
13897TIP3    H263107   0.659   0.659  11.616 -1.1624 -1.4310  0.6127
13898TIP3   OH263108   3.102   2.070   4.304 -0.2074  0.4225 -0.4035
13898TIP3    H163109   3.150   2.097   4.226  1.1343  0.3566  0.3702
13898TIP3    H263110   3.020   2.035   4.270 -0.1369  1.4339 -1.7030
13899TIP3   OH263111   1.435   5.395   2.190 -0.3631  0.2533  0.1003
13899TIP3    H163112   1.448   5.308   2.227 -1.8585  0.8283  2.2319
13899TIP3    H263113   1.345   5.393   2.157  0.1570  0.5111 -1.3910
13900TIP3   OH263114   4.995   0.125  15.363  0.8395 -0.0998  0.2797
13900TIP3    H163115   4.961   0.211  15.340  1.0509 -0.0861  0.0132
13900TIP3    H263116   4.923   0.064  15.345  0.6132  0.0424  0.6790
13901TIP3   OH263117   1.537   5.657  12.033 -0.5891  0.2314 -0.3405
13901TIP3    H163118   1.548   5.563  12.023 -0.1297  0.2414  0.0580
13901TIP3    H263119   1.453   5.676  11.991 -0.6188 -0.3330 -0.5395
13902TIP3   OH263120   3.346   0.701  12.858 -0.0940 -0.0153  0.2661
13902TIP3    H163121   3.258   0.681  12.890 -0.2729  0.9694  0.4158
13902TIP3    H263122   3.403   0.688  12.934 -0.3695  1.2155  0.6986
13903TIP3   OH263123   4.675   6.408   4.046  0.3423  0.0177 -0.2625
13903TIP3    H163124   4.647   6.477   3.985  0.6612 -0.6479 -1.1919
13903TIP3    H263125   4.751   6.368   4.002 -0.5804 -1.7261 -0.3200
13904TIP3   OH263126   4.935   0.757  16.192 -0.6758  0.2239  0.0346
13904TIP3    H163127   4.938   0.661  16.183  1.1912  0.3407 -1.0197
13904TIP3    H263128   4.850   0.782  16.156 -0.5064 -0.9174 -1.2522
13905TIP3   OH263129   1.832   0.389   4.619  0.3729 -0.4920  0.0443
13905TIP3    H163130   1.862   0.440   4.544  0.7391 -0.0244  0.5010
13905TIP3    H263131   1.759   0.337   4.585 -0.2164  0.5659 -0.3532
13906TIP3   OH263132   1.956   5.819  13.492  0.1436  0.2881  0.1906
13906TIP3    H163133   2.035   5.841  13.541  0.3153 -0.3150  0.1994
13906TIP3    H263134   1.926   5.737  13.531  0.9255 -0.8324 -1.4391
13907TIP3   OH263135   0.193   6.325  13.555  0.2440  0.0328  0.1610
13907TIP3    H163136   0.169   6.277  13.476 -0.3865  0.5042  0.0625
13907TIP3    H263137   0.193   6.258  13.624  0.1889 -0.2648 -0.1267
13908TIP3   OH263138   3.250   5.757   0.808 -0.0193  0.4620  0.0247
13908TIP3    H163139   3.214   5.669   0.806 -1.1011  0.8834  0.2284
13908TIP3    H263140   3.175   5.814   0.788  0.4473  1.3976  0.8742
13909TIP3   OH263141   5.545   0.854   4.233  0.2639  0.5129 -0.0706
13909TIP3    H163142   5.501   0.871   4.149  1.5326 -0.4286 -0.9561
13909TIP3    H263143   5.496   0.781   4.271 -0.6238  1.2631  0.2677
13910TIP3   OH263144   4.767   1.411   1.435 -0.4671  0.0529  0.0006
13910TIP3    H163145   4.805   1.333   1.476 -1.0164 -0.2356 -0.0274
13910TIP3    H263146   4.841   1.454   1.392 -0.0709 -0.1969  0.4134
13911TIP3   OH263147   3.785   2.174   6.044  0.5924 -0.0412 -0.3301
13911TIP3    H163148   3.823   2.235   5.982  4.5308 -1.4035  0.4007
13911TIP3    H263149   3.857   2.153   6.104 -1.6533 -2.3642  1.8346
13912TIP3   OH263150   3.108   3.565  12.398 -0.3133  0.0621 -0.6855
13912TIP3    H163151   3.168   3.597  12.465  0.7854  0.1457 -1.6776
13912TIP3    H263152   3.045   3.637  12.386  0.0002  0.3934 -0.3701
13913TIP3   OH263153   1.767   3.754   1.595  0.2014 -0.0859  0.1145
13913TIP3    H163154   1.844   3.753   1.538 -0.7980  0.8146 -1.3114
13913TIP3    H263155   1.735   3.663   1.595  0.0278 -0.0330 -1.0467
13914TIP3   OH263156   6.495   6.036   4.304 -0.4607 -0.3355  0.5358
13914TIP3    H163157   6.475   6.100   4.236  1.1595 -1.8773 -1.5250
13914TIP3    H263158   6.581   6.064   4.338 -0.6795 -0.2890  1.0551
13915TIP3   OH263159   4.457   5.771   0.291 -0.3949  0.1564 -0.5964
13915TIP3    H163160   4.382   5.808   0.337 -0.5649  0.3953 -1.0622
13915TIP3    H263161   4.511   5.846   0.266 -0.3113  0.0328 -0.7994
13916TIP3   OH263162   2.612   1.204   4.438 -0.2092 -0.0885 -0.8651
13916TIP3    H163163   2.679   1.271   4.428  0.5907 -0.2845  2.2109
13916TIP3    H263164   2.531   1.253   4.449 -0.2287  0.2140 -2.1560
13917TIP3   OH263165   2.221   5.325   0.318 -0.0464 -1.0948 -0.4036
13917TIP3    H163166   2.178   5.385   0.379  0.1561 -0.6118 -0.7349
13917TIP3    H263167   2.173   5.335   0.236  0.4282 -0.8663 -0.6573
13918TIP3   OH263168   2.358   3.503  12.291  0.3131  0.3844  0.0505
13918TIP3    H163169   2.392   3.549  12.369 -0.9193  2.8535 -0.7698
13918TIP3    H263170   2.267   3.485  12.313  0.6676 -1.3848  0.1784
13919TIP3   OH263171   0.586   2.827  16.728  0.4920  0.4248 -0.4619
13919TIP3    H163172   0.551   2.905  16.686  0.2630 -0.5663 -2.1827
13919TIP3    H263173   0.510   2.785  16.768 -0.3748 -1.4946 -3.8223
13920TIP3   OH263174   3.071   0.312   6.643  0.5917 -0.3064  0.0792
13920TIP3    H163175   3.135   0.382   6.657 -0.0439  0.2980  0.0140
13920TIP3    H263176   3.098   0.272   6.560 -1.5493  2.7438 -2.3109
13921TIP3   OH263177   3.266   4.316  13.025 -0.1264 -0.1813  0.2638
13921TIP3    H163178   3.274   4.220  13.023 -0.1347 -0.1883 -1.7574
13921TIP3    H263179   3.174   4.332  13.005  0.3113  0.2433 -1.5889
13922TIP3   OH263180   6.488   4.911   6.287 -0.4166 -0.0514 -0.7068
13922TIP3    H163181   6.539   4.894   6.366 -2.0531 -0.4183  0.3133
13922TIP3    H263182   6.438   4.990   6.307 -2.5701 -1.4101 -0.4503
13923TIP3   OH263183   0.696   6.330  13.001  0.1987 -0.2058 -0.0112
13923TIP3    H163184   0.691   6.323  13.097 -2.4421 -0.2119 -0.0799
13923TIP3    H263185   0.651   6.252  12.969 -1.8727  1.3961 -1.1857
13924TIP3   OH263186   6.684   5.250  16.247  0.5107 -0.2376 -0.0092
13924TIP3    H163187   6.635   5.308  16.305  1.5162  0.4987  0.1279
13924TIP3    H263188   6.709   5.306  16.173 -0.6981 -1.1446 -1.1619
13925TIP3   OH263189   6.680   5.309   5.267 -0.2188  0.2943 -0.3783
13925TIP3    H163190   6.658   5.402   5.266 -0.4154  0.2600  0.1632
13925TIP3    H263191   6.776   5.307   5.264 -0.2282  0.5012 -0.8053
13926TIP3   OH263192   6.736   0.237  13.533 -0.1664  0.1068 -0.5433
13926TIP3    H163193   6.791   0.161  13.552 -2.7489 -2.2815 -1.8704
13926TIP3    H263194   6.796   0.302  13.496  1.7484 -2.3984 -2.1793
13927TIP3   OH263195   0.326   1.072   4.224  0.1019 -0.5425 -0.4496
13927TIP3    H163196   0.395   1.132   4.196  0.2095  0.4715  1.7400
13927TIP3    H263197   0.372   0.991   4.245  0.7729  0.2897  1.4954
13928TIP3   OH263198   2.319   3.525   0.573  0.4975 -0.2524  0.1856
13928TIP3    H163199   2.380   3.521   0.647  0.9675  1.2075 -0.0927
13928TIP3    H263200   2.252   3.587   0.600  0.6431  0.2535 -0.5828
13929TIP3   OH263201   4.256   2.820  14.938 -0.5353  0.3595  0.0710
13929TIP3    H163202   4.307   2.886  14.985 -0.1423  0.3445 -0.3254
13929TIP3    H263203   4.318   2.783  14.874 -0.8461 -0.1598  0.0667
13930TIP3   OH263204   3.806   4.042  16.823  0.1163  0.4834  0.0505
13930TIP3    H163205   3.801   4.138  16.816  0.9841  0.6167  0.9340
13930TIP3    H263206   3.799   4.011  16.733  1.2071  1.4693 -0.4147
13931TIP3   OH263207   5.817   1.100  16.769 -0.0586  0.1851  0.1696
13931TIP3    H163208   5.878   1.027  16.762  0.9974  1.2147 -2.2485
13931TIP3    H263209   5.847   1.148  16.846 -0.5777 -1.6517  1.6107
13932TIP3   OH263210   3.846   3.926  13.640 -0.2500  0.6672  0.0811
13932TIP3    H163211   3.846   4.001  13.698  0.5835  0.6190  0.1556
13932TIP3    H263212   3.890   3.857  13.690  0.1929  0.5321 -0.4864
13933TIP3   OH263213   4.920   2.477   3.969  0.0147  0.1359 -0.2493
13933TIP3    H163214   4.974   2.398   3.976  1.9410  1.4093 -0.0134
13933TIP3    H263215   4.876   2.483   4.054  0.7561 -0.0675  0.1567
13934TIP3   OH263216   0.145   5.538   1.919  0.3238 -0.4197  0.1323
13934TIP3    H163217   0.233   5.534   1.956 -0.7926 -0.8614  2.9820
13934TIP3    H263218   0.112   5.448   1.924  0.0493 -0.5075 -2.0273
13935TIP3   OH263219   4.356   0.264   2.943 -0.0714  0.2086  0.1984
13935TIP3    H163220   4.383   0.349   2.976  0.3798  0.1644 -0.0530
13935TIP3    H263221   4.275   0.244   2.990 -0.1399  0.7439  0.3063
13936TIP3   OH263222   4.621   6.122   5.661 -0.1947 -0.2674  0.2697
13936TIP3    H163223   4.710   6.128   5.696 -0.1461 -2.0245  0.5610
13936TIP3    H263224   4.631   6.134   5.566  0.1734  0.7958  0.4393
13937TIP3   OH263225   0.590   5.154   4.303 -0.4009  0.1893 -0.0924
13937TIP3    H163226   0.517   5.111   4.348 -0.2302  1.3012  1.3468
13937TIP3    H263227   0.612   5.095   4.231 -2.3749 -0.4269 -0.2690
13938TIP3   OH263228   6.075   0.562  16.039 -0.0166  0.5166  0.4702
13938TIP3    H163229   5.983   0.537  16.033  0.1156 -0.1556  1.0795
13938TIP3    H263230   6.122   0.494  15.990 -0.0370  2.4271 -2.4551
13939TIP3   OH263231   6.644   1.070   4.313 -0.6599  1.2045 -0.4465
13939TIP3    H163232   6.668   1.076   4.220 -2.3535  0.0844 -1.0041
13939TIP3    H263233   6.593   1.150   4.329  0.1479  1.7023 -0.2890
13940TIP3   OH263234   6.518   0.909   0.445 -0.3866  0.0012  0.6423
13940TIP3    H163235   6.499   0.830   0.395 -1.1604  0.5994 -0.0420
13940TIP3    H263236   6.482   0.980   0.392  1.8989  1.0069  0.3261
13941TIP3   OH263237   4.702   6.529   2.903  0.3423  0.0246  0.0251
13941TIP3    H163238   4.618   6.502   2.866  0.4705 -0.0312 -0.2208
13941TIP3    H263239   4.709   6.622   2.882  0.2656  0.0714  0.1955
13942TIP3   OH263240   5.450   0.701  15.606  0.0355 -0.2986  0.0885
13942TIP3    H163241   5.433   0.617  15.565 -0.1095  0.0256 -0.5271
13942TIP3    H263242   5.541   0.722  15.583  0.8670 -1.3671  2.1962
13943TIP3   OH263243   0.136   1.036   2.377  0.3612  0.0030 -0.2713
13943TIP3    H163244   0.047   1.034   2.413 -0.0159  0.0301 -1.1836
13943TIP3    H263245   0.191   1.001   2.447 -0.6215 -1.9493 -0.3959
13944TIP3   OH263246   6.397   1.714   4.758  0.0357 -0.4533 -0.5704
13944TIP3    H163247   6.482   1.670   4.763  2.0096  2.8847 -1.6113
13944TIP3    H263248   6.363   1.691   4.672  1.2528  0.3556 -1.2934
13945TIP3   OH263249   3.874   2.312   4.711  0.3442 -0.3219  0.1987
13945TIP3    H163250   3.808   2.260   4.755  0.3202  0.4477  1.0896
13945TIP3    H263251   3.830   2.345   4.632 -0.5851  0.7752  1.1429
13946TIP3   OH263252   1.328   3.287  13.491 -0.2024  0.1806 -0.3319
13946TIP3    H163253   1.247   3.314  13.447  0.0862 -0.2130 -1.1245
13946TIP3    H263254   1.345   3.357  13.555 -2.1378 -0.6186  1.1436
13947TIP3   OH263255   2.393   3.024  16.795  0.4439 -0.0459 -0.3103
13947TIP3    H163256   2.439   3.101  16.827 -0.5792 -0.3812  2.2421
13947TIP3    H263257   2.372   2.974  16.874  0.4954 -2.6284 -1.8138
13948TIP3   OH263258   3.133   1.600   4.932  0.3454  0.4500 -0.8011
13948TIP3    H163259   3.105   1.546   5.006  1.2259  1.2219  0.1419
13948TIP3    H263260   3.057   1.655   4.913 -0.1431 -0.2827 -0.9648
13949TIP3   OH263261   4.263   3.192  10.865  0.0856 -0.1008  0.0517
13949TIP3    H163262   4.354   3.190  10.835 -0.1290 -0.7351 -0.5960
13949TIP3    H263263   4.264   3.249  10.942  1.0231 -0.0892  0.0428
13950TIP3   OH263264   1.556   3.798   3.757  0.3159  0.1589 -0.1810
13950TIP3    H163265   1.510   3.846   3.688  0.5895  0.7221  0.0169
13950TIP3    H263266   1.488   3.747   3.801 -0.0790  0.8026 -0.0370
13951TIP3   OH263267   4.680   2.797  12.619  0.3026 -0.1215  0.3243
13951TIP3    H163268   4.594   2.779  12.657  0.0444 -0.5523 -0.4537
13951TIP3    H263269   4.729   2.838  12.690 -0.1672 -0.9146  1.1298
13952TIP3   OH263270   0.903   4.834   2.423 -0.5127 -0.1787  0.5376
13952TIP3    H163271   0.982   4.857   2.472 -2.0447  0.6183  2.8149
13952TIP3    H263272   0.869   4.917   2.391 -0.6384 -0.4821 -0.1354
13953TIP3   OH263273   5.443   1.388  14.386 -0.3503 -0.7782 -0.4281
13953TIP3    H163274   5.420   1.469  14.432 -1.2228 -1.8673  1.1399
13953TIP3    H263275   5.420   1.405  14.294 -1.0446  0.5467 -0.0277
13954TIP3   OH263276   4.917   3.436  13.325  0.5157 -0.1701  0.0430
13954TIP3    H163277   5.008   3.453  13.302  0.0807  0.9971 -0.9171
13954TIP3    H263278   4.871   3.433  13.241 -0.0843 -2.5282  0.3813
13955TIP3   OH263279   2.188   0.510   0.531  0.4338  0.4732 -0.6649
13955TIP3    H163280   2.167   0.548   0.446 -3.9908 -1.2450 -0.6207
13955TIP3    H263281   2.227   0.425   0.511  0.6883  0.6470 -0.9186
13956TIP3   OH263282   4.222   3.001   0.061  0.6378 -0.2108  0.1348
13956TIP3    H163283   4.226   3.085   0.016  0.1182  0.1344  0.7268
13956TIP3    H263284   4.281   2.944   0.010  2.0126  0.8461  0.4680
13957TIP3   OH263285   5.850   2.579  15.645  0.0734  0.0233 -0.4462
13957TIP3    H163286   5.784   2.649  15.639 -1.2014 -0.9514  1.3917
13957TIP3    H263287   5.810   2.504  15.601  0.3715 -0.2929 -0.1828
13958TIP3   OH263288   2.723   0.505  12.590 -0.1036 -0.2470 -0.1555
13958TIP3    H163289   2.632   0.497  12.617 -0.2451  0.3666 -0.4285
13958TIP3    H263290   2.755   0.583  12.634 -0.0313  0.1632 -0.9136
13959TIP3   OH263291   0.587   5.955  15.222 -0.3925 -0.0837 -0.2303
13959TIP3    H163292   0.502   5.960  15.178 -0.3869 -2.1441 -0.5681
13959TIP3    H263293   0.568   5.914  15.306  0.2640 -0.5602 -0.3085
13960TIP3   OH263294   0.361   1.853  11.003 -0.2093 -0.3022  0.1242
13960TIP3    H163295   0.328   1.942  11.015  0.8094 -0.0899  1.5771
13960TIP3    H263296   0.456   1.860  11.012 -0.1186 -1.5464  0.4373
13961TIP3   OH263297   0.152   4.696   0.092 -0.4114 -0.0223 -0.2608
13961TIP3    H163298   0.075   4.663   0.139  1.1090 -0.5025  2.0155
13961TIP3    H263299   0.198   4.618   0.063 -0.7717  0.2675 -1.6889
13962TIP3   OH263300   2.263   3.044  16.156  0.5066  0.1501 -0.4139
13962TIP3    H163301   2.326   3.112  16.132  0.8209  0.8833  2.2222
13962TIP3    H263302   2.180   3.074  16.119  1.0732  0.7982 -1.1928
13963TIP3   OH263303   6.287   0.723   0.457  0.4144 -0.1182  0.2129
13963TIP3    H163304   6.336   0.715   0.375 -2.2634 -2.3784 -1.3505
13963TIP3    H263305   6.216   0.784   0.437  1.0443  1.1740  1.6650
13964TIP3   OH263306   1.452   1.578   4.708 -0.2826 -0.0291  0.0081
13964TIP3    H163307   1.454   1.551   4.800  0.4730 -1.0563 -0.2953
13964TIP3    H263308   1.541   1.606   4.689 -0.3266 -0.2438 -0.5321
13965TIP3   OH263309   4.481   0.995   5.669  0.1226 -0.1640  0.2318
13965TIP3    H163310   4.434   0.988   5.752 -1.3328  0.8777 -0.4549
13965TIP3    H263311   4.412   1.002   5.603  1.2317  1.0867 -0.8497
13966TIP3   OH263312   4.990   3.715   4.551 -0.0096 -0.7983 -0.5376
13966TIP3    H163313   5.004   3.785   4.488 -1.0281 -0.0134  0.0891
13966TIP3    H263314   5.074   3.668   4.553  1.1554  1.1790 -0.0161
13967TIP3   OH263315   4.271   0.300  13.548 -0.1504  0.5556 -0.5973
13967TIP3    H163316   4.182   0.276  13.576 -1.4569  1.4368 -3.6310
13967TIP3    H263317   4.307   0.219  13.512  1.6639 -0.6717  3.4062
13968TIP3   OH263318   1.260   5.752  14.712 -0.2345 -0.4454  0.5983
13968TIP3    H163319   1.168   5.752  14.739  0.0311  0.2065  1.5144
13968TIP3    H263320   1.283   5.659  14.706 -1.6853 -0.7334 -2.2672
13969TIP3   OH263321   0.868   3.008  11.153  0.7438 -0.2628  0.1977
13969TIP3    H163322   0.895   2.937  11.210 -1.9671 -0.4523  1.4169
13969TIP3    H263323   0.902   3.087  11.195  3.5240 -0.6859 -1.0148
13970TIP3   OH263324   1.940   2.136  15.923  0.1320  0.1276 -0.3137
13970TIP3    H163325   1.984   2.150  15.840 -0.0722 -1.3750 -0.7004
13970TIP3    H263326   1.906   2.047  15.918 -0.5691  0.2826  1.0690
13971TIP3   OH263327   2.710   6.745   5.367  0.0894 -0.1916  0.2025
13971TIP3    H163328   2.771   6.672   5.377 -0.7584 -1.1568 -1.2391
13971TIP3    H263329   2.683   6.741   5.275 -0.0549  1.9063  0.1006
13972TIP3   OH263330   2.867   3.020  15.574  0.3968  0.0687 -0.0834
13972TIP3    H163331   2.869   2.987  15.484 -1.1924  0.0875 -0.1475
13972TIP3    H263332   2.959   3.037  15.595  0.6512  3.4840 -2.9934
13973TIP3   OH263333   5.895   1.824   2.973 -0.3214 -0.5351  0.4428
13973TIP3    H163334   5.799   1.825   2.976 -0.3301 -0.2379  0.1038
13973TIP3    H263335   5.918   1.898   2.918  0.1253 -0.2362  1.0232
13974TIP3   OH263336   0.079   2.454  16.534  0.6028  0.0836  0.1575
13974TIP3    H163337   0.032   2.386  16.484  0.2071  0.8547 -0.5395
13974TIP3    H263338   0.144   2.487  16.472 -1.4874  2.7727 -0.7640
13975TIP3   OH263339   4.436   6.154   4.244  0.4019 -0.1310  0.0497
13975TIP3    H163340   4.501   6.084   4.236 -0.8943 -1.2089 -1.8478
13975TIP3    H263341   4.352   6.111   4.226 -0.6267  1.5910  0.5536
13976TIP3   OH263342   6.388   1.378   2.421  0.1086  0.0791 -0.6650
13976TIP3    H163343   6.319   1.430   2.461  0.7320  1.2345 -1.0370
13976TIP3    H263344   6.375   1.389   2.327  0.5513 -0.0399 -0.7419
13977TIP3   OH263345   5.303   0.319   0.073 -0.2143 -0.0938 -0.2836
13977TIP3    H163346   5.220   0.364   0.087  0.2520  1.3241 -1.7692
13977TIP3    H263347   5.370   0.388   0.083  0.5795 -0.5870 -1.7936
13978TIP3   OH263348   1.873   0.713   4.162  0.5285 -0.3085  0.0302
13978TIP3    H163349   1.849   0.643   4.101  0.1303  0.0173 -0.1878
13978TIP3    H263350   1.962   0.738   4.136  1.0627 -1.3949  0.7258
13979TIP3   OH263351   0.078   1.339  17.219 -0.2755  0.1895 -0.0608
13979TIP3    H163352   0.025   1.383  17.152  0.6583 -0.4443 -1.2458
13979TIP3    H263353   0.021   1.335  17.296 -0.5823  3.0401 -0.0310
13980TIP3   OH263354   6.612   4.286  12.183 -0.0213 -0.5600  0.7740
13980TIP3    H163355   6.656   4.215  12.229 -0.9247 -2.5861 -1.3111
13980TIP3    H263356   6.681   4.331  12.135  0.3554 -1.0623  0.8454
13981TIP3   OH263357   0.464   2.163  13.038 -0.1011 -0.1984 -0.3934
13981TIP3    H163358   0.470   2.084  12.983 -1.7013  0.6191 -1.8252
13981TIP3    H263359   0.550   2.168  13.080  0.4436 -2.0699 -1.1436
13982TIP3   OH263360   3.538   3.134  13.725 -0.0751  0.6206  0.2694
13982TIP3    H163361   3.590   3.161  13.649  1.5229 -1.0251  0.7098
13982TIP3    H263362   3.493   3.055  13.696 -0.4554  0.7042  0.6315
13983TIP3   OH263363   5.486   4.870  15.465  0.6258  0.4059 -0.1946
13983TIP3    H163364   5.400   4.842  15.495  0.5366 -1.2933 -1.8477
13983TIP3    H263365   5.535   4.788  15.453  3.3450  1.3422  2.9038
13984TIP3   OH263366   3.402   1.257  15.087  0.1020 -0.7879 -0.3118
13984TIP3    H163367   3.471   1.214  15.137 -0.4181 -0.1634  1.0072
13984TIP3    H263368   3.446   1.292  15.010  1.0809 -1.1793  0.0546
13985TIP3   OH263369   0.193   5.536   5.822 -0.4318  0.2832  0.1948
13985TIP3    H163370   0.151   5.552   5.906  1.8077  0.7650  1.2704
13985TIP3    H263371   0.187   5.441   5.811  0.1583  0.0929  1.4020
13986TIP3   OH263372   4.465   3.406  12.519 -0.5202 -0.0558 -0.2673
13986TIP3    H163373   4.452   3.338  12.452  0.5642  0.3062 -0.8798
13986TIP3    H263374   4.445   3.362  12.601  1.0203 -1.4297 -0.5623
13987TIP3   OH263375   6.190   5.043   5.705 -0.5832  0.3696  0.0136
13987TIP3    H163376   6.209   4.980   5.635  0.3605  0.3709  0.2601
13987TIP3    H263377   6.135   5.109   5.663  1.3164  1.2689 -1.2128
13988TIP3   OH263378   3.324   3.639  12.189  0.1432 -0.3285  0.4096
13988TIP3    H163379   3.324   3.687  12.272  1.0291  1.1509 -0.3969
13988TIP3    H263380   3.234   3.646  12.157 -0.0782 -0.4645  0.9960
13989TIP3   OH263381   1.139   3.070  15.640  0.2543 -0.3113  0.4002
13989TIP3    H163382   1.109   3.048  15.552 -0.4986  1.5273  0.1592
13989TIP3    H263383   1.122   2.990  15.691 -1.6784 -0.5725 -0.5622
13990TIP3   OH263384   3.079   0.356   4.823 -0.0798  0.1093  0.4613
13990TIP3    H163385   3.014   0.382   4.888  0.2250  2.1903  0.0163
13990TIP3    H263386   3.038   0.285   4.774 -0.6458 -0.9116  2.3530
13991TIP3   OH263387   4.432   4.907   6.162  0.9383  0.0267 -0.3633
13991TIP3    H163388   4.344   4.886   6.192  1.1019  0.1942  0.2379
13991TIP3    H263389   4.429   5.000   6.139  1.2907  0.3617  0.8918
13992TIP3   OH263390   3.903   4.975  16.506 -0.2701  0.3308  0.0464
13992TIP3    H163391   3.837   4.995  16.572  0.9468  0.4312  1.2626
13992TIP3    H263392   3.941   5.060  16.483 -1.3180  0.4230 -1.5181
13993TIP3   OH263393   1.389   5.149   6.048 -0.0217 -0.3080 -0.2356
13993TIP3    H163394   1.442   5.149   6.128 -0.2086 -2.7990 -0.0316
13993TIP3    H263395   1.299   5.137   6.079 -0.3710  0.8858 -0.7390
13994TIP3   OH263396   0.075   5.422   3.167 -0.1004 -0.3280 -0.1187
13994TIP3    H163397   0.093   5.483   3.238  0.2096 -0.1909 -0.3110
13994TIP3    H263398   0.141   5.353   3.177 -2.0154 -2.0236  1.6518
13995TIP3   OH263399   1.740   2.249   0.664  0.5205 -0.0449 -0.1403
13995TIP3    H163400   1.762   2.337   0.694 -1.8875  0.9861 -1.1260
13995TIP3    H263401   1.690   2.263   0.583 -0.1606 -2.2942 -0.1797
13996TIP3   OH263402   2.694   4.043  12.676  0.0651 -0.0405  0.3989
13996TIP3    H163403   2.634   4.113  12.702  0.0269  0.3953 -0.8082
13996TIP3    H263404   2.759   4.085  12.620 -0.7854 -1.1710 -1.5483
13997TIP3   OH263405   4.246   2.279   6.701  0.8695 -0.3323  0.4051
13997TIP3    H163406   4.218   2.208   6.759  0.8485  0.4042  1.3249
13997TIP3    H263407   4.235   2.244   6.612 -2.5221 -0.3233  0.6580
13998TIP3   OH263408   6.559   2.975   5.253  0.8956 -0.2569  0.0749
13998TIP3    H163409   6.581   2.996   5.344 -1.5214  0.7629  0.5169
13998TIP3    H263410   6.501   2.899   5.259 -0.6685  0.8361 -0.3929
13999TIP3   OH263411   2.300   4.989   4.885 -0.5762  0.3789  0.0817
13999TIP3    H163412   2.262   5.061   4.936  0.0543  1.7208 -1.2373
13999TIP3    H263413   2.319   5.029   4.800  0.7999 -1.0840 -0.3389
14000TIP3   OH263414   6.631   6.414  11.322 -0.1669  0.3672 -0.1105
14000TIP3    H163415   6.557   6.353  11.326  0.3498 -0.2451  0.4512
14000TIP3    H263416   6.688   6.378  11.254  0.6572 -0.3981  0.9602
14001TIP3   OH263417   2.053   2.205   2.184  0.0072 -0.0036 -0.1502
14001TIP3    H163418   1.965   2.176   2.162 -0.5479  1.5746 -0.1242
14001TIP3    H263419   2.047   2.236   2.274  1.4524 -3.1260  1.1894
14002TIP3   OH263420   3.284   2.704   2.500 -0.5247 -0.2385 -0.0326
14002TIP3    H163421   3.363   2.686   2.450 -1.6316 -1.2519 -1.4888
14002TIP3    H263422   3.256   2.791   2.470 -0.8570 -0.5890 -0.7588
14003TIP3   OH263423   1.685   4.597   2.383  0.1539  0.3352  0.3306
14003TIP3    H163424   1.652   4.678   2.422  0.4622  0.6792 -0.1180
14003TIP3    H263425   1.758   4.572   2.439 -0.7641 -0.3652  1.2577
14004TIP3   OH263426   3.452   2.531   4.989 -0.0883  0.6265  0.1715
14004TIP3    H163427   3.445   2.522   5.084  1.2678 -1.6096  0.1307
14004TIP3    H263428   3.545   2.545   4.972 -0.5119  2.6580 -0.7839
14005TIP3   OH263429   2.080   0.830  12.662  0.5381 -0.2337 -0.2435
14005TIP3    H163430   2.163   0.816  12.708 -0.4856 -1.1702  1.4321
14005TIP3    H263431   2.055   0.920  12.684  1.8195  0.6269 -2.0551
14006TIP3   OH263432   6.307   3.722   6.325 -0.2983  0.3801 -0.6184
14006TIP3    H163433   6.310   3.756   6.415  1.8482 -0.3370 -0.3595
14006TIP3    H263434   6.310   3.801   6.270  1.0607  0.7697 -0.0314
14007TIP3   OH263435   0.309   2.568  11.879  0.0208  0.0500  0.0057
14007TIP3    H163436   0.243   2.558  11.948  0.3310  0.4197  0.3607
14007TIP3    H263437   0.273   2.519  11.805 -0.4829 -0.0571  0.3121
14008TIP3   OH263438   1.069   5.140   2.333 -0.3815 -0.0171  0.1469
14008TIP3    H163439   1.093   5.074   2.399 -0.4736 -0.2912 -0.0927
14008TIP3    H263440   1.111   5.110   2.253 -2.0103 -0.8344 -0.4294
14009TIP3   OH263441   6.562   0.186  14.197  0.1924  0.4589  0.2791
14009TIP3    H163442   6.467   0.178  14.191  0.3492 -0.9096 -0.9667
14009TIP3    H263443   6.579   0.280  14.185 -0.9791  0.7039  0.3988
14010TIP3   OH263444   6.698   2.409   0.326  0.0554 -0.0242 -0.3004
14010TIP3    H163445   6.736   2.345   0.387 -2.4684  0.1655  1.6153
14010TIP3    H263446   6.628   2.362   0.282  0.0220  0.6445 -0.9839
14011TIP3   OH263447   1.757   1.747  13.036  0.1749 -0.6123  0.1963
14011TIP3    H163448   1.827   1.766  12.974  2.7179 -0.4838  2.8628
14011TIP3    H263449   1.794   1.679  13.093 -2.7063 -2.0582  0.4951
14012TIP3   OH263450   6.421   4.400   5.339 -0.1560 -0.2408 -0.6076
14012TIP3    H163451   6.344   4.424   5.288  0.8748  0.0268 -2.0978
14012TIP3    H263452   6.388   4.342   5.408 -1.9659  1.4071 -0.0090
14013TIP3   OH263453   5.218   5.757   0.885  0.0197 -0.5825 -0.5395
14013TIP3    H163454   5.146   5.729   0.827  1.0238 -1.4154 -1.4224
14013TIP3    H263455   5.207   5.852   0.892 -1.9987 -0.8492  0.4992
14014TIP3   OH263456   1.511   1.983   1.919 -0.2879 -0.0226  0.3494
14014TIP3    H163457   1.554   1.922   1.859 -0.0210  0.7570 -0.2610
14014TIP3    H263458   1.431   1.938   1.945 -1.0234  0.1251 -1.5498
14015TIP3   OH263459   5.421   0.085  16.694 -0.0162 -0.3166  0.2430
14015TIP3    H163460   5.515   0.076  16.712  0.3490 -1.8728 -1.9508
14015TIP3    H263461   5.389  -0.005  16.688 -2.1630  0.1705  2.9323
14016TIP3   OH263462   2.768   0.458   1.566  0.3049 -0.5998  0.3180
14016TIP3    H163463   2.801   0.374   1.599  0.1456 -0.9044 -0.2790
14016TIP3    H263464   2.680   0.438   1.534  0.9591 -0.6525 -1.5905
14017TIP3   OH263465   0.743   6.208   2.595  0.1199 -0.2347 -0.1152
14017TIP3    H163466   0.659   6.253   2.593  0.5639  0.6381 -2.5128
14017TIP3    H263467   0.796   6.258   2.657 -0.9840 -0.6230  1.1931
14018TIP3   OH263468   4.842   6.625   0.883  0.4116  0.8028 -0.2168
14018TIP3    H163469   4.846   6.627   0.787  0.9726 -1.7893 -0.3358
14018TIP3    H263470   4.779   6.555   0.902  0.3355  1.2630  1.3173
14019TIP3   OH263471   4.485   4.754   4.908 -0.0098 -0.2869  0.1952
14019TIP3    H163472   4.417   4.688   4.895 -1.5140  1.2928 -0.3344
14019TIP3    H263473   4.520   4.769   4.820 -0.1907  0.1371  0.1936
14020TIP3   OH263474   4.708   2.225   0.771  0.0383 -0.2083  0.3447
14020TIP3    H163475   4.798   2.227   0.803  0.6153  0.5510 -1.2355
14020TIP3    H263476   4.655   2.213   0.850  1.5741 -2.0525  1.1619
14021TIP3   OH263477   5.826   5.647  16.117  0.3442 -0.0589 -0.7990
14021TIP3    H163478   5.874   5.716  16.162  0.7148  0.0038 -1.2904
14021TIP3    H263479   5.878   5.627  16.040  0.1548 -0.7676 -0.7535
14022TIP3   OH263480   1.129   4.434  14.588 -0.0705  0.5884 -0.2073
14022TIP3    H163481   1.122   4.458  14.495  1.4303 -0.0328 -0.5058
14022TIP3    H263482   1.089   4.508  14.634  1.7577  2.3238 -1.2367
14023TIP3   OH263483   1.781   3.203  12.364  0.0219  0.2576  0.2353
14023TIP3    H163484   1.725   3.275  12.392  0.6677  0.5913  0.7018
14023TIP3    H263485   1.868   3.228  12.394  0.6978  0.4390 -1.7047
14024TIP3   OH263486   0.795   2.517  12.366  0.2097  0.3200 -0.5837
14024TIP3    H163487   0.794   2.486  12.276  1.1825 -0.1816 -0.4403
14024TIP3    H263488   0.782   2.438  12.418  0.2395  0.5234 -0.2646
14025TIP3   OH263489   5.318   0.654  17.073  0.2525  0.6864 -0.2746
14025TIP3    H163490   5.255   0.691  17.135  0.2114 -1.2170  0.9257
14025TIP3    H263491   5.348   0.573  17.116  0.5616 -0.4797 -2.5600
14026TIP3   OH263492   1.489   5.511   3.523  0.3330  0.1011 -0.1402
14026TIP3    H163493   1.562   5.572   3.509  0.5606  0.1369  1.0615
14026TIP3    H263494   1.450   5.539   3.606 -2.1519  1.1498 -1.5440
14027TIP3   OH263495   5.441   0.072  13.529  0.0609  0.4276 -0.2560
14027TIP3    H163496   5.529   0.100  13.502  0.3742 -0.0126  0.2900
14027TIP3    H263497   5.438   0.092  13.623 -0.8157  1.4241 -0.4745
14028TIP3   OH263498   0.121   3.789   1.670  0.0463 -0.0122  0.3900
14028TIP3    H163499   0.126   3.715   1.610  3.2177  0.9400 -0.7328
14028TIP3    H263500   0.180   3.766   1.742  0.9380  1.2613  0.1177
14029TIP3   OH263501   2.819   3.972   2.653  0.2840 -0.0194 -0.3356
14029TIP3    H163502   2.768   4.049   2.627 -0.2882 -0.5148 -0.6972
14029TIP3    H263503   2.811   3.970   2.749  0.5613  0.5461 -0.2978
14030TIP3   OH263504   4.054   5.750  13.480  0.1785 -0.2386  0.1893
14030TIP3    H163505   4.004   5.756  13.562  1.8553 -0.7767  1.3007
14030TIP3    H263506   4.099   5.834  13.473 -0.6119  0.1258 -0.6412
14031TIP3   OH263507   5.045   1.389   0.860  0.5495  0.5105  0.4681
14031TIP3    H163508   5.097   1.467   0.880  0.1340  1.7983 -2.9312
14031TIP3    H263509   5.108   1.317   0.861  1.8993  1.6185 -0.8563
14032TIP3   OH263510   1.172   4.903  11.116  0.0661 -0.1950  0.2856
14032TIP3    H163511   1.200   4.957  11.042  1.4352 -1.7023 -0.3797
14032TIP3    H263512   1.101   4.850  11.081 -1.9929  1.7892  1.2299
14033TIP3   OH263513   5.592   6.190   5.654  0.1906 -0.1809  0.7369
14033TIP3    H163514   5.675   6.170   5.697  0.4629  1.3707  1.0190
14033TIP3    H263515   5.555   6.262   5.706 -0.7604 -0.0633 -0.0675
14034TIP3   OH263516   4.141   5.158   5.564  0.0910  0.3324  0.4506
14034TIP3    H163517   4.055   5.201   5.568 -1.3807 -2.2716 -0.2739
14034TIP3    H263518   4.162   5.138   5.655 -1.4260 -1.2889  0.5081
14035TIP3   OH263519   1.167   1.075  13.877 -0.0510 -0.9223 -0.4915
14035TIP3    H163520   1.075   1.095  13.857 -0.3719 -2.3240 -0.5700
14035TIP3    H263521   1.170   1.070  13.972  0.2610  0.4101 -0.4091
14036TIP3   OH263522   4.663   5.454  12.516 -0.1855 -0.9166 -0.1100
14036TIP3    H163523   4.740   5.439  12.461 -1.0153 -0.4226 -1.4548
14036TIP3    H263524   4.599   5.390  12.484 -1.0904  0.1882 -0.5802
14037TIP3   OH263525   2.145   2.270   4.968 -0.1742  0.0533  0.4958
14037TIP3    H163526   2.223   2.320   4.942  0.5885 -1.9275 -1.3112
14037TIP3    H263527   2.072   2.318   4.929  0.5325 -0.1451 -1.1517
14038TIP3   OH263528   3.713   0.503   3.241 -0.5807  0.4596  0.5234
14038TIP3    H163529   3.647   0.497   3.310 -0.2206 -1.4991  0.7634
14038TIP3    H263530   3.664   0.489   3.160 -0.6696  0.4967  0.5700
14039TIP3   OH263531   3.057   4.028   2.292 -0.3120  0.0341  0.2126
14039TIP3    H163532   3.010   4.103   2.257 -1.4732 -0.6326  0.2867
14039TIP3    H263533   3.129   4.013   2.232 -3.1913 -2.1665 -3.0830
14040TIP3   OH263534   2.239   3.780   1.058  0.4885 -0.7910 -0.0068
14040TIP3    H163535   2.146   3.770   1.076  0.5554 -2.6946 -0.4266
14040TIP3    H263536   2.280   3.785   1.145 -0.0931  1.7698  0.1810
14041TIP3   OH263537   3.211   5.603  15.345 -0.0169  0.2660 -0.2151
14041TIP3    H163538   3.295   5.563  15.324  0.5019  0.2941  1.6678
14041TIP3    H263539   3.167   5.614  15.260  0.3004 -3.1571 -0.9283
14042TIP3   OH263540   6.738   5.037   4.553  0.3667  0.3941 -0.3133
14042TIP3    H163541   6.664   5.097   4.542  0.0512  0.3207  1.2248
14042TIP3    H263542   6.743   5.022   4.647  1.7413 -0.3758 -0.4844
14043TIP3   OH263543   4.377   3.154   1.125  0.5853  0.0707  0.3740
14043TIP3    H163544   4.289   3.117   1.127  0.8018 -0.5125 -0.3402
14043TIP3    H263545   4.435   3.077   1.127  1.0559  0.3895 -0.3717
14044TIP3   OH263546   1.988   1.558  11.379  0.2747  0.6362  0.4615
14044TIP3    H163547   1.950   1.486  11.329  1.5982  2.7496 -4.0858
14044TIP3    H263548   2.050   1.516  11.439 -2.4041 -2.1677  1.5183
14045TIP3   OH263549   0.023   4.867   3.760  0.1867  0.1122 -0.3817
14045TIP3    H163550   0.016   4.853   3.666 -2.6541  1.8322 -0.5625
14045TIP3    H263551   0.100   4.921   3.772  0.2352  0.3731 -1.8016
14046TIP3   OH263552   0.718   2.208   5.032 -0.2207 -0.1220 -0.0931
14046TIP3    H163553   0.733   2.197   4.938  0.4434 -0.9889  0.1025
14046TIP3    H263554   0.712   2.119   5.066  1.5095  0.1198  0.9787
14047TIP3   OH263555   1.700   4.834   2.197 -0.5242  0.5274  0.4683
14047TIP3    H163556   1.677   4.849   2.105 -0.4670 -0.3820  0.2897
14047TIP3    H263557   1.785   4.876   2.209  0.1844 -0.6261 -0.3182
14048TIP3   OH263558   2.430   1.172   6.096 -0.2573  0.5875  0.3031
14048TIP3    H163559   2.457   1.194   6.185 -0.2577 -0.5761  0.6145
14048TIP3    H263560   2.512   1.171   6.046  0.0009 -0.5313  0.7096
14049TIP3   OH263561   5.510   3.202   0.347  0.0245  0.3030  0.4045
14049TIP3    H163562   5.515   3.222   0.253 -0.8539  2.3978  0.7440
14049TIP3    H263563   5.550   3.278   0.389 -2.1660  0.7622  1.7942
14050TIP3   OH263564   3.318   1.473   3.769 -0.7749 -0.3476  0.0296
14050TIP3    H163565   3.405   1.436   3.749 -0.9795 -0.9444  0.2081
14050TIP3    H263566   3.326   1.506   3.858 -0.0352  1.7824 -0.7692
14051TIP3   OH263567   6.677   3.976   2.164  0.8188  0.5945  0.0933
14051TIP3    H163568   6.589   3.997   2.133  1.4768 -1.1949 -3.5248
14051TIP3    H263569   6.669   3.971   2.259 -2.8889  0.7991 -0.0928
14052TIP3   OH263570   5.339   1.289  15.175 -0.4048  0.5060 -0.1762
14052TIP3    H163571   5.353   1.213  15.119 -2.6360 -0.2908  0.2361
14052TIP3    H263572   5.292   1.254  15.251  1.0054  1.8494  1.4083
14053TIP3   OH263573   4.025   0.821  12.088  0.3352  0.1117 -0.4096
14053TIP3    H163574   3.994   0.760  12.155  2.3553  1.1882  1.6680
14053TIP3    H263575   3.946   0.861  12.053 -0.8931 -1.7839  0.0188
14054TIP3   OH263576   5.431   3.622  16.544  0.4385  0.0786 -0.4713
14054TIP3    H163577   5.370   3.568  16.594  2.1258  0.0623  1.7104
14054TIP3    H263578   5.516   3.580  16.555  1.3222  1.5879 -1.1275
14055TIP3   OH263579   4.094   1.077  12.996 -0.2462 -0.2338 -0.0283
14055TIP3    H163580   4.132   1.165  13.000  1.2588 -0.8957  0.9190
14055TIP3    H263581   4.164   1.019  13.024 -1.4219 -1.6932  0.0112
14056TIP3   OH263582   0.078   4.838  12.852  0.0156  0.0839 -0.2023
14056TIP3    H163583   0.138   4.864  12.782  0.3505 -0.6940 -0.2112
14056TIP3    H263584  -0.006   4.822  12.809  0.2547 -0.5241 -0.4573
14057TIP3   OH263585   1.005   0.770   4.653 -0.1686 -0.2199  0.2392
14057TIP3    H163586   0.999   0.864   4.633  0.0281 -0.1966  0.2912
14057TIP3    H263587   0.920   0.748   4.690 -0.9170 -0.4757 -1.5426
14058TIP3   OH263588   2.267   6.096  14.761  0.6790 -0.0717  0.4505
14058TIP3    H163589   2.204   6.168  14.766  1.1798  0.2712  2.8523
14058TIP3    H263590   2.343   6.133  14.715 -0.4077 -0.2035 -1.5784
14059TIP3   OH263591   1.789   1.537  12.350  0.2774 -0.4059 -0.2856
14059TIP3    H163592   1.747   1.452  12.333  0.7977 -0.2786 -2.5792
14059TIP3    H263593   1.739   1.598  12.295  0.5653  0.5876  0.5498
14060TIP3   OH263594   1.374   5.594   5.675 -0.4211  0.1820  0.0659
14060TIP3    H163595   1.459   5.610   5.633  0.2085 -4.6311 -1.1335
14060TIP3    H263596   1.317   5.567   5.602 -1.6268 -0.8858  1.3462
14061TIP3   OH263597   0.944   3.523  13.171 -0.4971 -0.0905 -0.0616
14061TIP3    H163598   0.853   3.535  13.145 -0.2095  1.5727 -0.4288
14061TIP3    H263599   0.993   3.524  13.088 -0.2291 -2.3151  0.0167
14062TIP3   OH263600   3.038   1.074  11.411 -0.0883 -0.4165  0.7560
14062TIP3    H163601   3.025   0.986  11.445 -1.5676 -0.2827  0.5940
14062TIP3    H263602   3.074   1.123  11.485  2.8604 -1.6040  0.2624
14063TIP3   OH263603   4.957   4.105   3.192  0.3520  0.2204  0.3336
14063TIP3    H163604   5.018   4.113   3.119 -0.6474  1.0017 -0.4415
14063TIP3    H263605   4.990   4.031   3.243  1.6987  0.3747 -0.2836
14064TIP3   OH263606   4.749   3.330  11.936  0.3859  0.2919  0.2577
14064TIP3    H163607   4.797   3.253  11.908  3.2188  2.0780 -0.2181
14064TIP3    H263608   4.695   3.355  11.861  2.3505  0.8720 -1.0258
14065TIP3   OH263609   1.614   5.217  10.716  0.1247 -0.2013 -0.4883
14065TIP3    H163610   1.530   5.253  10.743  0.3997 -0.3693  0.6598
14065TIP3    H263611   1.667   5.293  10.693  0.9843  0.3287  2.7138
14066TIP3   OH263612   2.344   6.641  13.927  0.4472  0.7271  0.1211
14066TIP3    H163613   2.280   6.697  13.973 -0.9742 -1.0705  0.4462
14066TIP3    H263614   2.402   6.703  13.883 -0.6818  2.4674  0.9515
14067TIP3   OH263615   5.169   1.582  14.439  0.5421  0.6471 -0.1343
14067TIP3    H163616   5.179   1.599  14.345  0.7543 -0.1495 -0.2633
14067TIP3    H263617   5.152   1.668  14.477 -2.7781  0.6582 -1.3098
14068TIP3   OH263618   6.561   4.149  11.714 -0.4179  0.2865  0.1048
14068TIP3    H163619   6.572   4.076  11.652 -0.7720  1.9233 -1.9942
14068TIP3    H263620   6.475   4.186  11.692 -0.7528  0.6729  1.9164
14069TIP3   OH263621   6.314   4.654  17.202  0.4709 -0.5677 -0.6880
14069TIP3    H163622   6.226   4.629  17.229  0.5974  0.7225  1.0889
14069TIP3    H263623   6.303   4.738  17.157  0.6379 -1.1699 -1.8855
14070TIP3   OH263624   3.451   0.679   4.786 -0.2400  0.3996  0.1752
14070TIP3    H163625   3.529   0.698   4.838  0.3085 -0.4614 -0.2945
14070TIP3    H263626   3.409   0.606   4.832 -0.6838  0.7600  0.3423
14071TIP3   OH263627   2.514   3.796  15.393  0.3233 -0.4995  0.3256
14071TIP3    H163628   2.606   3.781  15.372  0.0776 -0.3842 -0.8921
14071TIP3    H263629   2.471   3.805  15.308 -0.3845  2.0535  0.8682
14072TIP3   OH263630   6.668   5.695   5.781 -0.5076  0.0724 -0.1307
14072TIP3    H163631   6.578   5.694   5.812 -0.2762  0.7444  0.5939
14072TIP3    H263632   6.719   5.663   5.856 -0.1092  0.0483 -0.4113
14073TIP3   OH263633   6.179   6.034   5.371 -0.0916  0.3054 -0.7872
14073TIP3    H163634   6.206   6.123   5.346 -2.0995  1.1500 -0.0798
14073TIP3    H263635   6.097   6.019   5.324 -1.0296 -0.2400  0.9653
14074TIP3   OH263636   0.019   2.374   1.198  0.4846 -0.3574 -0.5753
14074TIP3    H163637  -0.040   2.355   1.271  0.7758  0.0565 -0.2213
14074TIP3    H263638  -0.038   2.387   1.123  0.1608 -0.5024 -0.3573
14075TIP3   OH263639   0.085   3.209   0.394 -0.9939  0.3923 -0.1623
14075TIP3    H163640   0.095   3.212   0.489 -2.4076  0.2097  0.0145
14075TIP3    H263641   0.099   3.299   0.365 -1.1922  0.5748  0.2981
14076TIP3   OH263642   6.675   5.542  12.729 -0.0035 -0.3099  0.2644
14076TIP3    H163643   6.667   5.634  12.703  0.2263  0.1970  1.8613
14076TIP3    H263644   6.624   5.494  12.664 -1.1622  1.0720  0.1012
14077TIP3   OH263645   2.541   4.182   1.310 -0.7429  0.1739 -0.7320
14077TIP3    H163646   2.575   4.102   1.268 -2.5086 -0.2994 -1.3642
14077TIP3    H263647   2.561   4.170   1.403  2.4547  0.8293 -1.2053
14078TIP3   OH263648   0.374   5.509   4.890  0.1412 -0.5660  0.2872
14078TIP3    H163649   0.359   5.485   4.798 -1.7753 -1.0839  0.6996
14078TIP3    H263650   0.354   5.603   4.894  0.3405 -0.5171  0.1628
14079TIP3   OH263651   2.937   4.642   4.430  0.9144  0.0203 -0.3271
14079TIP3    H163652   2.929   4.607   4.342 -2.4270  0.9448 -0.5373
14079TIP3    H263653   2.961   4.734   4.417 -1.2743  0.6282 -0.4702
14080TIP3   OH263654   0.690   4.521   4.187  0.0063 -0.2821  0.4867
14080TIP3    H163655   0.683   4.436   4.144 -1.2638 -0.1140  0.3458
14080TIP3    H263656   0.785   4.538   4.190  0.4164 -2.4052  1.9533
14081TIP3   OH263657   0.713   4.291   1.450  0.5438  0.0269 -0.3986
14081TIP3    H163658   0.735   4.342   1.373 -1.5192 -0.4604 -1.3834
14081TIP3    H263659   0.732   4.200   1.425  0.5984 -0.0603 -0.0502
14082TIP3   OH263660   2.634   4.326  15.300  0.1013 -0.1094 -0.8116
14082TIP3    H163661   2.592   4.283  15.225  2.1883 -1.1906 -1.4406
14082TIP3    H263662   2.711   4.369  15.263 -0.2208  1.5472  0.3395
14083TIP3   OH263663   6.133   2.065   1.264  0.0431  0.1376  0.2284
14083TIP3    H163664   6.138   1.977   1.228 -1.3981 -0.1144  0.5860
14083TIP3    H263665   6.041   2.076   1.288  0.0620  1.9920 -0.4370
14084TIP3   OH263666   6.192   1.630  12.535  0.6685 -0.0366 -0.4571
14084TIP3    H163667   6.277   1.671  12.521  0.6072  1.6582  3.0155
14084TIP3    H263668   6.129   1.702  12.530  0.1717 -0.1453  2.4124
14085TIP3   OH263669   0.095   4.658  16.582 -0.7260  0.3326 -0.6460
14085TIP3    H163670   0.000   4.671  16.583 -0.8013 -0.2201 -0.3539
14085TIP3    H263671   0.123   4.693  16.498 -0.9961  1.8212 -0.1535
14086TIP3   OH263672   4.443   4.104  13.086  0.6739 -0.2657  0.3391
14086TIP3    H163673   4.413   4.015  13.070  0.7132 -0.1653 -0.3542
14086TIP3    H263674   4.519   4.115  13.028  1.2762 -0.0982  1.1347
14087TIP3   OH263675   2.312   2.254  17.023 -0.3709 -0.4383  0.1096
14087TIP3    H163676   2.398   2.291  17.040 -0.5932  0.2028 -0.1271
14087TIP3    H263677   2.264   2.267  17.105 -0.1248 -1.1430  0.3701
14088TIP3   OH263678   6.170   4.743  16.016 -0.4842  0.5893 -0.5117
14088TIP3    H163679   6.241   4.802  15.990 -0.5834  0.6616 -0.6235
14088TIP3    H263680   6.130   4.785  16.092  0.7074 -0.3303  0.6643
14089TIP3   OH263681   1.053   6.647  15.168 -0.1574 -0.1588  0.0130
14089TIP3    H163682   1.135   6.609  15.198 -0.1963 -0.1670  0.1099
14089TIP3    H263683   0.999   6.572  15.144 -0.2108 -0.1636  0.1435
14090TIP3   OH263684   1.791   3.488  13.726  0.0203  0.0988 -0.0982
14090TIP3    H163685   1.810   3.527  13.640  0.9704  1.3670  0.6488
14090TIP3    H263686   1.753   3.559  13.777  0.0401 -0.4687  0.7333
14091TIP3   OH263687   0.488   0.492   6.372  0.5989 -0.1120 -0.6297
14091TIP3    H163688   0.489   0.428   6.444 -0.1024  0.6773  0.1085
14091TIP3    H263689   0.413   0.466   6.319  0.6356 -0.2095 -0.6360
14092TIP3   OH263690   3.034   3.580   4.218  0.0961  0.0616 -0.2090
14092TIP3    H163691   3.030   3.666   4.175 -0.7571 -0.1336 -0.5458
14092TIP3    H263692   3.116   3.582   4.267  1.3790  0.1257 -2.1999
14093TIP3   OH263693   2.382   5.280   6.183  0.4317  0.6197  0.3361
14093TIP3    H163694   2.297   5.322   6.178  0.1869  0.1301  0.2958
14093TIP3    H263695   2.444   5.347   6.154 -0.2105  0.1365 -2.4678
14094TIP3   OH263696   4.781   2.721   5.680  0.2014  0.3808 -0.7159
14094TIP3    H163697   4.793   2.804   5.634 -1.1174  0.1451 -1.5550
14094TIP3    H263698   4.723   2.743   5.753 -0.8667  0.0800 -1.4401
14095TIP3   OH263699   5.312   6.242   3.359  0.3190 -0.1484 -0.6011
14095TIP3    H163700   5.404   6.217   3.358  0.2166 -0.6945  0.9252
14095TIP3    H263701   5.312   6.333   3.391  0.3125 -0.3036 -0.1485
14096TIP3   OH263702   0.063   5.627  10.983  0.3043  0.6911  0.1889
14096TIP3    H163703   0.133   5.608  10.920 -0.4274  0.7696 -0.6543
14096TIP3    H263704   0.017   5.702  10.947 -0.6929  0.1736  0.3462
14097TIP3   OH263705   1.742   0.058   3.067  0.3340  0.2698 -0.1066
14097TIP3    H163706   1.718   0.011   3.147  4.2485  1.3460  1.9410
14097TIP3    H263707   1.697   0.142   3.074 -0.2988 -0.0904  0.3056
14098TIP3   OH263708   5.022   0.304  13.572 -0.2460 -0.2405 -0.4555
14098TIP3    H163709   5.042   0.373  13.636  1.4203 -0.8414 -0.2660
14098TIP3    H263710   5.093   0.240  13.583 -1.1343 -1.4388 -1.3998
14099TIP3   OH263711   5.246   2.248   4.666  0.7771  0.1470  0.0090
14099TIP3    H163712   5.267   2.295   4.586  0.4387  0.2699 -0.0072
14099TIP3    H263713   5.235   2.317   4.732 -0.0496  0.1169 -0.0879
14100TIP3   OH263714   2.002   4.215   1.746 -0.3233 -0.8101 -0.0097
14100TIP3    H163715   2.042   4.136   1.709  1.3042  0.3415 -0.8580
14100TIP3    H263716   2.067   4.247   1.809  0.3638  1.3206 -1.6849
14101TIP3   OH263717   1.651   3.476   4.760  0.0377 -0.4067  0.2805
14101TIP3    H163718   1.629   3.554   4.709 -1.4535 -0.3136  1.0151
14101TIP3    H263719   1.623   3.402   4.706 -0.4438 -0.3504  0.4486
14102TIP3   OH263720   4.828   6.258   5.260  0.1546  0.5866  0.1286
14102TIP3    H163721   4.892   6.311   5.212  0.5109  0.3223  0.3069
14102TIP3    H263722   4.790   6.318   5.324  0.3467  0.6985  0.1372
14103TIP3   OH263723   1.013   3.563   2.113 -0.2632  0.6142 -0.4902
14103TIP3    H163724   1.094   3.521   2.141 -0.4745  0.2019 -0.4985
14103TIP3    H263725   1.040   3.652   2.089  0.3537  0.1642 -1.4971
14104TIP3   OH263726   1.631   1.491   2.166 -0.0440 -0.2910  0.6578
14104TIP3    H163727   1.640   1.570   2.219  0.9943  0.3423 -0.4101
14104TIP3    H263728   1.718   1.477   2.129 -0.6101 -0.9816 -0.4806
14105TIP3   OH263729   6.590   5.102  12.809 -0.4070 -1.0833 -0.5726
14105TIP3    H163730   6.521   5.152  12.765  0.3602  0.8817  0.3478
14105TIP3    H263731   6.634   5.054  12.739  0.1640  1.1957 -1.8632
14106TIP3   OH263732   6.365   2.983  13.738 -0.1125  0.1168 -0.1057
14106TIP3    H163733   6.395   2.955  13.824  0.1757  0.8673  0.0461
14106TIP3    H263734   6.306   2.913  13.709  2.4937 -1.9479 -0.8540
14107TIP3   OH263735   5.766   5.366  16.657 -0.1012 -0.5471 -0.0974
14107TIP3    H163736   5.778   5.436  16.593 -0.6256 -0.5098 -0.1566
14107TIP3    H263737   5.845   5.369  16.711 -0.3167  0.3715  0.1752
14108TIP3   OH263738   4.069   4.232  12.833  0.1383  0.4007 -0.3662
14108TIP3    H163739   4.062   4.249  12.739  0.6060  0.1708 -0.4463
14108TIP3    H263740   4.012   4.157  12.848 -0.1030  0.5729 -0.4291
14109TIP3   OH263741   4.584   2.991   4.130 -0.0719 -0.4577  0.5653
14109TIP3    H163742   4.675   3.020   4.126  0.3452 -1.4730  1.8497
14109TIP3    H263743   4.534   3.072   4.137  0.5737  0.2007 -1.6443
14110TIP3   OH263744   5.833   5.718   1.097  0.0942 -0.1218 -0.1346
14110TIP3    H163745   5.841   5.813   1.094 -3.0232  0.2502  0.0370
14110TIP3    H263746   5.851   5.696   1.189  0.5723  0.3350 -0.1138
14111TIP3   OH263747   1.763   5.819  12.168 -0.2494  0.0254 -0.4232
14111TIP3    H163748   1.718   5.789  12.089 -0.6551  2.5148 -1.2202
14111TIP3    H263749   1.846   5.854  12.136  0.8881 -1.5718  0.6591
14112TIP3   OH263750   0.507   6.552  13.073 -0.1151 -0.3506  0.1923
14112TIP3    H163751   0.598   6.535  13.098  0.1358 -0.2991 -0.6333
14112TIP3    H263752   0.469   6.597  13.148  0.1116 -1.6921  1.1472
14113TIP3   OH263753   5.481   3.258  15.235 -0.3817 -0.2588  0.3123
14113TIP3    H163754   5.550   3.227  15.177 -0.1170 -1.2140  1.1058
14113TIP3    H263755   5.522   3.261  15.322 -0.8277  0.9370  0.5022
14114TIP3   OH263756   4.013   5.723   5.786  0.6398  0.4729 -0.0950
14114TIP3    H163757   3.953   5.680   5.726 -0.1072 -0.9648  1.6055
14114TIP3    H263758   3.978   5.811   5.796  0.1396  0.3756 -0.8764
14115TIP3   OH263759   5.130   4.243   4.041  0.4795 -0.2467 -0.0422
14115TIP3    H163760   5.052   4.286   4.006  1.5955  2.6268  0.6927
14115TIP3    H263761   5.108   4.224   4.132  0.4470  0.0982  0.0246
14116TIP3   OH263762   6.358   0.798   2.339 -0.0184 -0.3923  0.1261
14116TIP3    H163763   6.415   0.721   2.339 -0.9394 -1.1441  2.0457
14116TIP3    H263764   6.310   0.791   2.257  0.7717 -1.1877 -0.2973
14117TIP3   OH263765   4.718   3.741   6.164 -0.2252 -0.3216  0.7231
14117TIP3    H163766   4.715   3.836   6.168  0.1263 -0.3447  1.8970
14117TIP3    H263767   4.811   3.720   6.154 -0.3016 -0.5436  0.4499
14118TIP3   OH263768   2.537   3.439  13.006 -0.1584  0.0294  0.1864
14118TIP3    H163769   2.594   3.463  12.934  0.3686 -0.6846  0.3581
14118TIP3    H263770   2.521   3.522  13.052 -1.7924  0.8045 -1.6205
14119TIP3   OH263771   0.483   1.911  13.582 -0.2580  0.0410 -0.4171
14119TIP3    H163772   0.469   2.004  13.563  0.0473 -0.2235 -2.1158
14119TIP3    H263773   0.480   1.905  13.678  0.0093  1.8413 -0.2607
14120TIP3   OH263774   5.105   6.115  10.990  0.0988 -0.4925  0.7283
14120TIP3    H163775   5.059   6.032  10.979 -0.1796 -0.0460 -2.0112
14120TIP3    H263776   5.148   6.130  10.906  2.6700  0.6829  2.1333
14121TIP3   OH263777   3.110   2.479  14.645 -0.0394  0.1674  0.1308
14121TIP3    H163778   3.195   2.447  14.613  0.4079 -0.7117  2.0628
14121TIP3    H263779   3.107   2.451  14.736 -3.0967 -1.1679 -0.2675
14122TIP3   OH263780   6.603   6.339  17.395  0.4006  0.0563  0.3677
14122TIP3    H163781   6.654   6.378  17.323  0.4800  0.8175  0.8270
14122TIP3    H263782   6.530   6.400  17.408  0.7760  0.2953  1.4024
14123TIP3   OH263783   1.281   4.778  13.859  0.0862  0.1458 -0.6065
14123TIP3    H163784   1.260   4.714  13.927  2.7948  1.1099  1.2973
14123TIP3    H263785   1.298   4.725  13.780  2.7614 -1.6562  1.0195
14124TIP3   OH263786   4.529   3.663  12.486 -0.4776 -0.1413 -0.6582
14124TIP3    H163787   4.586   3.665  12.409  0.4099 -0.8165 -0.0440
14124TIP3    H263788   4.530   3.571  12.513  1.1667  0.4351  1.5391
14125TIP3   OH263789   1.968   6.248  12.352  0.1265 -0.2058 -0.1100
14125TIP3    H163790   1.930   6.288  12.274 -0.5677 -1.2299 -0.3177
14125TIP3    H263791   2.020   6.318  12.392  0.2676  0.4190 -1.3267
14126TIP3   OH263792   4.723   3.540   0.935  0.2653  0.1545 -0.2009
14126TIP3    H163793   4.731   3.524   0.841 -0.6895 -1.8623 -0.0017
14126TIP3    H263794   4.629   3.532   0.952  0.6120 -1.5237  1.2058
14127TIP3   OH263795   0.325   2.790  16.817  0.0633 -0.3269  0.9450
14127TIP3    H163796   0.332   2.767  16.910 -0.3628  0.5961  1.2172
14127TIP3    H263797   0.262   2.726  16.782  0.5641 -0.9659  1.1758
14128TIP3   OH263798   2.887   5.654  17.129  0.0568 -0.1060  0.5144
14128TIP3    H163799   2.895   5.731  17.072  1.3350 -0.5483  0.0727
14128TIP3    H263800   2.876   5.581  17.069 -0.8546 -0.3262  0.9270
14129TIP3   OH263801   1.938   4.380   4.748  0.2467  0.0339  0.3334
14129TIP3    H163802   2.011   4.427   4.787  1.1524  0.6413 -1.8982
14129TIP3    H263803   1.872   4.447   4.729 -0.1492 -0.2350  0.7277
14130TIP3   OH263804   1.128   5.481   1.243 -0.1749  0.3344  0.6008
14130TIP3    H163805   1.072   5.552   1.272 -0.4454  0.2400  0.3152
14130TIP3    H263806   1.170   5.448   1.322 -2.1835 -1.0589  1.1497
14131TIP3   OH263807   5.116   1.049  14.033  0.7187  0.7702 -0.4041
14131TIP3    H163808   5.102   1.103  13.955  0.7549  1.5594  0.1239
14131TIP3    H263809   5.116   1.112  14.106 -1.7917 -0.1582  0.5286
14132TIP3   OH263810   1.831   2.740   4.700 -0.4984  0.4728 -0.1273
14132TIP3    H163811   1.793   2.681   4.634 -0.3305  1.3325 -1.0240
14132TIP3    H263812   1.923   2.748   4.674 -0.3824  0.6572  0.3396
14133TIP3   OH263813   6.034   5.981   0.947 -0.0462  0.1969  0.5399
14133TIP3    H163814   6.082   6.064   0.948 -0.7073  0.6045  1.8550
14133TIP3    H263815   5.950   6.003   0.908 -0.4357  0.2955  1.4124
14134TIP3   OH263816   1.957   5.240  13.352  0.6272  0.4387 -0.2500
14134TIP3    H163817   1.928   5.330  13.370 -0.2647  0.0841  0.0968
14134TIP3    H263818   1.893   5.184  13.396  1.3545 -0.3719 -0.1961
14135TIP3   OH263819   6.524   3.337   0.155  0.4550  0.3396 -0.3979
14135TIP3    H163820   6.529   3.308   0.246  3.6221  1.8018  0.0444
14135TIP3    H263821   6.467   3.414   0.157  0.5552  0.4009  0.3866
14136TIP3   OH263822   4.544   5.693  11.097  0.5291 -0.2376 -0.1395
14136TIP3    H163823   4.494   5.615  11.074 -0.1561  0.1586 -0.0129
14136TIP3    H263824   4.510   5.719  11.183  1.6643 -0.5474  0.4353
14137TIP3   OH263825   4.016   2.382   1.995 -0.2276 -0.5805 -0.2676
14137TIP3    H163826   3.995   2.440   1.921 -0.2562 -1.7964 -1.2519
14137TIP3    H263827   4.093   2.421   2.035  1.4055 -1.2307 -2.5607
14138TIP3   OH263828   1.011   0.700   3.196 -0.6656  0.1275  0.6197
14138TIP3    H163829   0.941   0.660   3.247 -1.5211  1.1411  0.2730
14138TIP3    H263830   0.970   0.776   3.155  0.3065  0.0158 -0.6121
14139TIP3   OH263831   0.713   1.452  14.248 -0.5042 -0.0821 -0.4571
14139TIP3    H163832   0.639   1.510  14.267  0.5152  1.2867 -0.4309
14139TIP3    H263833   0.784   1.512  14.227  0.2901 -1.3932 -1.6461
14140TIP3   OH263834   3.058   4.788   4.745  0.6226 -0.3010 -0.5013
14140TIP3    H163835   3.017   4.874   4.755 -0.0390 -0.3792 -2.2099
14140TIP3    H263836   3.147   4.800   4.777  0.2427  0.7469  0.2120
14141TIP3   OH263837   6.433   3.691  16.419 -0.3697  0.4947 -0.2016
14141TIP3    H163838   6.433   3.704  16.514  0.4421 -1.1100  0.0525
14141TIP3    H263839   6.491   3.759  16.385 -0.3206  0.8046  0.4890
14142TIP3   OH263840   1.524   1.683   0.963 -0.5531 -0.3203 -0.3656
14142TIP3    H163841   1.467   1.639   1.026 -2.2385  2.9780  0.6025
14142TIP3    H263842   1.488   1.660   0.878 -1.6725 -0.4290  0.1248
14143TIP3   OH263843   5.252   1.324  13.207  0.3919  0.1118 -0.1131
14143TIP3    H163844   5.273   1.296  13.296  0.3215  2.5013  0.7183
14143TIP3    H263845   5.203   1.405  13.219 -0.9121 -0.2850 -2.3094
14144TIP3   OH263846   2.010   2.538   5.184  0.3103 -0.2276  0.5405
14144TIP3    H163847   1.966   2.469   5.233 -0.0302  1.3247  2.5368
14144TIP3    H263848   1.946   2.565   5.118 -0.8111  0.3103  1.8101
14145TIP3   OH263849   5.535   1.837  11.460 -0.0805  0.3815  0.1444
14145TIP3    H163850   5.538   1.931  11.441  0.9153  0.0405 -1.7002
14145TIP3    H263851   5.554   1.830  11.553  3.4331  1.9018 -0.2957
14146TIP3   OH263852   1.987   0.954  12.219 -0.1169 -0.5198 -0.7370
14146TIP3    H163853   1.913   0.905  12.255 -0.1060 -1.1433 -1.5421
14146TIP3    H263854   1.948   1.011  12.153 -0.0250  0.0022 -0.3483
14147TIP3   OH263855   0.898   1.327   0.914  0.1421  0.5566  0.4787
14147TIP3    H163856   0.914   1.411   0.957  0.0201  0.8482 -0.0350
14147TIP3    H263857   0.870   1.269   0.985  2.2636  0.3450  1.1960
14148TIP3   OH263858   4.751   6.521  16.859 -0.0162  0.3032 -0.3669
14148TIP3    H163859   4.811   6.563  16.920 -0.5708  0.1104  0.3387
14148TIP3    H263860   4.798   6.444  16.828  0.6760  0.9765 -1.0127
14149TIP3   OH263861   0.257   5.032  15.157 -0.3419 -0.2062 -0.3355
14149TIP3    H163862   0.214   4.999  15.078  0.0283 -0.9746 -0.2202
14149TIP3    H263863   0.194   5.018  15.227 -0.4338 -0.0719 -0.3891
14150TIP3   OH263864   2.251   0.014  12.251 -0.6025  0.0054 -0.4838
14150TIP3    H163865   2.289   0.012  12.163 -0.3503 -1.1207 -0.3690
14150TIP3    H263866   2.169   0.062  12.241 -0.3417  0.3029 -1.2343
14151TIP3   OH263867   6.533   2.559   3.118 -0.2131 -0.2856 -0.0071
14151TIP3    H163868   6.475   2.530   3.188 -0.8111  0.9262  0.0218
14151TIP3    H263869   6.572   2.479   3.085  1.3289 -0.8121  2.7583
14152TIP3   OH263870   5.411   2.183   3.983  0.1353  0.2957 -0.1298
14152TIP3    H163871   5.344   2.172   3.916 -0.5238 -0.0242  0.5611
14152TIP3    H263872   5.476   2.115   3.964  0.4309  0.8049 -0.9854
14153TIP3   OH263873   1.509   1.811  11.557  0.2704 -0.2840 -0.5290
14153TIP3    H163874   1.509   1.902  11.526 -0.8061 -0.1851 -0.2914
14153TIP3    H263875   1.534   1.760  11.480 -4.3626 -0.2221 -2.3808
14154TIP3   OH263876   1.703   4.037   5.558 -0.4783  0.3015  0.0216
14154TIP3    H163877   1.744   4.063   5.476  0.2417  1.6404  0.7665
14154TIP3    H263878   1.776   4.008   5.613 -0.9208 -0.3631  0.2612
14155TIP3   OH263879   6.280   3.113  15.708  0.2013 -0.0534 -0.1040
14155TIP3    H163880   6.215   3.160  15.655 -1.4833 -2.1102  0.0062
14155TIP3    H263881   6.320   3.050  15.647  0.7518 -0.0791  0.2745
14156TIP3   OH263882   1.523   0.102  14.574 -0.5623  0.0547 -0.0383
14156TIP3    H163883   1.450   0.099  14.635 -0.9893  1.9040 -0.3940
14156TIP3    H263884   1.569   0.019  14.587 -1.1278  0.0369  2.1520
14157TIP3   OH263885   0.582   3.608   0.463  0.0314 -0.5611 -0.1355
14157TIP3    H163886   0.528   3.670   0.414  0.5053  0.3197  0.4257
14157TIP3    H263887   0.525   3.576   0.533  1.1805  3.2630  2.8780
14158TIP3   OH263888   2.772   1.801  17.058  0.4450  0.7675  0.4107
14158TIP3    H163889   2.798   1.714  17.027  0.5594 -0.9823  4.6675
14158TIP3    H263890   2.810   1.862  16.995  1.5165 -2.1908 -2.0472
14159TIP3   OH263891   0.667   1.011  16.119  0.4659  0.4383  0.0867
14159TIP3    H163892   0.643   1.102  16.100 -2.4175 -0.0067  1.1678
14159TIP3    H263893   0.602   0.959  16.072  2.0380 -1.1258 -0.4787
14160TIP3   OH263894   6.479   5.496  14.937 -0.5603 -0.6311 -0.0067
14160TIP3    H163895   6.489   5.478  15.031 -3.0696 -0.7327  0.3079
14160TIP3    H263896   6.482   5.591  14.930 -3.3858 -0.3937  0.7062
14161TIP3   OH263897   6.657   0.898   0.055  0.3569  0.0365  0.7547
14161TIP3    H163898   6.703   0.824   0.015 -0.0627  0.3095 -0.2609
14161TIP3    H263899   6.588   0.920  -0.007  0.5935  1.4151  0.9521
14162TIP3   OH263900   4.456   1.974  16.525 -0.2692  0.2784  0.8332
14162TIP3    H163901   4.518   1.941  16.591 -0.7034 -0.8548  0.6855
14162TIP3    H263902   4.390   1.905  16.517  0.1972  0.0096 -1.3714
14163TIP3   OH263903   0.333   5.164  11.306  0.1098 -0.3685 -0.7054
14163TIP3    H163904   0.277   5.162  11.228 -0.5384  0.3201 -0.2724
14163TIP3    H263905   0.355   5.073  11.323 -2.3731 -0.8842  0.1518
14164TIP3   OH263906   5.029   4.859  14.871 -0.0966  0.5220  0.2389
14164TIP3    H163907   5.105   4.802  14.884  1.0902  1.4274 -2.1465
14164TIP3    H263908   5.001   4.841  14.782 -1.7412  1.3481  0.5576
14165TIP3   OH263909   5.078   1.471   6.545 -0.1165  0.4284  0.3526
14165TIP3    H163910   5.026   1.551   6.548  2.8115  2.5119 -0.3980
14165TIP3    H263911   5.111   1.461   6.635 -1.8749 -1.0692  0.9088
14166TIP3   OH263912   2.457   2.665  14.733 -0.0686 -0.0985 -0.3966
14166TIP3    H163913   2.417   2.653  14.647  0.3551  0.4136 -0.6679
14166TIP3    H263914   2.549   2.642  14.721  0.1183  0.5311 -0.2239
14167TIP3   OH263915   4.420   6.408  12.561  0.4637  0.1168 -0.3100
14167TIP3    H163916   4.505   6.372  12.585 -0.0291 -0.1003  1.2257
14167TIP3    H263917   4.401   6.472  12.630 -0.6609  0.0773 -0.5637
14168TIP3   OH263918   5.592   1.272   4.277 -0.5299 -0.0490 -0.8678
14168TIP3    H163919   5.556   1.295   4.191 -1.4573  1.0539 -0.2235
14168TIP3    H263920   5.597   1.355   4.323 -0.3541 -0.6694  0.2552
14169TIP3   OH263921   5.274   5.408   1.641  0.0312  0.9942 -0.4984
14169TIP3    H163922   5.237   5.327   1.676 -0.2411  1.1261 -0.4791
14169TIP3    H263923   5.218   5.430   1.567  0.3572  0.9402 -0.7646
14170TIP3   OH263924   0.598   0.546   1.326  0.6368 -0.2881 -0.1719
14170TIP3    H163925   0.683   0.587   1.338  1.0487 -1.4917  1.3048
14170TIP3    H263926   0.589   0.486   1.400 -2.1509  0.8604  0.5584
14171TIP3   OH263927   5.952   4.872   3.292 -0.1394 -0.4534 -0.2347
14171TIP3    H163928   5.986   4.951   3.250  1.8830 -0.9259  0.3864
14171TIP3    H263929   5.996   4.800   3.247  0.8812 -1.0315  1.5673
14172TIP3   OH263930   4.701   1.762   5.394  0.1648  0.5917  0.1214
14172TIP3    H163931   4.755   1.823   5.344  1.0971  0.2134  0.6294
14172TIP3    H263932   4.718   1.784   5.485  1.0730 -0.8451  0.3420
14173TIP3   OH263933   1.403   1.421  11.070 -0.5911  0.2066 -0.0917
14173TIP3    H163934   1.325   1.450  11.022 -0.5966  3.2048  1.4696
14173TIP3    H263935   1.469   1.409  11.002 -1.5416  0.8151 -1.1766
14174TIP3   OH263936   2.756   6.527   0.065  0.5112 -0.4449  0.1226
14174TIP3    H163937   2.678   6.513   0.011 -0.4708 -0.1918  1.4062
14174TIP3    H263938   2.829   6.505   0.008 -0.1616  3.3725 -2.6394
14175TIP3   OH263939   1.494   6.131   3.034  0.5200  0.5134 -0.4428
14175TIP3    H163940   1.565   6.092   2.983 -0.5591 -0.8760 -0.9724
14175TIP3    H263941   1.417   6.079   3.010 -0.2415  0.4615  1.8461
14176TIP3   OH263942   3.543   3.088   5.568 -0.0322  0.0323  0.0394
14176TIP3    H163943   3.463   3.136   5.585  1.0015  1.9668 -0.2955
14176TIP3    H263944   3.516   2.996   5.563 -2.1894  0.6332 -0.0134
14177TIP3   OH263945   5.980   1.128  12.267  0.4137  0.5382 -0.8914
14177TIP3    H163946   6.068   1.131  12.304  0.3671 -2.5237 -0.2548
14177TIP3    H263947   5.931   1.196  12.314  1.4835 -0.3018  1.5634
14178TIP3   OH263948   4.595   0.361   5.988 -0.1408  0.0705 -0.3747
14178TIP3    H163949   4.686   0.370   6.017 -0.3976  0.2230  0.4062
14178TIP3    H263950   4.569   0.450   5.964 -0.5086  0.2680  0.7196
14179TIP3   OH263951   2.352   0.397  15.947  0.6283  0.4314  0.1233
14179TIP3    H163952   2.420   0.461  15.928 -0.2744  1.7687  1.2162
14179TIP3    H263953   2.316   0.424  16.031  0.3264 -1.6315  0.7147
14180TIP3   OH263954   4.734   5.887   1.418 -0.4874 -0.3942  0.0680
14180TIP3    H163955   4.726   5.830   1.495  0.8413 -0.7376 -0.0149
14180TIP3    H263956   4.782   5.834   1.354  0.0019  0.5055 -0.3255
14181TIP3   OH263957   5.474   2.826   2.765 -0.0412  0.4066  0.3584
14181TIP3    H163958   5.426   2.829   2.683 -1.1910 -3.0903  0.7564
14181TIP3    H263959   5.564   2.848   2.741 -0.2620 -0.9125 -1.9280
14182TIP3   OH263960   1.033   0.423   2.383 -0.4945  0.0500 -0.5384
14182TIP3    H163961   0.985   0.383   2.455  0.8738 -0.9343 -0.1206
14182TIP3    H263962   1.032   0.357   2.314  2.6731 -1.2995  0.5288
14183TIP3   OH263963   6.241   5.238  14.336 -0.0851 -0.5377 -0.2855
14183TIP3    H163964   6.218   5.246  14.429  2.3188 -0.4936  0.3725
14183TIP3    H263965   6.198   5.313  14.295  1.1228  1.1377  1.3267
14184TIP3   OH263966   0.663   3.728  12.328  0.0701 -0.0494 -0.2998
14184TIP3    H163967   0.731   3.703  12.391 -1.7420 -0.7122  1.5107
14184TIP3    H263968   0.628   3.810  12.363 -1.6613 -0.9581  0.1754
14185TIP3   OH263969   0.898   6.196   3.961  0.4929 -0.1017 -0.0467
14185TIP3    H163970   0.914   6.290   3.956 -1.2505  0.1689 -0.9754
14185TIP3    H263971   0.911   6.165   3.871 -0.6545 -0.4463 -0.0986
14186TIP3   OH263972   4.336   0.351   4.338 -0.2743 -0.3209  0.5207
14186TIP3    H163973   4.320   0.441   4.366  1.1976  0.0199  0.3513
14186TIP3    H263974   4.275   0.337   4.265 -1.3427  0.1169  1.3062
14187TIP3   OH263975   4.848   2.096  16.698 -0.0167  0.1401 -0.1505
14187TIP3    H163976   4.865   2.078  16.606  1.4727  0.2844  0.0844
14187TIP3    H263977   4.759   2.063  16.713  0.9450 -3.0565 -0.7959
14188TIP3   OH263978   5.108   2.776   4.824 -0.1211 -0.3911 -0.2891
14188TIP3    H163979   5.075   2.835   4.756 -0.1932 -1.7430 -1.4881
14188TIP3    H263980   5.184   2.734   4.783  0.3271 -0.6430  0.7781
14189TIP3   OH263981   3.199   5.768   5.513  0.0315  0.3029  0.0286
14189TIP3    H163982   3.291   5.797   5.513 -0.6850  2.9192 -1.4855
14189TIP3    H263983   3.149   5.848   5.529 -2.1162 -0.3049 -2.8655
14190TIP3   OH263984   3.785   2.930  16.855 -0.2552 -0.2215  0.0761
14190TIP3    H163985   3.795   3.025  16.851 -1.2737 -0.1366 -1.2786
14190TIP3    H263986   3.727   2.909  16.782 -0.1595 -1.8785  0.4336
14191TIP3   OH263987   2.269   0.465  16.850 -0.0089  0.0915 -0.2012
14191TIP3    H163988   2.261   0.558  16.829 -1.0752  0.1115  0.2663
14191TIP3    H263989   2.364   0.451  16.856  0.2230  0.8137 -1.6821
14192TIP3   OH263990   0.688   3.875   3.161 -0.0396 -0.0590 -0.0225
14192TIP3    H163991   0.702   3.927   3.082  0.3418  1.9141  1.2618
14192TIP3    H263992   0.736   3.922   3.229 -0.7302 -1.4369  1.4763
14193TIP3   OH263993   0.890   2.284   1.187  0.5960 -0.2272 -0.0607
14193TIP3    H163994   0.938   2.367   1.188  1.6700 -0.8240 -0.5560
14193TIP3    H263995   0.924   2.236   1.263 -0.2974 -0.0728  0.4477
14194TIP3   OH263996   0.412   0.541  13.344 -0.0368  0.2529 -0.3597
14194TIP3    H163997   0.385   0.633  13.342 -0.0607  0.2630 -2.4244
14194TIP3    H263998   0.506   0.544  13.364  0.0146  0.7642 -0.6411
14195TIP3   OH263999   3.019   4.892   4.431  0.0204  0.0647 -0.7300
14195TIP3    H164000   3.093   4.952   4.424  0.5550 -0.6424 -1.2006
14195TIP3    H264001   3.038   4.840   4.510 -0.0352 -0.0422 -0.7874
14196TIP3   OH264002   5.935   5.168   3.358  0.4142  0.7442 -0.4247
14196TIP3    H164003   5.958   5.149   3.449 -0.8713 -0.6654 -0.3639
14196TIP3    H264004   5.850   5.211   3.364 -0.0348 -0.0549 -0.9930
14197TIP3   OH264005   5.609   1.864  10.796 -0.0412  0.6225 -0.0714
14197TIP3    H164006   5.677   1.798  10.792 -2.3393 -1.9371  0.2312
14197TIP3    H264007   5.643   1.931  10.856  1.9061 -0.8526  0.5537
14198TIP3   OH264008   4.060   5.911  14.215  0.0762  0.0605 -0.9667
14198TIP3    H164009   3.997   5.923  14.144  0.2670  0.8053 -1.0245
14198TIP3    H264010   4.016   5.946  14.292 -1.0620 -2.8688 -0.1754
14199TIP3   OH264011   1.446   0.629  15.271  0.8704 -0.6584 -0.0974
14199TIP3    H164012   1.407   0.640  15.184  0.4287  1.4954  0.3182
14199TIP3    H264013   1.411   0.702  15.322  4.4221  0.6817  0.6790
14200TIP3   OH264014   4.402   2.339  17.153 -0.3467  0.2950 -0.1355
14200TIP3    H164015   4.366   2.422  17.184 -4.9188 -1.7553  0.7515
14200TIP3    H264016   4.368   2.330  17.064 -1.6115 -1.4479  0.4847
14201TIP3   OH264017   2.594   1.853   1.002 -0.6857 -0.3975  0.3695
14201TIP3    H164018   2.502   1.868   1.027 -0.9056 -0.4062 -0.4256
14201TIP3    H264019   2.597   1.874   0.909 -0.2059 -1.8365  0.0355
14202TIP3   OH264020   1.170   5.742  11.403  0.2020  0.7429  0.4444
14202TIP3    H164021   1.230   5.776  11.469 -0.0205  2.0388  0.0111
14202TIP3    H264022   1.159   5.814  11.341 -1.9414  0.6303  0.6027
14203TIP3   OH264023   2.271   0.381   0.063 -0.0945  0.3773 -0.7714
14203TIP3    H164024   2.208   0.315   0.035 -0.9965  1.4518 -1.3750
14203TIP3    H264025   2.237   0.464   0.028  1.2176  1.1146 -0.4033
14204TIP3   OH264026   0.852   4.687   2.191 -0.0360  0.1348  0.5771
14204TIP3    H164027   0.831   4.748   2.120  0.1612 -0.1812  0.2448
14204TIP3    H264028   0.840   4.739   2.271 -0.3393  0.4696  0.3202
14205TIP3   OH264029   1.284   4.063  12.326  0.4247 -0.7404  0.5476
14205TIP3    H164030   1.367   4.074  12.371  1.2524 -0.1431 -1.0638
14205TIP3    H264031   1.252   4.152  12.313 -1.0948 -0.9757  2.1756
14206TIP3   OH264032   1.044   0.240   5.815  0.7034 -0.0462  0.2370
14206TIP3    H164033   0.978   0.176   5.841  1.7748 -1.1905  0.2505
14206TIP3    H264034   1.017   0.268   5.727  0.3635 -0.7228  0.1190
14207TIP3   OH264035   4.482   6.433  13.464  0.3598  0.4347  0.3336
14207TIP3    H164036   4.555   6.385  13.503 -0.7196 -0.1616  1.6908
14207TIP3    H264037   4.404   6.397  13.506 -0.9424 -0.4464 -2.5731
14208TIP3   OH264038   0.862   2.045  16.732  0.5201 -0.5281 -0.1742
14208TIP3    H164039   0.779   2.002  16.754  0.1106 -0.3036 -1.2290
14208TIP3    H264040   0.836   2.124  16.685  1.3455 -1.7062 -2.7765
14209TIP3   OH264041   3.380   2.771  11.388 -0.0849 -0.1981  0.6817
14209TIP3    H164042   3.466   2.732  11.401  0.2724  0.5388  0.5737
14209TIP3    H264043   3.346   2.729  11.309  1.4746  1.6331 -1.0895
14210TIP3   OH264044   5.604   3.877   0.312  0.1838 -0.0420  0.3290
14210TIP3    H164045   5.542   3.924   0.255  1.5860 -1.4664 -2.5938
14210TIP3    H264046   5.630   3.941   0.378 -0.4529  2.2465 -1.5112
14211TIP3   OH264047   5.544   6.621  14.673  0.1568 -0.0485  0.0728
14211TIP3    H164048   5.474   6.674  14.712  1.7221  1.8575  0.4429
14211TIP3    H264049   5.595   6.590  14.749  0.6195 -0.1106 -0.2617
14212TIP3   OH264050   0.618   4.177   0.619  0.5238 -0.4365 -0.0635
14212TIP3    H164051   0.549   4.148   0.559  0.0093  2.8930 -1.2634
14212TIP3    H264052   0.590   4.144   0.704 -1.3797 -1.0704 -0.8749
14213TIP3   OH264053   2.019   5.206  14.364  0.0987 -0.2640  0.2615
14213TIP3    H164054   2.083   5.259  14.411  0.2969 -0.6174  0.3919
14213TIP3    H264055   2.061   5.120  14.354 -0.1660 -0.3596 -0.0630
14214TIP3   OH264056   5.283   5.897  12.599  0.1115 -0.6955 -0.1899
14214TIP3    H164057   5.357   5.845  12.567 -0.2054 -2.8622  2.3025
14214TIP3    H264058   5.245   5.845  12.669 -2.6119  1.2607 -0.0583
14215TIP3   OH264059   6.091   1.871  13.665  0.4663 -0.0729 -0.1956
14215TIP3    H164060   6.047   1.790  13.640  0.0315 -0.3915  1.5004
14215TIP3    H264061   6.184   1.851  13.657  0.3506 -0.4752 -0.5473
14216TIP3   OH264062   1.015   6.253  12.586  0.2779  0.1654  0.1932
14216TIP3    H164063   0.985   6.177  12.536  1.4242 -1.3853  1.7247
14216TIP3    H264064   0.962   6.251  12.666  1.9708 -0.5557  1.3613
14217TIP3   OH264065   0.765   2.212  13.950 -0.3337 -0.3151  0.1075
14217TIP3    H164066   0.799   2.204  13.860  1.3786 -1.6097  0.8113
14217TIP3    H264067   0.671   2.199  13.941 -0.0289 -1.8054 -1.3679
14218TIP3   OH264068   5.347   4.036  14.633 -0.4737  0.2547 -0.4430
14218TIP3    H164069   5.431   3.997  14.609  0.1952  1.5194 -0.2007
14218TIP3    H264070   5.303   3.967  14.684  0.6268 -0.2451 -0.1386
14219TIP3   OH264071   0.959   0.133   5.248 -0.2843  0.2958 -0.0504
14219TIP3    H164072   0.965   0.040   5.227 -0.0998  0.5394 -1.1395
14219TIP3    H264073   0.981   0.138   5.341  0.3052 -0.6767 -0.1210
14220TIP3   OH264074   2.857   3.937   0.289  0.5974  0.0222 -0.2559
14220TIP3    H164075   2.851   4.025   0.251 -0.0012 -0.4901 -1.4114
14220TIP3    H264076   2.828   3.948   0.379 -3.1458  0.4258 -1.3461
14221TIP3   OH264077   6.025   4.328   1.261  0.0883  0.3467 -0.1384
14221TIP3    H164078   6.106   4.342   1.310  0.5821  0.4540 -0.9598
14221TIP3    H264079   5.962   4.388   1.300  0.4465  0.3840  0.3985
14222TIP3   OH264080   0.159   0.019   1.772 -0.0778  0.1068  0.0080
14222TIP3    H164081   0.187  -0.051   1.713 -1.9234  1.2316 -2.4014
14222TIP3    H264082   0.063   0.015   1.770 -0.2047  1.2301  1.7145
14223TIP3   OH264083   6.439   5.067   3.011 -0.4090  0.6843  0.1592
14223TIP3    H164084   6.535   5.071   3.014 -0.2187 -1.8971 -0.2685
14223TIP3    H264085   6.410   5.144   3.060  1.8510  2.1648 -0.6751
14224TIP3   OH264086   0.537   6.043  11.974 -0.6944 -0.3193  0.1888
14224TIP3    H164087   0.487   6.102  12.030 -0.6552  0.8761 -0.9748
14224TIP3    H264088   0.627   6.050  12.004 -1.1237 -2.5611  2.3636
14225TIP3   OH264089   3.223   3.018   1.510  0.2539  0.2848 -0.6755
14225TIP3    H164090   3.227   3.112   1.498 -0.0256  0.1991 -1.4766
14225TIP3    H264091   3.153   3.004   1.573  2.0718  0.7725  1.5995
14226TIP3   OH264092   5.313   5.846  14.302 -0.5332 -0.0520  0.0198
14226TIP3    H164093   5.387   5.842  14.241 -1.6484 -1.0026 -1.3473
14226TIP3    H264094   5.292   5.754  14.320 -0.2931  0.2094  1.8084
14227TIP3   OH264095   4.031   0.198  16.934  0.0777 -0.4359 -0.3860
14227TIP3    H164096   3.957   0.198  16.995 -0.5054  0.5331 -1.0722
14227TIP3    H264097   4.014   0.271  16.875  1.5451 -0.2455 -0.6143
14228TIP3   OH264098   6.477   0.198  13.815 -0.4112 -0.4727 -0.0284
14228TIP3    H164099   6.397   0.200  13.763  0.6897 -0.1633 -1.7688
14228TIP3    H264100   6.529   0.272  13.783  0.7786 -0.9413  0.7451
14229TIP3   OH264101   6.260   2.466  11.280  0.1311 -0.1146 -0.1904
14229TIP3    H164102   6.237   2.527  11.209 -2.3681  0.2466  0.8280
14229TIP3    H264103   6.217   2.384  11.256  2.0700 -1.0238 -0.7026
14230TIP3   OH264104   5.102   5.417   3.863  0.1753 -0.3652  0.1342
14230TIP3    H164105   5.187   5.441   3.827  0.4183 -0.2443  0.7754
14230TIP3    H264106   5.121   5.350   3.928 -0.3928 -1.5290 -0.8507
14231TIP3   OH264107   2.474   1.719   4.948 -0.3696 -0.3663  0.0880
14231TIP3    H164108   2.507   1.636   4.982  2.2674 -0.1650 -1.6673
14231TIP3    H264109   2.507   1.785   5.009 -0.4117 -0.4205  0.1694
14232TIP3   OH264110   0.984   0.536  15.574 -0.1574 -0.0916 -0.8944
14232TIP3    H164111   1.041   0.472  15.616 -0.6710  0.6219  0.9601
14232TIP3    H264112   0.997   0.617  15.624 -3.0661 -0.0111 -0.1238
14233TIP3   OH264113   1.056   3.683  13.361  0.1834  0.4264 -0.2478
14233TIP3    H164114   1.028   3.632  13.286  0.4664  1.1228 -0.8384
14233TIP3    H264115   0.983   3.743  13.378 -0.3308 -0.4274  0.7115
14234TIP3   OH264116   2.086   5.717  13.255  0.3028 -0.1768 -0.3178
14234TIP3    H164117   2.040   5.756  13.329  0.5731 -0.0288 -0.2247
14234TIP3    H264118   2.150   5.658  13.295  1.5212  1.0487 -0.3438
14235TIP3   OH264119   1.657   6.643  12.522 -0.3940  0.2297 -0.0172
14235TIP3    H164120   1.647   6.696  12.601  1.7777 -0.1367  0.5894
14235TIP3    H264121   1.617   6.559  12.543 -0.3010  0.3159  0.5179
14236TIP3   OH264122   2.786   1.111  10.956 -0.1420 -0.4857 -0.5637
14236TIP3    H164123   2.751   1.106  11.045  2.2216 -1.8391  0.3608
14236TIP3    H264124   2.720   1.161  10.908 -1.7495 -0.1644  1.7934
14237TIP3   OH264125   1.008   4.443   1.860  0.2902  0.4213 -1.1536
14237TIP3    H164126   1.065   4.505   1.814  0.6179  0.8133 -0.2432
14237TIP3    H264127   0.931   4.436   1.804  0.5998  1.0282 -1.6756
14238TIP3   OH264128   6.193   1.238  16.478 -0.5975 -0.3358 -0.3820
14238TIP3    H164129   6.162   1.163  16.428 -2.3096 -0.1611  0.3497
14238TIP3    H264130   6.264   1.275  16.425 -0.1167 -2.1005 -1.0278
14239TIP3   OH264131   3.673   2.930   4.648  0.1670 -0.3578 -0.0601
14239TIP3    H164132   3.739   2.992   4.679  0.0950 -0.3480  0.0750
14239TIP3    H264133   3.595   2.983   4.631 -0.4311 -0.6153  1.6431
14240TIP3   OH264134   0.721   2.593   5.705 -0.4868  0.1827  0.0079
14240TIP3    H164135   0.779   2.627   5.773  0.1697 -0.5026 -0.2015
14240TIP3    H264136   0.778   2.576   5.630 -0.8907 -0.7914 -0.1027
14241TIP3   OH264137   1.065   6.127   4.301 -0.3883 -0.1169 -0.3905
14241TIP3    H164138   1.064   6.208   4.251  0.6361 -0.1427 -0.4915
14241TIP3    H264139   1.154   6.122   4.337 -1.1019 -0.0774  1.4854
14242TIP3   OH264140   6.177   4.486   4.783 -0.0896 -0.1059  0.6882
14242TIP3    H164141   6.188   4.524   4.870 -0.4018  1.4054  0.0967
14242TIP3    H264142   6.264   4.454   4.758 -0.2305 -1.6600  2.0114
14243TIP3   OH264143   1.972   1.127  15.187  0.4720  0.0016  0.1422
14243TIP3    H164144   1.909   1.054  15.184  0.8728 -0.3214 -0.7091
14243TIP3    H264145   1.923   1.202  15.152 -0.2553  0.4152  1.9268
14244TIP3   OH264146   5.527   2.537  14.136  0.3867 -0.2727  0.2902
14244TIP3    H164147   5.435   2.537  14.107  0.9732 -0.3634 -1.7444
14244TIP3    H264148   5.552   2.629  14.134 -0.3803  0.1053  3.5588
14245TIP3   OH264149   1.658   5.445   5.632 -0.0685  0.3300  0.5039
14245TIP3    H164150   1.608   5.402   5.701 -2.2623  0.5456 -0.8921
14245TIP3    H264151   1.676   5.377   5.568  0.3051  0.5416  0.3786
14246TIP3   OH264152   4.791   3.823  16.681 -0.4913  0.7655 -0.1892
14246TIP3    H164153   4.824   3.787  16.599 -2.0471  3.4833 -2.1979
14246TIP3    H264154   4.704   3.784  16.690 -0.0455 -0.0750  0.6005
14247TIP3   OH264155   1.482   3.894   3.089  0.1307 -0.3698 -0.3227
14247TIP3    H164156   1.474   3.945   3.008 -0.2657 -0.7682 -0.5443
14247TIP3    H264157   1.552   3.831   3.071  2.6747  1.9140  0.9611
14248TIP3   OH264158   1.973   5.905  14.433 -0.3991  0.8254  0.0966
14248TIP3    H164159   1.987   5.843  14.506 -0.5295 -0.5311 -0.9825
14248TIP3    H264160   1.916   5.972  14.470  0.4019  0.7615  1.5491
14249TIP3   OH264161   5.637   5.045  15.632  0.0948 -0.1501  0.1002
14249TIP3    H164162   5.548   5.077  15.647  0.5875  2.4056 -1.8137
14249TIP3    H264163   5.628   4.981  15.562 -0.4317 -1.5613  1.3898
14250TIP3   OH264164   1.720   4.546   1.210 -0.6109  0.4742 -0.2453
14250TIP3    H164165   1.712   4.486   1.284 -0.6071 -1.9560 -2.0851
14250TIP3    H264166   1.799   4.598   1.228  0.6455 -1.5860  0.4571
14251TIP3   OH264167   0.926   2.839  12.059 -0.1777  0.4098 -0.1478
14251TIP3    H164168   0.975   2.774  12.008  0.3266 -0.7752  1.7286
14251TIP3    H264169   0.909   2.910  11.997  0.2750 -0.9876 -1.9784
14252TIP3   OH264170   2.091   1.066  15.697  0.6442  0.5347  0.3112
14252TIP3    H164171   2.182   1.088  15.680  0.6078  2.1542  1.9174
14252TIP3    H264172   2.048   1.151  15.709 -1.2089 -0.1660 -0.9634
14253TIP3   OH264173   6.654   4.576   6.062  0.1541 -0.2246 -0.1041
14253TIP3    H164174   6.726   4.513   6.058  0.8450  0.5853 -1.3768
14253TIP3    H264175   6.675   4.640   5.993 -0.9140  0.9602  0.6222
14254TIP3   OH264176   3.467   0.577  16.195 -0.4677 -0.9291 -0.2557
14254TIP3    H164177   3.388   0.632  16.197 -0.3174 -0.6859 -0.7176
14254TIP3    H264178   3.458   0.526  16.115 -1.3646 -2.7482  0.9469
14255TIP3   OH264179   1.535   0.151  17.064  0.5222 -0.1964 -0.2571
14255TIP3    H164180   1.582   0.071  17.087 -0.3667 -0.7300 -0.2426
14255TIP3    H264181   1.450   0.143  17.107 -0.6081 -0.5103 -2.4026
14256TIP3   OH264182   1.437   1.202   3.610  0.1547  0.1971 -0.0212
14256TIP3    H164183   1.501   1.220   3.679  0.1898  1.4654 -0.3582
14256TIP3    H264184   1.386   1.283   3.604 -2.0870 -1.0617  0.8635
14257TIP3   OH264185   2.591   6.396   4.135 -0.0626 -0.4852 -0.0019
14257TIP3    H164186   2.541   6.315   4.132  0.8653 -1.0593 -0.5511
14257TIP3    H264187   2.681   6.370   4.114  0.5811  0.4459  1.4254
14258TIP3   OH264188   6.550   3.905  14.124 -0.1504  0.2882  0.8426
14258TIP3    H164189   6.586   3.982  14.168  1.5052 -0.6618  1.2717
14258TIP3    H264190   6.475   3.937  14.075  2.0779  2.7973 -1.2954
14259TIP3   OH264191   1.054   4.415   4.590  0.2320  0.1753 -0.4114
14259TIP3    H164192   1.109   4.493   4.597 -0.8769  0.8678  1.1225
14259TIP3    H264193   1.079   4.360   4.664 -0.6841  0.2206 -0.0553
14260TIP3   OH264194   1.032   4.416   1.199 -0.4485 -0.0967  0.1324
14260TIP3    H164195   1.061   4.328   1.220  0.4783  0.0481 -0.5014
14260TIP3    H264196   0.999   4.410   1.109  0.5819  0.4027 -0.2995
14261TIP3   OH264197   1.321   5.520  16.496  0.2749 -0.5491  0.3627
14261TIP3    H164198   1.249   5.550  16.441 -0.0656 -0.6230  0.7670
14261TIP3    H264199   1.325   5.425  16.483 -0.1815 -0.6494  0.9017
14262TIP3   OH264200   2.286   3.455  14.297 -0.1141 -0.6761  0.3161
14262TIP3    H164201   2.202   3.496  14.320  0.4992  1.5810 -1.1116
14262TIP3    H264202   2.262   3.367  14.268 -1.7876 -0.6329  1.4061
14263TIP3   OH264203   0.063   0.387  11.899  0.7184 -0.1072 -0.3719
14263TIP3    H164204   0.141   0.351  11.940  0.4694  1.7668  1.9218
14263TIP3    H264205   0.004   0.312  11.890  2.6631 -1.5445 -2.1026
14264TIP3   OH264206   2.644   3.747   3.854  0.3094 -0.9224 -0.3199
14264TIP3    H164207   2.647   3.749   3.758 -1.9053 -1.1764 -0.4303
14264TIP3    H264208   2.631   3.655   3.876  0.4017 -0.8124  0.2122
14265TIP3   OH264209   5.963   3.558   3.591  0.0168  0.3522  0.0504
14265TIP3    H164210   6.029   3.574   3.523 -0.8332 -0.4716 -1.0128
14265TIP3    H264211   5.899   3.628   3.579 -0.0210  0.3365  0.1576
14266TIP3   OH264212   3.793   0.976  11.785 -0.1010 -0.5210  0.2838
14266TIP3    H164213   3.888   0.981  11.789 -0.0599  0.7172 -1.0811
14266TIP3    H264214   3.774   0.963  11.692 -1.2736  0.5334  0.3419
14267TIP3   OH264215   3.195   1.134   6.536  0.5036 -0.4488  0.2171
14267TIP3    H164216   3.214   1.066   6.601  1.2594 -0.7229 -0.2759
14267TIP3    H264217   3.101   1.123   6.518  0.7629 -1.8883 -0.4201
14268TIP3   OH264218   0.956   2.666  14.746  0.5143  0.7394  0.3850
14268TIP3    H164219   0.909   2.585  14.765  1.0283  0.0373 -1.1907
14268TIP3    H264220   0.995   2.691  14.829  1.4834 -1.3883  0.6389
14269TIP3   OH264221   1.686   6.106  15.588  0.2710  0.6908  0.0006
14269TIP3    H164222   1.607   6.055  15.570 -1.4516  3.2741 -0.3753
14269TIP3    H264223   1.724   6.122  15.502 -0.3472  1.6923 -0.1017
14270TIP3   OH264224   0.299   3.410   5.001  0.3796  0.2238  0.1631
14270TIP3    H164225   0.274   3.346   5.068  3.0331 -0.7409  0.3626
14270TIP3    H264226   0.329   3.486   5.050  0.0728  0.4407  0.0129
14271TIP3   OH264227   1.282   3.503   2.058 -0.3672  0.3413 -0.2904
14271TIP3    H164228   1.340   3.576   2.081 -1.3694  0.5847  1.6349
14271TIP3    H264229   1.265   3.515   1.964  1.7849  0.8805 -0.6660
14272TIP3   OH264230   4.856   2.501  16.241 -0.3808 -0.7344 -0.1749
14272TIP3    H164231   4.769   2.541  16.252 -0.1242  0.5159 -2.1561
14272TIP3    H264232   4.904   2.524  16.320 -1.6981 -1.0874  0.7629
14273TIP3   OH264233   6.526   2.147  16.581  0.3122  0.0336 -0.4753
14273TIP3    H164234   6.599   2.091  16.606 -0.9215 -1.2577  0.3452
14273TIP3    H264235   6.448   2.093  16.593 -0.8825  1.6986 -0.3165
14274TIP3   OH264236   3.266   5.093   2.681 -0.0414  0.3191 -0.1456
14274TIP3    H164237   3.184   5.132   2.652  0.7662  1.8767 -0.4719
14274TIP3    H264238   3.333   5.157   2.656  1.1803 -0.4826  0.9297
14275TIP3   OH264239   2.601   1.168   0.559 -0.0775 -0.5394 -0.1849
14275TIP3    H164240   2.530   1.174   0.623  0.1494 -2.7719  0.3406
14275TIP3    H264241   2.658   1.242   0.580 -0.9294 -0.1923  1.0356
14276TIP3   OH264242   4.084   3.675  12.187  0.1973  0.0143  0.0561
14276TIP3    H164243   4.125   3.709  12.107 -1.0170 -0.3265 -0.7373
14276TIP3    H264244   4.151   3.685  12.255  0.5161  2.2947 -0.5243
14277TIP3   OH264245   4.361   0.271   3.369 -0.4069  0.2825 -0.1658
14277TIP3    H164246   4.294   0.338   3.363 -1.0319 -0.2640  0.5016
14277TIP3    H264247   4.321   0.192   3.332  0.9471  0.6653 -2.7214
14278TIP3   OH264248   6.066   0.068   2.901  0.4734 -0.2070  0.6203
14278TIP3    H164249   6.150   0.073   2.854  0.7985  0.7695  1.2747
14278TIP3    H264250   6.086   0.018   2.980  0.2339 -0.7244  0.3522
14279TIP3   OH264251   1.367   6.299  12.777  1.0853 -0.5900 -0.5158
14279TIP3    H164252   1.448   6.345  12.754  1.7286 -1.1699  0.5480
14279TIP3    H264253   1.374   6.215  12.731  0.5720 -0.2178 -1.2984
14280TIP3   OH264254   5.676   4.399  12.765  0.2229 -0.2110 -0.0119
14280TIP3    H164255   5.709   4.310  12.753  1.2583  0.0502  0.7812
14280TIP3    H264256   5.582   4.392  12.748  0.3310 -1.4057 -0.1998
14281TIP3   OH264257   3.663   6.298   3.128 -0.0694 -0.3008 -0.8316
14281TIP3    H164258   3.603   6.226   3.109 -2.7948  1.1559  1.5431
14281TIP3    H264259   3.732   6.259   3.182 -1.8373 -1.0993  0.9479
14282TIP3   OH264260   1.365   5.731  16.934 -0.2705 -0.3617 -0.1614
14282TIP3    H164261   1.322   5.755  17.017  1.2689  1.2239  0.2248
14282TIP3    H264262   1.411   5.649  16.954 -3.2040 -2.3258 -0.6789
14283TIP3   OH264263   6.615   5.021  15.476 -0.3834  0.0786  0.4147
14283TIP3    H164264   6.612   4.928  15.458 -0.4990 -0.0286  0.9700
14283TIP3    H264265   6.646   5.028  15.567 -2.5210  0.4622  1.1964
14284TIP3   OH264266   0.679   6.581  16.100  0.9173 -0.8759 -0.4364
14284TIP3    H164267   0.731   6.502  16.084  1.4217 -0.2120 -2.4447
14284TIP3    H264268   0.730   6.651  16.059  0.0330  0.3484  0.5046
14285TIP3   OH264269   2.626   6.020  13.992 -0.1734 -0.3094  0.0757
14285TIP3    H164270   2.601   5.983  14.077  0.0399  2.4808  1.4651
14285TIP3    H264271   2.544   6.055  13.957 -0.0200 -0.2604 -0.2350
14286TIP3   OH264272   0.042   1.137   3.618  0.2452  0.4150  0.0029
14286TIP3    H164273  -0.020   1.067   3.637 -0.0994  0.5062 -0.7426
14286TIP3    H264274   0.119   1.116   3.670 -0.2328  0.0390  0.5697
14287TIP3   OH264275   4.298   4.681   3.713 -0.3424 -0.1409 -0.3732
14287TIP3    H164276   4.350   4.616   3.665  0.2210  0.2797 -0.3417
14287TIP3    H264277   4.311   4.763   3.664  0.5468  0.3771  0.7087
14288TIP3   OH264278   4.984   4.087   1.168 -0.5097 -0.5859 -0.0621
14288TIP3    H164279   4.906   4.100   1.114 -1.0709  0.7977  1.0115
14288TIP3    H264280   5.016   4.000   1.145 -2.9143 -1.5784  0.1496
14289TIP3   OH264281   1.979   0.954   5.612  0.1710  0.4758 -0.2452
14289TIP3    H164282   2.006   0.870   5.574  0.0480  1.3191 -2.3323
14289TIP3    H264283   1.970   0.937   5.705  1.5792 -1.4606 -0.4183
14290TIP3   OH264284   0.286   3.903  15.234 -0.0090  0.2604 -0.1649
14290TIP3    H164285   0.233   3.978  15.261 -1.1432 -0.4091 -0.4882
14290TIP3    H264286   0.249   3.829  15.282 -1.6584 -0.8526 -2.9248
14291TIP3   OH264287   6.539   3.281  16.106  0.5191  0.2537 -0.7847
14291TIP3    H164288   6.578   3.194  16.101 -0.3700 -0.1519 -0.9355
14291TIP3    H264289   6.446   3.264  16.122  0.1269  1.1410 -1.9911
14292TIP3   OH264290   0.094   2.286   5.201  0.3004 -0.3781  0.1067
14292TIP3    H164291   0.101   2.267   5.107  1.2013 -2.2884  0.5319
14292TIP3    H264292   0.100   2.201   5.244  1.6125  0.6090  2.0119
14293TIP3   OH264293   3.317   4.999   1.171 -0.1835  0.0957 -0.0452
14293TIP3    H164294   3.405   4.984   1.205 -0.3097  0.1765  0.3214
14293TIP3    H264295   3.261   5.005   1.249 -0.6672 -0.8928 -0.2938
14294TIP3   OH264296   0.489   6.588   4.743  0.0229  0.4034  0.2567
14294TIP3    H164297   0.447   6.571   4.828  0.1147  1.0449  0.4384
14294TIP3    H264298   0.419   6.576   4.679 -0.4840  1.5638  0.5640
14295TIP3   OH264299   4.122   2.000   0.490 -0.1563  0.1279 -0.1508
14295TIP3    H164300   4.163   1.950   0.560 -0.5173 -1.8008 -1.2431
14295TIP3    H264301   4.029   1.997   0.509 -0.3604 -1.3007 -1.2016
14296TIP3   OH264302   5.513   6.272  14.773 -0.3250 -0.5594 -0.5744
14296TIP3    H164303   5.452   6.207  14.809 -1.6845  1.0935  0.2125
14296TIP3    H264304   5.462   6.318  14.707  0.2766  0.4172 -0.3714
14297TIP3   OH264305   1.678   4.264  11.235 -0.7829 -0.0152 -0.1649
14297TIP3    H164306   1.719   4.341  11.195  0.1225  0.5478  1.7044
14297TIP3    H264307   1.749   4.201  11.243 -0.6170  0.3426  1.5824
14298TIP3   OH264308   4.510   1.664  11.227  0.1054 -0.6786  0.0546
14298TIP3    H164309   4.568   1.628  11.293  0.5369 -1.2537 -0.6277
14298TIP3    H264310   4.545   1.633  11.144 -0.6854 -0.3348 -0.4242
14299TIP3   OH264311   5.579   6.617  12.786 -0.5063 -0.0242  0.3424
14299TIP3    H164312   5.488   6.638  12.765 -0.7243  0.5235  1.7535
14299TIP3    H264313   5.625   6.701  12.785  0.3783 -0.4401 -1.9067
14300TIP3   OH264314   2.262   2.881   5.920 -0.3961  0.4123  0.0937
14300TIP3    H164315   2.188   2.871   5.860 -0.8391  0.3075  0.6456
14300TIP3    H264316   2.300   2.794   5.926 -0.8173  0.2518  0.5436
14301TIP3   OH264317   1.174   4.913   2.510 -0.1635  0.5734 -0.1565
14301TIP3    H164318   1.224   4.926   2.591  0.7485  0.6028 -0.7036
14301TIP3    H264319   1.189   4.821   2.488  0.4518  0.8253 -0.8333
14302TIP3   OH264320   5.514   1.014  15.151  0.4177 -0.1092 -0.2768
14302TIP3    H164321   5.566   0.953  15.099  1.8383  1.3817 -0.7010
14302TIP3    H264322   5.543   1.000  15.241 -2.8361 -3.4856  0.4823
14303TIP3   OH264323   2.403   1.350  15.913 -0.5809 -0.0003  0.0630
14303TIP3    H164324   2.466   1.373  15.981 -0.2111 -4.0805  1.3678
14303TIP3    H264325   2.441   1.384  15.832  2.2195 -0.3889  1.0988
14304TIP3   OH264326   5.034   6.501   2.249  0.3945 -0.2095 -0.2121
14304TIP3    H164327   4.974   6.463   2.314 -2.1706  3.8045  0.1255
14304TIP3    H264328   4.990   6.485   2.165 -0.0148  0.8038 -0.1954
14305TIP3   OH264329   3.931   3.475   4.514 -0.2993 -0.0954  0.0738
14305TIP3    H164330   3.876   3.398   4.532 -0.8096  0.3103  0.2785
14305TIP3    H264331   3.928   3.484   4.419 -0.2281 -0.3345  0.0470
14306TIP3   OH264332   4.261   0.997  17.307  0.1010 -0.0379 -0.3269
14306TIP3    H164333   4.213   0.947  17.373  0.2542  0.3515  0.0818
14306TIP3    H264334   4.306   1.065  17.356  0.0380  0.3936 -0.8596
14307TIP3   OH264335   1.692   4.013  15.582  0.0850 -0.1762  0.2548
14307TIP3    H164336   1.602   4.041  15.602  0.5374  0.0939  2.1362
14307TIP3    H264337   1.702   3.930  15.630  0.1680 -1.3725 -1.7350
14308TIP3   OH264338   6.000   0.377   0.729 -0.2899 -0.2109  0.1623
14308TIP3    H164339   6.011   0.365   0.635  0.7454 -0.8140  0.3432
14308TIP3    H264340   6.069   0.439   0.754 -0.5902 -0.0143  0.5241
14309TIP3   OH264341   1.215   4.257   1.947  0.2190  0.4530 -0.1205
14309TIP3    H164342   1.150   4.323   1.972 -0.6271 -0.2171 -0.5031
14309TIP3    H264343   1.206   4.249   1.852  1.4894  0.9744 -0.3097
14310TIP3   OH264344   4.944   5.304  13.392  0.1956 -0.2270 -0.0111
14310TIP3    H164345   5.037   5.308  13.371  0.0185 -1.4450 -1.1919
14310TIP3    H264346   4.911   5.231  13.340 -1.7374  1.1256 -0.7961
14311TIP3   OH264347   6.717   4.950   1.511 -0.0365 -0.8951  0.5552
14311TIP3    H164348   6.739   4.884   1.576  0.2445 -1.0033  0.3522
14311TIP3    H264349   6.622   4.955   1.513 -0.0596 -1.3026  0.5730
14312TIP3   OH264350   2.365   3.177  15.723 -0.2177  0.1262 -0.0059
14312TIP3    H164351   2.369   3.116  15.798  0.6247 -0.0816 -0.2099
14312TIP3    H264352   2.308   3.133  15.660  0.2480 -0.3671 -0.0807
14313TIP3   OH264353   2.828   5.801  14.514 -0.2363  0.1277  0.2269
14313TIP3    H164354   2.777   5.779  14.592 -1.9817  0.3901 -0.7773
14313TIP3    H264355   2.838   5.718  14.467 -2.2165  0.4685 -0.9310
14314TIP3   OH264356   5.091   1.406   5.338 -0.1074 -0.1375  0.2051
14314TIP3    H164357   5.013   1.407   5.283 -0.3796  1.1166  0.5905
14314TIP3    H264358   5.128   1.318   5.325 -2.9406 -1.7417  1.9398
14315TIP3   OH264359   0.565   1.548  17.389  0.1780 -0.5667 -0.1670
14315TIP3    H164360   0.513   1.472  17.364 -0.1891 -1.3392  2.6034
14315TIP3    H264361   0.499   1.616  17.407  0.2957 -0.6469  0.5770
14316TIP3   OH264362   3.902   1.704  15.330  0.2207 -0.6504  0.2973
14316TIP3    H164363   3.982   1.739  15.290  1.5770 -0.8303  2.6697
14316TIP3    H264364   3.897   1.614  15.299  1.5303 -0.9439  0.8565
14317TIP3   OH264365   3.091   3.915  15.230  0.1961 -0.1300  0.0125
14317TIP3    H164366   3.012   3.961  15.203  0.9808  1.6255  0.5323
14317TIP3    H264367   3.088   3.915  15.326  0.0256 -1.5674  0.0312
14318TIP3   OH264368   3.102   6.676   5.403 -0.4222 -0.0377  0.3571
14318TIP3    H164369   3.050   6.736   5.456 -1.0612  0.3840 -0.7030
14318TIP3    H264370   3.039   6.612   5.371 -0.4938  0.8882 -1.5357
14319TIP3   OH264371   5.049   1.407  16.170 -0.0314  0.1349 -0.3380
14319TIP3    H164372   5.091   1.385  16.087  1.5642  0.3855  0.3779
14319TIP3    H264373   5.103   1.366  16.237 -0.2728  1.4029  0.6838
14320TIP3   OH264374   4.785   5.726  16.545 -0.0068 -0.0587  0.0443
14320TIP3    H164375   4.872   5.734  16.506  1.3796  0.8844  3.0839
14320TIP3    H264376   4.798   5.670  16.621 -2.7950 -2.6784 -1.1598
14321TIP3   OH264377   3.319   6.558  16.233  0.6802 -0.0808  0.1388
14321TIP3    H164378   3.258   6.617  16.190  2.1826  1.0691 -0.5427
14321TIP3    H264379   3.404   6.601  16.223  1.4355 -0.9389  2.1911
14322TIP3   OH264380   2.067   0.037   1.871 -0.6110 -0.6088  0.1281
14322TIP3    H164381   2.146   0.090   1.867 -0.2038 -1.1845  0.4612
14322TIP3    H264382   2.096  -0.053   1.855 -1.3934 -0.6609 -1.1112
14323TIP3   OH264383   6.668   3.055   0.172 -0.1550 -0.2589  0.4777
14323TIP3    H164384   6.714   2.991   0.225 -1.1518 -0.6138  0.9265
14323TIP3    H264385   6.639   3.122   0.234 -0.9623 -0.4650  0.3439
14324TIP3   OH264386   4.304   2.811   5.928  0.4013  0.3488  0.0581
14324TIP3    H164387   4.342   2.858   6.002 -0.2246  0.9936 -0.0288
14324TIP3    H264388   4.321   2.867   5.852 -0.2116  0.3605 -0.0691
14325TIP3   OH264389   1.213   5.325   0.976 -0.1597  0.1135 -0.1951
14325TIP3    H164390   1.196   5.388   1.046 -1.1449 -1.6259  1.2220
14325TIP3    H264391   1.133   5.324   0.924 -1.0044 -1.4084  1.0350
14326TIP3   OH264392   2.715   5.479  16.340 -0.5103 -0.0788  0.0474
14326TIP3    H164393   2.768   5.448  16.414 -0.2919  2.5255  1.1066
14326TIP3    H264394   2.733   5.573  16.336 -3.2452  0.4961 -1.0675
14327TIP3   OH264395   1.261   5.765  16.138 -0.3039 -0.4660  0.4252
14327TIP3    H164396   1.183   5.719  16.171  0.5885 -1.6999  0.8647
14327TIP3    H264397   1.335   5.721  16.180  0.6192  1.1218  0.5346
14328TIP3   OH264398   2.225   4.879  14.026  0.0573  0.3141 -0.0058
14328TIP3    H164399   2.144   4.929  14.013  0.2579  0.5194 -0.4926
14328TIP3    H264400   2.227   4.859  14.119 -0.7530 -0.0295 -0.0546
14329TIP3   OH264401   1.927   1.624  16.176  0.3170  0.0234 -0.1846
14329TIP3    H164402   1.841   1.604  16.139 -0.1290 -0.0496  0.8723
14329TIP3    H264403   1.959   1.541  16.210 -0.0183  0.3847  1.0773
14330TIP3   OH264404   3.501   2.268  13.981 -0.0243  0.4335 -0.3956
14330TIP3    H164405   3.444   2.289  13.907 -1.1507  0.1162  0.3707
14330TIP3    H264406   3.492   2.173  13.992  0.3964  0.4293 -0.0472
14331TIP3   OH264407   1.505   6.523  17.248  0.0734 -0.1048  0.3027
14331TIP3    H164408   1.431   6.497  17.193 -0.3692 -1.6900  1.5650
14331TIP3    H264409   1.570   6.556  17.187 -0.7718 -0.8849 -1.0684
14332TIP3   OH264410   3.366   3.198  14.152 -0.9510 -0.0260 -0.4795
14332TIP3    H164411   3.357   3.267  14.086 -2.1064  0.5892  0.2869
14332TIP3    H264412   3.438   3.227  14.208  0.1995 -0.6657 -1.5541
14333TIP3   OH264413   4.800   3.573   1.502  0.5596 -0.1206  0.0107
14333TIP3    H164414   4.799   3.478   1.490  0.2017  0.2212 -4.1159
14333TIP3    H264415   4.745   3.607   1.432 -0.0086  3.1933  1.8373
14334TIP3   OH264416   6.388   3.379   4.281  0.0112  0.6531 -0.3243
14334TIP3    H164417   6.362   3.468   4.259  0.6756  1.0287  0.3203
14334TIP3    H264418   6.308   3.336   4.311 -0.5424  0.6629 -1.7211
14335TIP3   OH264419   3.070   3.238  11.258 -0.3455 -0.0306  0.5031
14335TIP3    H164420   3.104   3.266  11.173  0.8024 -0.3339  0.8413
14335TIP3    H264421   3.080   3.315  11.314 -2.9194  0.8248 -0.0747
14336TIP3   OH264422   0.599   2.608   2.426  0.0731  0.2346  0.1522
14336TIP3    H164423   0.524   2.628   2.369  1.4921  2.1229 -1.1634
14336TIP3    H264424   0.588   2.667   2.501 -0.2923 -0.2744  0.5154
14337TIP3   OH264425   4.519   1.608  13.178 -0.0577  0.1627 -0.2881
14337TIP3    H164426   4.529   1.548  13.252  0.2290 -0.4271 -0.7978
14337TIP3    H264427   4.594   1.589  13.122 -1.1355 -0.5417 -1.5398
14338TIP3   OH264428   5.973   2.193   1.992 -0.0086 -0.5837 -0.2777
14338TIP3    H164429   6.020   2.208   2.074 -0.5888 -0.4569  0.0355
14338TIP3    H264430   5.930   2.276   1.973  0.3735 -0.5184 -0.8763
14339TIP3   OH264431   1.081   1.400   3.157 -0.0862 -0.6041 -0.1008
14339TIP3    H164432   1.041   1.457   3.092 -1.6220 -2.6882 -1.1009
14339TIP3    H264433   1.175   1.406   3.141 -0.2917  0.6438 -0.9679
14340TIP3   OH264434   2.375   4.911   5.558 -0.2543  0.4538 -0.7559
14340TIP3    H164435   2.368   4.844   5.626  0.1233  1.8101  0.6775
14340TIP3    H264436   2.465   4.942   5.565 -0.1608  0.4959 -2.0136
14341TIP3   OH264437   5.239   4.243  12.505 -0.0070 -0.0384 -0.2530
14341TIP3    H164438   5.265   4.215  12.417  0.5988  0.1284 -0.1368
14341TIP3    H264439   5.157   4.198  12.522 -1.2556  1.5304 -1.7458
14342TIP3   OH264440   3.985   2.066   0.831  0.4008 -0.0006 -0.6963
14342TIP3    H164441   3.970   2.048   0.738  1.1746  1.3839 -1.1084
14342TIP3    H264442   3.982   2.161   0.838 -1.2545 -0.1213  0.9991
14343TIP3   OH264443   0.620   2.802  11.541 -0.6486 -0.0764 -0.0457
14343TIP3    H164444   0.692   2.750  11.577 -1.5012 -1.7910 -0.7067
14343TIP3    H264445   0.551   2.738  11.522 -1.4988  1.2108 -1.5477
14344TIP3   OH264446   1.456   0.005   0.191 -0.0891 -0.4837  0.4766
14344TIP3    H164447   1.442   0.092   0.228  1.0432 -0.5182  1.0508
14344TIP3    H264448   1.552  -0.004   0.190 -0.2003 -1.7148  0.4097
14345TIP3   OH264449   4.986   5.421  11.643 -0.0899 -0.3092  0.1996
14345TIP3    H164450   4.949   5.398  11.728 -1.2174  1.2067  0.1655
14345TIP3    H264451   4.910   5.445  11.590  0.7199  0.1460 -0.7894
14346TIP3   OH264452   0.533   4.420   3.206 -0.3398  0.3112 -0.1456
14346TIP3    H164453   0.622   4.424   3.240 -0.1403 -0.5114 -0.5383
14346TIP3    H264454   0.543   4.424   3.111 -0.8074  1.3810 -0.1636
14347TIP3   OH264455   1.108   3.252   0.758  0.0268 -0.5564 -1.3822
14347TIP3    H164456   1.141   3.166   0.734 -2.3960 -1.6714 -1.0516
14347TIP3    H264457   1.049   3.275   0.686  1.1034  1.1607 -1.7743
14348TIP3   OH264458   1.294   2.513  14.867 -0.3197 -0.3489 -0.2853
14348TIP3    H164459   1.256   2.453  14.803 -1.1250  0.9254 -1.0263
14348TIP3    H264460   1.388   2.495  14.862 -0.2312  0.4596 -2.6483
14349TIP3   OH264461   6.554   1.160  13.172  0.2943  0.2674  0.0461
14349TIP3    H164462   6.603   1.183  13.092  1.4802 -0.5028  0.5214
14349TIP3    H264463   6.508   1.079  13.150 -0.0495  0.5035 -0.1130
14350TIP3   OH264464   1.023   5.534  17.320 -0.2705 -0.0242  0.5188
14350TIP3    H164465   1.087   5.510  17.253  1.1019  1.6673  1.1382
14350TIP3    H264466   1.033   5.629  17.330 -1.5666  0.0028  1.9833
14351TIP3   OH264467   2.936   6.506   3.264  0.5326  0.4951 -0.2877
14351TIP3    H164468   2.851   6.468   3.284  1.6184 -1.1023  1.7168
14351TIP3    H264469   2.920   6.600   3.255 -1.5779  0.1008 -1.1635
14352TIP3   OH264470   5.191   6.248  12.483  0.2221  0.0938 -0.4606
14352TIP3    H164471   5.223   6.305  12.553  1.1840  0.5352 -1.2322
14352TIP3    H264472   5.158   6.308  12.416  0.9418 -0.2517 -1.1373
14353TIP3   OH264473   3.450   2.282   3.672 -0.5845 -0.0606 -0.1991
14353TIP3    H164474   3.532   2.300   3.627 -0.8943  3.1364  0.2292
14353TIP3    H264475   3.386   2.270   3.601 -0.5742  2.3248 -0.7185
14354TIP3   OH264476   0.636   0.492  15.361 -0.4922 -0.2839 -0.0768
14354TIP3    H164477   0.708   0.488  15.298  0.2062 -1.7643  0.7590
14354TIP3    H264478   0.669   0.547  15.432 -0.2717 -0.7517  0.1873
14355TIP3   OH264479   2.724   2.536   3.588 -0.5014 -0.0857 -0.5165
14355TIP3    H164480   2.809   2.532   3.632 -0.4616  0.3918 -0.5472
14355TIP3    H264481   2.673   2.465   3.628  0.1048 -0.7550 -0.9159
14356TIP3   OH264482   1.998   3.133  16.132  0.8077  0.5224  0.3565
14356TIP3    H164483   1.978   3.114  16.224 -2.6489 -3.3167 -0.8730
14356TIP3    H264484   1.937   3.203  16.108 -0.2265 -0.3459  0.3958
14357TIP3   OH264485   5.631   1.665   0.213  0.2202  0.4658  0.3290
14357TIP3    H164486   5.565   1.722   0.174  0.8132  0.5883 -0.5165
14357TIP3    H264487   5.711   1.683   0.164  0.2795 -1.5222 -0.4069
14358TIP3   OH264488   6.033   6.693  14.229 -0.4111  0.1442 -0.1847
14358TIP3    H164489   6.056   6.719  14.140 -0.3810  0.6404 -0.0378
14358TIP3    H264490   6.024   6.776  14.276  0.6131 -0.1385  0.5400
14359TIP3   OH264491   6.267   2.237   5.526  0.1181 -0.4696 -0.5217
14359TIP3    H164492   6.339   2.206   5.581  0.3213 -0.4795 -0.7908
14359TIP3    H264493   6.210   2.286   5.586  0.9514  0.5280 -0.5296
14360TIP3   OH264494   6.434   3.118  17.078 -0.1476  0.3571  0.0656
14360TIP3    H164495   6.506   3.058  17.056 -1.9655 -1.4233 -1.4495
14360TIP3    H264496   6.420   3.107  17.172  0.7167 -0.2503  0.1296
14361TIP3   OH264497   5.459   6.205   4.071  0.4380 -0.2912 -0.2230
14361TIP3    H164498   5.391   6.231   4.134 -0.5050 -0.6534 -1.0841
14361TIP3    H264499   5.499   6.288   4.045 -0.3232  0.0252 -0.4293
14362TIP3   OH264500   2.874   0.225   2.863  0.3205 -0.2909  0.0694
14362TIP3    H164501   2.795   0.172   2.876  0.5795 -0.8108 -0.4729
14362TIP3    H264502   2.845   0.315   2.880 -0.5805 -0.3811 -0.8968
14363TIP3   OH264503   2.998   0.281   3.479 -0.3806 -0.5587 -0.9498
14363TIP3    H164504   2.905   0.260   3.488 -0.9224  0.9444 -2.5213
14363TIP3    H264505   3.026   0.232   3.403  0.4898 -2.0194  0.2630
14364TIP3   OH264506   0.349   2.998   4.159 -0.3770  0.3969 -0.2629
14364TIP3    H164507   0.323   2.987   4.250 -1.4138 -0.3141 -0.6313
14364TIP3    H264508   0.395   2.917   4.137  0.9380  1.0522 -0.0457
14365TIP3   OH264509   0.034   5.882   1.594 -0.1916 -0.1885 -0.1089
14365TIP3    H164510   0.123   5.907   1.620 -0.3940  0.8237 -0.3533
14365TIP3    H264511  -0.001   5.834   1.670  0.4318 -0.2831  0.1233
14366TIP3   OH264512   0.923   3.315   2.726  0.4119 -0.0121 -0.2831
14366TIP3    H164513   0.945   3.406   2.746 -0.9747  0.1572  0.6349
14366TIP3    H264514   0.980   3.263   2.784  0.6478  0.2987 -0.2348
14367TIP3   OH264515   2.331   4.783   0.691 -0.3697 -0.1083  0.0404
14367TIP3    H164516   2.378   4.703   0.715  2.4957  1.4750  0.2179
14367TIP3    H264517   2.296   4.816   0.774 -0.5123 -0.5452  0.1564
14368TIP3   OH264518   5.488   6.377   1.595  0.0917 -0.0815  0.1182
14368TIP3    H164519   5.526   6.460   1.568 -1.2971  0.2873 -0.7813
14368TIP3    H264520   5.520   6.314   1.530  0.1671 -0.0222  0.0976
14369TIP3   OH264521   2.843   5.000   0.646 -0.3700 -0.1188  0.1259
14369TIP3    H164522   2.933   5.033   0.636 -0.3674 -0.6007 -2.2450
14369TIP3    H264523   2.797   5.068   0.694  0.6076  1.5036 -1.1241
14370TIP3   OH264524   1.979   4.173   0.541  0.7204  0.1935  0.1550
14370TIP3    H164525   2.057   4.184   0.486  0.8207 -0.5507  0.1315
14370TIP3    H264526   1.906   4.196   0.484  0.9103  0.7075  0.1158
14371TIP3   OH264527   4.260   5.006   5.374  0.8905 -0.1235 -0.5863
14371TIP3    H164528   4.186   4.946   5.367  0.1049  0.9746 -2.4229
14371TIP3    H264529   4.242   5.059   5.451 -0.0447 -0.1128 -0.8108
14372TIP3   OH264530   3.624   1.609   4.260 -0.1822  0.1164  0.0262
14372TIP3    H164531   3.691   1.642   4.320  1.3645 -0.5224 -1.3065
14372TIP3    H264532   3.656   1.523   4.233 -0.7878  0.4425 -1.8189
14373TIP3   OH264533   4.102   2.137   5.229 -0.2448  0.3198 -0.2927
14373TIP3    H164534   4.030   2.180   5.276 -1.3073 -0.2453 -1.3290
14373TIP3    H264535   4.058   2.090   5.157  0.8373 -2.4152  0.6978
14374TIP3   OH264536   1.499   4.060  16.941 -0.4846 -0.0376  0.0489
14374TIP3    H164537   1.588   4.027  16.953 -0.4449  0.4829  1.4005
14374TIP3    H264538   1.483   4.113  17.019 -1.4721  1.0294 -0.8570
14375TIP3   OH264539   1.149   3.191  16.043  0.3611  0.2588 -0.1995
14375TIP3    H164540   1.185   3.213  15.958  1.7268 -0.4195  0.1788
14375TIP3    H264541   1.222   3.198  16.104 -0.2216 -0.7319  0.6722
14376TIP3   OH264542   4.715   4.957   5.220  0.5703 -0.2962 -0.3777
14376TIP3    H164543   4.785   5.008   5.259  0.6592 -0.5783 -0.1636
14376TIP3    H264544   4.758   4.904   5.153  0.6233 -0.7456  0.0106
14377TIP3   OH264545   1.722   2.907  15.429  0.3289  0.1196 -0.0305
14377TIP3    H164546   1.800   2.945  15.389 -1.8619  0.9935 -4.0049
14377TIP3    H264547   1.715   2.950  15.514  2.0700  2.9564 -1.1649
14378TIP3   OH264548   5.978   5.400  11.699 -0.0232 -0.8349 -0.0224
14378TIP3    H164549   5.991   5.384  11.793 -0.8792  0.8961  0.4545
14378TIP3    H264550   6.027   5.480  11.682 -3.0769  1.2531  0.0045
14379TIP3   OH264551   4.366   1.688   2.504 -0.0114  0.2663  0.2606
14379TIP3    H164552   4.409   1.640   2.433 -0.5244  0.7897 -0.4217
14379TIP3    H264553   4.437   1.737   2.546 -0.0203  1.8628 -1.4485
14380TIP3   OH264554   0.463   5.504   2.016  0.3690 -0.0580  0.0418
14380TIP3    H164555   0.544   5.498   2.065  0.0192  0.9388  0.7710
14380TIP3    H264556   0.482   5.565   1.945  0.1013  0.6574  0.5712
14381TIP3   OH264557   1.638   6.294   5.174 -0.1456  0.0159 -0.2869
14381TIP3    H164558   1.569   6.268   5.234  1.3147 -1.4222  0.8701
14381TIP3    H264559   1.689   6.359   5.222  1.1314 -1.2679  0.1959
14382TIP3   OH264560   0.527   1.325  12.131 -0.6796 -0.3775  0.1018
14382TIP3    H164561   0.459   1.329  12.064  0.8969 -0.7900 -1.6042
14382TIP3    H264562   0.532   1.232  12.154 -0.5342 -0.3865  0.0369
14383TIP3   OH264563   4.209   1.589  11.900 -0.1543  0.4980  0.1587
14383TIP3    H164564   4.296   1.629  11.893  0.6395 -1.2917 -0.6991
14383TIP3    H264565   4.200   1.567  11.993  1.0863 -0.9001 -0.0227
14384TIP3   OH264566   1.726   0.980   5.432  0.4157 -0.6167  0.2191
14384TIP3    H164567   1.727   1.052   5.495  1.2497 -1.5593  1.3355
14384TIP3    H264568   1.804   0.995   5.378 -0.8776  0.8019 -1.3881
14385TIP3   OH264569   3.336   1.159  13.427 -0.6568 -0.1322 -0.7323
14385TIP3    H164570   3.339   1.069  13.461 -2.0455  0.6114  1.5262
14385TIP3    H264571   3.242   1.177  13.418 -0.3966  1.2323 -0.7763
14386TIP3   OH264572   3.009   4.115   5.468  0.3196 -0.5816 -0.3584
14386TIP3    H164573   3.031   4.169   5.392  0.7104 -0.7477 -0.3621
14386TIP3    H264574   3.070   4.141   5.536 -0.6502  0.2619  0.2294
14387TIP3   OH264575   1.704   4.286   3.160 -0.6131 -0.1378 -0.1411
14387TIP3    H164576   1.666   4.332   3.234 -2.7216  0.6640 -1.6347
14387TIP3    H264577   1.652   4.205   3.153  1.2612 -1.4918  0.7768
14388TIP3   OH264578   4.014   6.459   0.455  0.2140 -0.3639 -0.1594
14388TIP3    H164579   4.021   6.370   0.421 -2.4034 -0.5936 -0.2779
14388TIP3    H264580   3.954   6.452   0.529 -1.3688  1.4978 -1.1851
14389TIP3   OH264581   6.451   4.959  13.021  0.4407 -0.3903  0.4419
14389TIP3    H164582   6.521   5.004  12.973  0.8907 -0.0292  1.4281
14389TIP3    H264583   6.371   4.980  12.972  0.7992  0.5194  0.2229
14390TIP3   OH264584   1.296   2.985   3.249  0.2597  0.2668 -0.0944
14390TIP3    H164585   1.374   3.041   3.249  0.9021 -0.5891 -1.0639
14390TIP3    H264586   1.280   2.966   3.157 -1.1105  0.4285  0.1000
14391TIP3   OH264587   5.826   1.956  15.729  0.7781 -0.8314 -0.8490
14391TIP3    H164588   5.780   1.932  15.648 -0.9104  0.3131 -0.2811
14391TIP3    H264589   5.864   1.874  15.760 -2.1440 -2.1999 -0.5963
14392TIP3   OH264590   5.077   0.208  14.209 -0.2654  0.2247 -0.0462
14392TIP3    H164591   4.995   0.159  14.219  0.5657 -0.7328  3.0625
14392TIP3    H264592   5.064   0.287  14.261  0.5301  0.4260 -0.1450
14393TIP3   OH264593   0.264   1.997  12.683 -0.0399 -0.2846  0.2255
14393TIP3    H164594   0.309   1.943  12.618  1.0402  0.4963  0.3036
14393TIP3    H264595   0.319   1.992  12.761  0.1211  0.9608  0.2166
14394TIP3   OH264596   5.470   3.784   1.408 -0.1872  0.0212  0.0743
14394TIP3    H164597   5.401   3.745   1.355  1.2546 -0.9615 -1.1801
14394TIP3    H264598   5.527   3.710   1.431  0.5043  0.8166  0.9944
14395TIP3   OH264599   6.680   3.793   0.821  0.6377  0.0320 -0.4338
14395TIP3    H164600   6.733   3.715   0.806  1.4625  0.6112 -0.6079
14395TIP3    H264601   6.595   3.759   0.849  1.0137 -0.9198 -0.4038
14396TIP3   OH264602   5.941   1.779   4.693 -0.3243 -0.1401  0.6195
14396TIP3    H164603   6.004   1.801   4.761 -0.0367  0.7265  0.0805
14396TIP3    H264604   5.868   1.739   4.741  0.4958 -0.8875  1.2747
14397TIP3   OH264605   2.689   6.052   5.481  0.2677 -0.2762 -0.4195
14397TIP3    H164606   2.693   6.020   5.571 -0.5689  0.8045  0.0387
14397TIP3    H264607   2.595   6.066   5.466  0.4524  0.0940 -1.2519
14398TIP3   OH264608   6.528   3.199   1.441  0.2477 -0.8888 -0.2160
14398TIP3    H164609   6.516   3.194   1.346  1.8261  1.1182 -0.6073
14398TIP3    H264610   6.621   3.221   1.452 -0.3891  1.2268  1.6516
14399TIP3   OH264611   5.576   3.748   4.005  0.4154 -0.3046  0.1711
14399TIP3    H164612   5.481   3.754   4.013  0.2456 -0.0626 -1.5979
14399TIP3    H264613   5.609   3.826   4.049 -0.1743 -0.5814  1.1258
14400TIP3   OH264614   4.169   3.848  10.978 -1.0763 -0.0037 -0.5572
14400TIP3    H164615   4.257   3.879  10.962 -1.5469  1.9847  0.3719
14400TIP3    H264616   4.157   3.775  10.917  0.3287  1.2601 -2.4479
14401TIP3   OH264617   1.047   6.681   0.208  1.0618  0.2384 -0.2356
14401TIP3    H164618   1.125   6.625   0.209  0.5704 -0.4678 -0.4715
14401TIP3    H264619   0.981   6.629   0.253  0.9302  1.1521  0.6641
14402TIP3   OH264620   0.166   6.436   2.743 -0.5864  0.2557  0.6242
14402TIP3    H164621   0.142   6.345   2.726  0.2246 -0.0339  0.9846
14402TIP3    H264622   0.259   6.433   2.766 -0.9549  0.9619  2.3411
14403TIP3   OH264623   1.577   2.357   1.520  0.3519 -0.1365  0.1660
14403TIP3    H164624   1.596   2.429   1.580 -2.0207  0.4629  0.2851
14403TIP3    H264625   1.625   2.379   1.440  0.7344  0.8459  0.6494
14404TIP3   OH264626   5.343   2.490  13.010 -0.3083 -0.0680  0.2918
14404TIP3    H164627   5.411   2.496  12.943 -0.0889  1.3340  0.6132
14404TIP3    H264628   5.329   2.580  13.038 -0.7405 -0.5817  1.7982
14405TIP3   OH264629   6.454   4.198  16.465 -0.0049 -0.1170 -0.3898
14405TIP3    H164630   6.385   4.264  16.466 -1.0059 -0.9862 -3.3258
14405TIP3    H264631   6.427   4.134  16.532  0.0638  1.4829  1.2325
14406TIP3   OH264632   1.301   6.536   0.254  0.3647 -0.0910  0.4669
14406TIP3    H164633   1.292   6.470   0.186  2.1128 -0.9543  1.0208
14406TIP3    H264634   1.350   6.607   0.212  1.0903 -0.4488  0.7024
14407TIP3   OH264635   1.767   0.445   0.141  1.1114  0.0181 -0.5281
14407TIP3    H164636   1.746   0.407   0.227 -1.1714 -0.3398 -1.1771
14407TIP3    H264637   1.748   0.538   0.151  1.6510  0.1181 -0.4181
14408TIP3   OH264638   4.733   3.323   1.418  0.3270  0.7499 -0.6081
14408TIP3    H164639   4.776   3.239   1.429  0.4608  0.9506  0.5470
14408TIP3    H264640   4.702   3.323   1.327  1.2837 -0.0790 -0.9440
14409TIP3   OH264641   0.848   3.418   5.312  0.3308 -0.3319  0.1373
14409TIP3    H164642   0.892   3.426   5.227 -0.1855  0.8027 -0.0337
14409TIP3    H264643   0.757   3.445   5.295  0.2228 -0.0899  1.0473
14410TIP3   OH264644   5.015   2.109   2.555  0.1880  0.0655 -0.0852
14410TIP3    H164645   5.029   2.065   2.471  2.4118  0.9804 -0.2633
14410TIP3    H264646   4.956   2.181   2.535 -0.8084 -0.8258 -0.4498
14411TIP3   OH264647   4.347   3.641   2.219 -0.3159  0.6849  0.2732
14411TIP3    H164648   4.274   3.586   2.189 -0.2657  0.7899 -0.0491
14411TIP3    H264649   4.410   3.638   2.147 -0.6756  1.8406 -0.1185
14412TIP3   OH264650   1.647   2.409   5.824  0.1417  0.8740  0.0606
14412TIP3    H164651   1.605   2.494   5.837 -0.9005  0.6533 -1.5705
14412TIP3    H264652   1.737   2.430   5.801  0.0035  1.5097  0.0778
14413TIP3   OH264653   5.874   0.663   5.803  0.2187 -0.0970 -0.0062
14413TIP3    H164654   5.875   0.751   5.840 -1.3164  0.1655 -0.4931
14413TIP3    H264655   5.793   0.624   5.837 -0.8525 -0.1097 -2.3732
14414TIP3   OH264656   3.629   0.554   5.714  0.0035 -0.1746 -0.0810
14414TIP3    H164657   3.696   0.605   5.759  0.9258  0.3843 -2.0154
14414TIP3    H264658   3.676   0.482   5.672 -0.7570 -0.4176 -0.5501
14415TIP3   OH264659   6.328   1.081  11.811 -0.6813  0.0572  0.2547
14415TIP3    H164660   6.282   1.063  11.729 -0.2715 -1.2327  0.2927
14415TIP3    H264661   6.263   1.066  11.879 -0.6913 -0.0468  0.2224
14416TIP3   OH264662   2.299   4.433   2.723 -0.1093  0.3986  0.3915
14416TIP3    H164663   2.302   4.364   2.788  1.6024  1.5895  1.6441
14416TIP3    H264664   2.347   4.506   2.762 -0.0873  1.5945 -1.7009
14417TIP3   OH264665   5.477   5.507  12.518 -0.4660  0.3183  0.6886
14417TIP3    H164666   5.393   5.552  12.514  0.2576  1.6685 -0.2406
14417TIP3    H264667   5.529   5.548  12.448  0.2443 -1.9689 -0.2223
14418TIP3   OH264668   4.934   5.062  13.820 -0.0941  0.0500 -0.2747
14418TIP3    H164669   4.870   5.032  13.756  0.0811 -0.2929 -0.2896
14418TIP3    H264670   4.892   5.136  13.863  0.5114  1.5454 -2.1075
14419TIP3   OH264671   3.651   3.061   2.234 -0.0703  0.2019  0.3511
14419TIP3    H164672   3.613   3.139   2.193  0.2255  0.6056  0.8299
14419TIP3    H264673   3.588   3.036   2.302 -1.7176 -1.8322 -1.7686
14420TIP3   OH264674   3.083   4.862   3.153 -0.5160  0.1822  0.1984
14420TIP3    H164675   3.125   4.939   3.191  1.5763 -1.2895  1.0147
14420TIP3    H264676   3.155   4.812   3.114 -1.8133 -1.4149 -0.2474
14421TIP3   OH264677   0.639   4.908  12.506  0.0154 -0.2639  0.0627
14421TIP3    H164678   0.577   4.975  12.534  0.0164 -0.2039 -0.0749
14421TIP3    H264679   0.715   4.919  12.563  0.1432  0.0582 -0.1678
14422TIP3   OH264680   5.132   3.315  12.503  0.4485 -0.6343  0.8929
14422TIP3    H164681   5.146   3.247  12.568 -0.0066 -0.1144  1.5516
14422TIP3    H264682   5.043   3.347  12.520  0.1520 -0.7801 -0.2649
14423TIP3   OH264683   3.265   6.503   2.027  0.3679  0.4392  0.2590
14423TIP3    H164684   3.202   6.547   2.084  1.3867  2.3383  0.0316
14423TIP3    H264685   3.246   6.539   1.940 -1.0771 -2.3090 -0.6731
14424TIP3   OH264686   4.265   2.336   0.786 -0.3580 -0.1308  0.1275
14424TIP3    H164687   4.332   2.294   0.840  0.4628 -0.5102 -1.1551
14424TIP3    H264688   4.207   2.378   0.850  0.1148 -1.2376  1.3384
14425TIP3   OH264689   0.532   4.414  14.287  0.0553  0.0380 -0.6282
14425TIP3    H164690   0.580   4.437  14.208  1.9586  0.6404  0.6427
14425TIP3    H264691   0.512   4.498  14.328  0.1067 -0.3069  0.1155
14426TIP3   OH264692   5.190   1.891  12.397  0.3851 -0.1886 -0.0888
14426TIP3    H164693   5.158   1.970  12.354  1.3178 -1.1164 -2.6900
14426TIP3    H264694   5.115   1.831  12.395  0.3929 -0.1911 -0.3590
14427TIP3   OH264695   2.487   0.126  14.970 -0.1721 -0.3767 -0.2030
14427TIP3    H164696   2.536   0.075  14.906 -0.8099 -0.1051 -0.9141
14427TIP3    H264697   2.423   0.175  14.919 -0.0172  0.6375  0.5257
14428TIP3   OH264698   6.322   0.745   1.788  0.2111  0.1368  0.8854
14428TIP3    H164699   6.330   0.825   1.839 -0.8046  1.8778 -1.4912
14428TIP3    H264700   6.230   0.742   1.763  0.4801 -1.1422 -0.0544
14429TIP3   OH264701   5.658   3.778   2.888  0.9241 -0.5232 -0.8442
14429TIP3    H164702   5.566   3.786   2.865  1.2910 -0.3663 -2.3436
14429TIP3    H264703   5.672   3.684   2.898  0.5698 -0.5361 -0.4401
14430TIP3   OH264704   3.850   0.066  15.297 -0.3297  0.0002  0.2905
14430TIP3    H164705   3.890   0.055  15.211 -0.0662 -1.8018  0.5984
14430TIP3    H264706   3.924   0.074  15.357 -0.5077  0.7560  0.4202
14431TIP3   OH264707   4.353   1.707   6.135  0.1373 -0.2636 -0.1592
14431TIP3    H164708   4.319   1.720   6.223 -0.0056  1.5731 -0.4515
14431TIP3    H264709   4.278   1.723   6.077  0.5077 -0.3262 -0.6642
14432TIP3   OH264710   2.304   5.177  12.348 -0.2380 -0.5786 -0.2234
14432TIP3    H164711   2.256   5.253  12.315 -0.3614 -0.2836  0.6047
14432TIP3    H264712   2.391   5.210  12.369  0.2406 -1.0415 -1.4069
14433TIP3   OH264713   5.134   4.468   0.422 -0.0891  0.2509 -0.9053
14433TIP3    H164714   5.189   4.442   0.348 -0.7545  0.4611 -1.4870
14433TIP3    H264715   5.109   4.558   0.403  0.3134  0.5514 -0.0580
14434TIP3   OH264716   5.210   3.936   5.586  0.5133 -0.4804  0.4203
14434TIP3    H164717   5.201   3.958   5.494 -0.6573  0.8656  0.8166
14434TIP3    H264718   5.299   3.901   5.594  1.4477  1.4046 -0.8425
14435TIP3   OH264719   3.266   2.781   5.258  0.1394 -0.7362 -0.2400
14435TIP3    H164720   3.267   2.817   5.347  0.2950 -0.8157 -0.2104
14435TIP3    H264721   3.304   2.694   5.266 -3.0070 -2.2286  0.2356
14436TIP3   OH264722   0.362   6.034  16.020  0.2257 -0.1730 -0.4475
14436TIP3    H164723   0.455   6.056  16.028  0.1081 -0.3257  2.5087
14436TIP3    H264724   0.322   6.114  15.986  1.3097  0.2065 -0.8996
14437TIP3   OH264725   4.991   2.230   3.816 -0.6088 -0.0451 -0.4732
14437TIP3    H164726   4.959   2.280   3.740  0.4694 -0.2061 -1.0477
14437TIP3    H264727   5.072   2.190   3.786 -0.2267 -0.2129  0.7442
14438TIP3   OH264728   5.334   5.366  14.221  0.0921  0.0457  0.1663
14438TIP3    H164729   5.331   5.393  14.129  0.9627  1.6352  0.5627
14438TIP3    H264730   5.425   5.341  14.236 -0.4617 -2.1661  0.1143
14439TIP3   OH264731   2.908   1.637   4.506  0.3903 -0.0254 -0.3381
14439TIP3    H164732   2.959   1.691   4.567 -0.9703 -0.2764  1.0846
14439TIP3    H264733   2.820   1.674   4.509 -0.4795 -1.9663  0.3260
14440TIP3   OH264734   4.171   4.396  17.354  0.2095 -0.2714 -0.3799
14440TIP3    H164735   4.096   4.347  17.388 -0.6099 -0.7739 -2.7055
14440TIP3    H264736   4.154   4.402  17.260  3.9498 -1.9817 -1.3353
14441TIP3   OH264737   6.561   5.502   4.280  0.5118 -0.0776  0.3942
14441TIP3    H164738   6.526   5.590   4.269  2.4101  0.6246 -0.2649
14441TIP3    H264739   6.609   5.484   4.200 -0.3107 -1.9780  0.2659
14442TIP3   OH264740   4.782   3.448  12.593  0.1663 -0.1148  0.2951
14442TIP3    H164741   4.785   3.360  12.556 -1.8411 -0.4218  0.7448
14442TIP3    H264742   4.780   3.506  12.516  0.3379 -0.5091 -0.0122
14443TIP3   OH264743   0.835   2.448  13.566  0.1512 -0.6029 -0.5426
14443TIP3    H164744   0.862   2.538  13.547  0.3568 -0.5186  0.1234
14443TIP3    H264745   0.785   2.455  13.648  0.6730 -1.1765 -0.1686
14444TIP3   OH264746   0.324   0.254  16.168 -0.5756 -0.2335 -0.4337
14444TIP3    H164747   0.409   0.240  16.210 -0.3208  0.4997 -0.6900
14444TIP3    H264748   0.260   0.235  16.236 -0.1700  1.1316  0.3686
14445TIP3   OH264749   5.087   0.202   5.563 -0.4824  0.1527 -0.3633
14445TIP3    H164750   5.116   0.196   5.654 -0.8951  1.6562 -0.1039
14445TIP3    H264751   5.055   0.114   5.542 -1.3658  0.0437  1.2710
14446TIP3   OH264752   2.396   2.078   3.764  0.7271  0.0201 -0.3885
14446TIP3    H164753   2.384   2.147   3.830  0.9387 -0.8941  0.6394
14446TIP3    H264754   2.312   2.075   3.717  0.1599 -0.0421  0.5864
14447TIP3   OH264755   6.654   5.753   3.429  0.3192  0.5869  0.1022
14447TIP3    H164756   6.558   5.751   3.427  0.3031  1.1391  0.0232
14447TIP3    H264757   6.680   5.750   3.337  0.3790  0.3839  0.1259
14448TIP3   OH264758   2.178   5.451   0.652 -0.4096  0.3331 -0.6124
14448TIP3    H164759   2.090   5.451   0.614 -0.0030 -0.0675 -1.5730
14448TIP3    H264760   2.164   5.422   0.742 -1.2575  0.2182 -0.7659
14449TIP3   OH264761   1.639   3.393   4.255  0.0061 -0.3391 -0.1281
14449TIP3    H164762   1.688   3.380   4.174 -1.1479  0.5452 -1.0087
14449TIP3    H264763   1.570   3.454   4.231  0.8621  1.6007  2.0375
14450TIP3   OH264764   3.849   3.705  13.122  0.0270  0.3227  0.0111
14450TIP3    H164765   3.905   3.778  13.094  1.1839 -0.3906  0.4051
14450TIP3    H264766   3.823   3.662  13.040 -0.7425  1.1983 -0.2328
14451TIP3   OH264767   0.585   5.444  13.511 -0.6327  0.0995  0.1548
14451TIP3    H164768   0.525   5.496  13.563 -0.3219  2.7059 -1.8777
14451TIP3    H264769   0.529   5.388  13.458 -1.2179  1.2072 -0.4230
14452TIP3   OH264770   2.378   4.622   4.584  0.0349 -0.7125  0.6695
14452TIP3    H164771   2.452   4.675   4.613  0.3932 -1.9117  2.0673
14452TIP3    H264772   2.405   4.532   4.601 -0.4789 -1.4070 -1.7899
14453TIP3   OH264773   5.234   5.118  14.147  0.1640 -0.3659  0.1717
14453TIP3    H164774   5.140   5.132  14.143 -0.1787 -2.2057  0.8158
14453TIP3    H264775   5.271   5.206  14.154 -1.5896  0.3370  1.3584
14454TIP3   OH264776   1.328   4.884   0.711  0.2703 -0.0291  0.1909
14454TIP3    H164777   1.357   4.860   0.623 -2.6217 -0.5534 -0.7186
14454TIP3    H264778   1.282   4.967   0.700 -0.1543 -0.1171  1.1949
14455TIP3   OH264779   1.344   1.745   2.598  0.1029 -0.1418  0.0208
14455TIP3    H164780   1.347   1.777   2.508  1.8332 -1.8404 -0.5790
14455TIP3    H264781   1.254   1.714   2.609  0.4972 -2.4491 -2.1471
14456TIP3   OH264782   4.589   2.481  15.027  0.4541  0.3679  0.5421
14456TIP3    H164783   4.521   2.433  14.980  0.5950  1.6872 -1.0773
14456TIP3    H264784   4.574   2.459  15.119 -0.6548 -1.2477  0.0190
14457TIP3   OH264785   1.206   4.180   3.380 -0.4028  0.2140 -0.2153
14457TIP3    H164786   1.201   4.255   3.321  0.6715 -0.3877 -1.1116
14457TIP3    H264787   1.236   4.108   3.325 -0.3630 -0.6146  0.8584
14458TIP3   OH264788   5.861   0.555   0.202  0.2854 -0.7280  0.1572
14458TIP3    H164789   5.940   0.575   0.152 -1.0359  0.1193 -1.7128
14458TIP3    H264790   5.856   0.460   0.201  0.3298 -0.7460 -1.3326
14459TIP3   OH264791   6.054   2.275   0.234 -0.2029  0.5495  0.4833
14459TIP3    H164792   5.978   2.217   0.229  1.2135 -1.2862 -1.2340
14459TIP3    H264793   6.038   2.342   0.167  0.4886 -0.9360 -1.2351
14460TIP3   OH264794   3.403   4.907  13.837 -0.2637 -0.1032  0.6738
14460TIP3    H164795   3.431   4.816  13.843  0.5083  0.0727 -0.0164
14460TIP3    H264796   3.349   4.911  13.758 -1.7946 -0.3111  1.6630
14461TIP3   OH264797   3.046   1.648   0.344 -0.4051 -0.3128 -0.3868
14461TIP3    H164798   3.100   1.726   0.332 -0.2532 -0.4558 -0.6242
14461TIP3    H264799   2.956   1.680   0.338 -0.3484 -0.1113 -0.2070
14462TIP3   OH264800   4.387   4.646  12.236 -0.2857 -0.3771 -0.0963
14462TIP3    H164801   4.453   4.597  12.187 -0.9677 -1.3779 -0.0453
14462TIP3    H264802   4.337   4.579  12.282 -0.6459  0.4478  0.7274
14463TIP3   OH264803   4.718   1.859  12.533 -0.0194 -0.4875  0.2768
14463TIP3    H164804   4.657   1.808  12.587  0.2692 -0.2106  0.8743
14463TIP3    H264805   4.662   1.924  12.490 -0.1731 -0.2910  0.7546
14464TIP3   OH264806   4.076   6.206   6.590 -0.2628  0.3980  0.1335
14464TIP3    H164807   4.017   6.255   6.534 -3.7567 -1.2258  2.0624
14464TIP3    H264808   4.055   6.114   6.573  0.3494 -0.1904  2.2208
14465TIP3   OH264809   2.848   6.007   4.296  0.4400  0.1399  0.4048
14465TIP3    H164810   2.861   5.987   4.203  1.8921  0.8732  0.4217
14465TIP3    H264811   2.789   5.939   4.327  0.3212 -0.4074 -0.9396
14466TIP3   OH264812   4.087   0.240  16.360 -0.4104  0.2979 -0.0664
14466TIP3    H164813   4.080   0.334  16.340  1.9535  0.4407 -0.5034
14466TIP3    H264814   4.049   0.197  16.283 -2.0076  0.8327  0.3624
14467TIP3   OH264815   3.299   5.367   6.035  0.4621 -0.4604 -0.2555
14467TIP3    H164816   3.292   5.273   6.014  2.0456 -0.8032  0.5772
14467TIP3    H264817   3.327   5.368   6.126  0.7546  0.8321 -0.3535
14468TIP3   OH264818   6.291   0.478  11.512  0.1573  0.1279 -0.1332
14468TIP3    H164819   6.242   0.489  11.430  0.5423  1.0201 -0.2549
14468TIP3    H264820   6.229   0.435  11.571 -0.2426 -0.2063 -0.7810
14469TIP3   OH264821   5.646   5.258   5.251  0.1285 -0.1021 -0.1944
14469TIP3    H164822   5.709   5.273   5.180 -0.2841 -3.0675 -1.3380
14469TIP3    H264823   5.698   5.263   5.331  1.5390 -0.9700 -1.0137
14470TIP3   OH264824   5.172   5.106  14.571  0.7825 -0.3849  0.0547
14470TIP3    H164825   5.098   5.133  14.516  1.4530 -0.4043 -0.8733
14470TIP3    H264826   5.177   5.012  14.559 -0.3591 -0.7176  1.8012
14471TIP3   OH264827   6.222   6.435   5.088  0.4829  0.1970  0.6290
14471TIP3    H164828   6.267   6.354   5.062 -2.0467 -1.2296  0.3924
14471TIP3    H264829   6.241   6.496   5.017  1.2898 -0.6444  0.0887
14472TIP3   OH264830   3.701   2.026  16.701 -0.1668 -0.2825  0.4596
14472TIP3    H164831   3.777   1.982  16.740 -0.0011 -0.9423 -0.5571
14472TIP3    H264832   3.738   2.093  16.644 -0.2553 -1.3458 -0.9269
14473TIP3   OH264833   6.627   0.364   3.744 -0.0512 -0.1943 -0.0371
14473TIP3    H164834   6.623   0.444   3.691  3.6893 -0.3020 -0.7200
14473TIP3    H264835   6.601   0.295   3.683  0.0109  0.1326 -0.4451
14474TIP3   OH264836   2.163   4.100  15.679  0.3396 -0.8371 -0.4133
14474TIP3    H164837   2.223   4.167  15.646  0.2840 -0.6361 -0.1162
14474TIP3    H264838   2.094   4.094  15.613 -0.9186  1.0992  0.6225
14475TIP3   OH264839   4.085   5.599  16.969 -0.4687  0.2982  0.3992
14475TIP3    H164840   4.069   5.693  16.982  0.8983  0.4736  1.0534
14475TIP3    H264841   4.088   5.563  17.057 -2.1403 -0.5986  0.1137
14476TIP3   OH264842   2.070   3.747  14.874 -0.6649 -0.8185  0.2875
14476TIP3    H164843   2.075   3.698  14.793 -1.1138 -1.0473  0.3924
14476TIP3    H264844   1.986   3.721  14.913 -0.2146 -1.1146  1.0840
14477TIP3   OH264845   1.881   1.763   2.237 -0.6301 -0.2005  0.2097
14477TIP3    H164846   1.888   1.764   2.141 -0.2614  1.1325  0.2320
14477TIP3    H264847   1.792   1.730   2.254 -1.1084  0.6165 -0.6312
14478TIP3   OH264848   6.295   2.816   2.363 -0.6604 -0.8998 -0.4650
14478TIP3    H164849   6.199   2.808   2.367 -0.5347 -2.5785 -0.2016
14478TIP3    H264850   6.321   2.837   2.452 -0.6673 -2.3083 -0.1048
14479TIP3   OH264851   0.850   5.963   2.647 -0.4773 -0.6315 -0.4910
14479TIP3    H164852   0.827   6.030   2.582  2.5815  1.2424  0.1630
14479TIP3    H264853   0.816   5.999   2.730  1.8764  0.7074  0.0000
14480TIP3   OH264854   2.000   1.670  14.795  0.0910  0.4686  0.0398
14480TIP3    H164855   2.092   1.642  14.790  0.8509  2.0186  3.2323
14480TIP3    H264856   2.003   1.755  14.839 -3.0121 -0.4929  2.4124
14481TIP3   OH264857   6.142   1.571  15.242 -0.0202  0.2066  0.2380
14481TIP3    H164858   6.063   1.541  15.197  0.3705 -1.0193  0.3327
14481TIP3    H264859   6.139   1.525  15.327  0.5492  0.5214  0.4280
14482TIP3   OH264860   2.452   3.248  12.311  0.0837 -0.0004 -0.3502
14482TIP3    H164861   2.460   3.344  12.317  0.5872 -0.0329 -0.4623
14482TIP3    H264862   2.362   3.234  12.282  0.2404  0.4809 -1.1286
14483TIP3   OH264863   2.921   4.764  11.933  0.0360 -0.2440  0.3628
14483TIP3    H164864   2.835   4.767  11.892 -0.3395 -0.7434  1.0962
14483TIP3    H264865   2.982   4.766  11.860 -0.5584  1.4029 -0.1327
14484TIP3   OH264866   4.215   5.905  16.431  0.0459 -0.4237  0.2111
14484TIP3    H164867   4.261   5.988  16.421 -0.9286  0.0330 -0.8259
14484TIP3    H264868   4.282   5.843  16.457  1.1759  0.2983 -0.8401
14485TIP3   OH264869   4.444   5.758  16.500 -0.2270 -0.2368  0.5358
14485TIP3    H164870   4.507   5.805  16.446 -0.8954 -0.5405 -0.5251
14485TIP3    H264871   4.460   5.790  16.589  0.5498  0.6327  0.0925
14486TIP3   OH264872   1.378   0.775   2.099  0.9993  0.2591 -0.1858
14486TIP3    H164873   1.393   0.756   2.191 -1.6033  1.1263  0.5084
14486TIP3    H264874   1.375   0.689   2.057 -0.3770 -0.3384  1.0486
14487TIP3   OH264875   4.389   1.038   4.490 -0.0945  0.0943 -0.1183
14487TIP3    H164876   4.325   1.060   4.423 -3.4479 -0.6443  2.5292
14487TIP3    H264877   4.397   1.118   4.542  0.3336 -0.1255  0.1530
14488TIP3   OH264878   4.958   3.615  13.774  0.9892  0.3688 -0.5941
14488TIP3    H164879   5.050   3.592  13.762  0.5433 -0.8983 -1.8741
14488TIP3    H264880   4.912   3.564  13.707 -0.8733 -0.5278  1.2865
14489TIP3   OH264881   0.372   4.551  13.326  0.6102  0.4587 -0.6648
14489TIP3    H164882   0.321   4.508  13.395  1.8058  0.8103  0.4665
14489TIP3    H264883   0.308   4.608  13.283 -0.3238 -0.2864 -0.3303
14490TIP3   OH264884   6.119   5.027   3.573  0.4515 -0.1055 -0.1859
14490TIP3    H164885   6.083   4.944   3.541  1.1566 -0.7795  0.7044
14490TIP3    H264886   6.186   5.051   3.508 -0.4757  0.3249 -0.9993
14491TIP3   OH264887   1.815   3.038   5.499 -0.9643 -0.3647 -0.1322
14491TIP3    H164888   1.816   3.134   5.495 -0.9477 -0.3022  1.0161
14491TIP3    H264889   1.785   3.011   5.413  1.2859  0.5980 -1.2754
14492TIP3   OH264890   0.391   0.912  14.561  0.0771  0.1521 -0.0071
14492TIP3    H164891   0.433   0.860  14.493 -0.9190  1.0829 -1.3911
14492TIP3    H264892   0.421   1.001  14.546 -1.6858  0.7088 -0.5352
14493TIP3   OH264893   2.397   3.943   0.897  0.1867 -0.1317  0.6330
14493TIP3    H164894   2.417   3.870   0.839  0.7520  0.5546 -0.0719
14493TIP3    H264895   2.342   3.906   0.966 -3.5201 -0.4101 -2.1087
14494TIP3   OH264896   0.496   1.558  11.518 -0.4505 -0.2059 -0.9081
14494TIP3    H164897   0.500   1.533  11.610  0.5262 -0.7493 -1.0802
14494TIP3    H264898   0.405   1.543  11.493 -0.3164 -1.9524 -0.5245
14495TIP3   OH264899   6.132   3.082  13.876 -0.2924 -0.6270  0.2863
14495TIP3    H164900   6.212   3.107  13.831 -1.2835 -0.5681 -1.5362
14495TIP3    H264901   6.161   3.045  13.959  1.5679  0.0110 -0.0445
14496TIP3   OH264902   5.008   2.480  14.431  0.3370  0.0683 -0.0968
14496TIP3    H164903   5.021   2.394  14.390 -0.7409 -0.0735 -0.1853
14496TIP3    H264904   4.994   2.461  14.523  2.0468  0.3278  0.2336
14497TIP3   OH264905   3.886   1.800  10.506 -0.8079  0.1202  0.6525
14497TIP3    H164906   3.829   1.785  10.431  0.0019 -0.9822  0.2357
14497TIP3    H264907   3.973   1.814  10.468 -0.2295 -1.2626  1.3880
14498TIP3   OH264908   4.446   4.741  13.706 -0.4609  0.2491  0.0302
14498TIP3    H164909   4.527   4.706  13.743 -0.9002  0.3123  1.0840
14498TIP3    H264910   4.467   4.831  13.683  0.4276 -0.4070 -1.8920
14499TIP3   OH264911   3.316   2.571   4.166 -0.2449  0.0380  0.4132
14499TIP3    H164912   3.228   2.598   4.191 -1.2299 -1.2840 -1.4599
14499TIP3    H264913   3.339   2.628   4.093 -0.4456 -1.0255 -0.5028
14500TIP3   OH264914   1.692   4.800   0.054  0.3805 -0.8889 -0.4303
14500TIP3    H164915   1.720   4.891   0.050  0.1392 -0.8502 -2.6983
14500TIP3    H264916   1.763   4.754   0.099  0.8760  0.2843  0.0131
14501TIP3   OH264917   4.576   2.207   4.987  0.1651  0.2663  0.4852
14501TIP3    H164918   4.659   2.203   4.940 -0.7193  1.3018 -1.3386
14501TIP3    H264919   4.587   2.278   5.050  1.5144 -1.4069  2.2120
14502TIP3   OH264920   6.010   3.242   1.620  0.3050  0.2583 -0.3650
14502TIP3    H164921   6.087   3.198   1.584  2.1350  1.5010  1.7403
14502TIP3    H264922   6.005   3.211   1.711 -0.2560  1.8867  0.2047
14503TIP3   OH264923   0.686   0.559  13.726 -0.0045 -0.2112  0.4508
14503TIP3    H164924   0.616   0.498  13.750 -0.7951  0.5950  0.2265
14503TIP3    H264925   0.766   0.506  13.731 -0.9577 -2.4377 -3.5446
14504TIP3   OH264926   2.886   5.106  12.222  0.3649 -0.1102 -0.0474
14504TIP3    H164927   2.921   5.043  12.160 -0.1414  0.8248 -1.3322
14504TIP3    H264928   2.901   5.067  12.308 -0.5870 -2.2989 -0.8182
14505TIP3   OH264929   5.281   6.351   4.214 -0.5486 -0.1084 -0.1571
14505TIP3    H164930   5.336   6.393   4.281 -0.9697  1.2400 -0.6148
14505TIP3    H264931   5.192   6.366   4.244 -0.7043 -1.3193  0.0166
14506TIP3   OH264932   1.798   1.250  14.301 -0.5389 -0.3495  0.1652
14506TIP3    H164933   1.717   1.219  14.260 -0.1343 -1.1743 -0.0325
14506TIP3    H264934   1.860   1.256  14.228 -0.9252  2.1974 -0.0596
14507TIP3   OH264935   1.740   2.126   1.597  0.1096  0.0609 -0.0866
14507TIP3    H164936   1.686   2.141   1.520 -0.0725  0.9084  0.1974
14507TIP3    H264937   1.830   2.126   1.563  0.3440  3.9065  0.0738
14508TIP3   OH264938   1.024   0.427   5.239 -0.4040 -0.1817  0.4926
14508TIP3    H164939   1.039   0.445   5.332 -2.7840  0.1304  0.8770
14508TIP3    H264940   1.031   0.332   5.232  1.6865 -0.0876  0.5508
14509TIP3   OH264941   4.487   0.250  11.287  0.1318 -0.2634 -0.1328
14509TIP3    H164942   4.558   0.197  11.250 -1.2252 -1.1508 -1.5442
14509TIP3    H264943   4.505   0.339  11.256  1.8701  0.0029  1.4402
14510TIP3   OH264944   3.356   1.836   2.182  0.0240 -0.3429  0.4335
14510TIP3    H164945   3.310   1.757   2.153  1.3146 -1.3792  1.1215
14510TIP3    H264946   3.441   1.805   2.214  2.1142  1.6522 -2.5885
14511TIP3   OH264947   4.360   3.940  16.356  0.4388 -0.1447  0.3088
14511TIP3    H164948   4.426   3.896  16.409  1.7713  1.3341 -0.0561
14511TIP3    H264949   4.313   3.996  16.418  0.9526  0.4021  0.2096
14512TIP3   OH264950   6.203   3.760   2.636  0.2596 -0.3264 -0.3216
14512TIP3    H164951   6.179   3.777   2.728  1.1095  0.2272 -0.1893
14512TIP3    H264952   6.176   3.670   2.621  0.0448 -0.4039  0.4499
14513TIP3   OH264953   4.575   3.166   0.881  0.1009 -0.2069  0.1398
14513TIP3    H164954   4.521   3.097   0.920  0.2003 -0.2203  0.2557
14513TIP3    H264955   4.665   3.137   0.895  0.1863  0.5826  1.3963
14514TIP3   OH264956   6.219   3.749  14.352 -0.2075  0.0217  0.3484
14514TIP3    H164957   6.238   3.822  14.293 -0.1625 -0.1243  0.1830
14514TIP3    H264958   6.222   3.671  14.296  1.0934 -0.2599  0.7650
14515TIP3   OH264959   1.550   3.641   1.154 -0.2725  0.0387 -0.2758
14515TIP3    H164960   1.490   3.596   1.213 -0.3925  0.3365 -0.1715
14515TIP3    H264961   1.497   3.662   1.077 -0.2021 -0.0420 -0.3475
14516TIP3   OH264962   0.962   1.540  13.908 -0.1542 -0.3745  0.5468
14516TIP3    H164963   0.922   1.523  13.822 -0.3649  0.5975  0.4460
14516TIP3    H264964   0.953   1.457  13.955  1.9893 -1.6724 -1.1275
14517TIP3   OH264965   0.390   6.746   5.092  0.0996  0.6031  0.1498
14517TIP3    H164966   0.468   6.790   5.058 -0.7305  1.3643 -0.8308
14517TIP3    H264967   0.358   6.694   5.019  0.2150 -0.4620  0.8463
14518TIP3   OH264968   3.597   6.414  12.585  0.0996 -0.7947  0.4584
14518TIP3    H164969   3.559   6.371  12.508 -0.4881  0.4097  0.0591
14518TIP3    H264970   3.639   6.493  12.550 -0.7544  0.1265  1.4499
14519TIP3   OH264971   3.203   1.561   5.621  0.1780  0.8502  1.0625
14519TIP3    H164972   3.237   1.472   5.632 -1.2650  0.2736  1.1572
14519TIP3    H264973   3.237   1.589   5.536  2.2761  1.0151  1.9071
14520TIP3   OH264974   4.370   6.524   3.214  0.1722 -0.2856 -0.5226
14520TIP3    H164975   4.320   6.474   3.278  1.0017 -4.7319 -2.9179
14520TIP3    H264976   4.461   6.512   3.240  0.4287 -0.8578 -1.6127
14521TIP3   OH264977   4.715   0.379  16.350  0.4584  0.1357  0.4438
14521TIP3    H164978   4.651   0.334  16.405 -1.1883  0.8558 -0.8175
14521TIP3    H264979   4.759   0.308  16.302 -1.8131 -0.2294 -1.2129
14522TIP3   OH264980   5.954   0.024   4.705  0.6495  0.2056  0.0159
14522TIP3    H164981   6.028   0.035   4.765  1.4958 -2.6925 -0.3378
14522TIP3    H264982   5.897   0.098   4.724  2.0605  0.7560  2.6391
14523TIP3   OH264983   5.655   5.254  11.647  0.3652 -0.2530 -0.3847
14523TIP3    H164984   5.740   5.299  11.644  0.7682 -0.7764  1.9120
14523TIP3    H264985   5.677   5.161  11.649 -0.3836 -0.5059 -1.9697
14524TIP3   OH264986   3.708   6.742  15.604 -0.6217 -0.0668  0.2441
14524TIP3    H164987   3.647   6.813  15.582  0.2209  0.5402 -0.2079
14524TIP3    H264988   3.716   6.746  15.699 -0.5387  0.4993  0.2216
14525TIP3   OH264989   4.409   1.705  15.069  0.5313 -0.2085 -0.4582
14525TIP3    H164990   4.392   1.648  14.993 -1.1277 -0.2836 -0.0776
14525TIP3    H264991   4.460   1.777  15.034  0.1174 -0.4333 -1.5778
14526TIP3   OH264992   2.284   5.111   2.231  0.3365 -0.7848  0.4737
14526TIP3    H164993   2.295   5.028   2.186 -0.3357 -1.6351  1.8097
14526TIP3    H264994   2.294   5.177   2.162 -0.1621 -1.9944 -0.8212
14527TIP3   OH264995   1.561   1.849  12.443 -0.2759 -0.0254 -0.7257
14527TIP3    H164996   1.487   1.798  12.475 -0.0335  0.4277  0.6460
14527TIP3    H264997   1.638   1.807  12.482  0.1353 -0.0375 -1.5255
14528TIP3   OH264998   5.096   6.726   4.313 -0.2949 -0.1345  0.2029
14528TIP3    H164999   5.117   6.699   4.224 -1.0679  1.4674 -0.5195
14528TIP3    H265000   5.176   6.769   4.344  0.7033 -2.4864  1.1109
14529TIP3   OH265001   6.257   3.686   6.667 -0.4679  0.1014  0.6986
14529TIP3    H165002   6.173   3.642   6.676 -0.1029 -0.7248  0.1548
14529TIP3    H265003   6.237   3.767   6.619 -0.9423 -0.1091  0.5458
14530TIP3   OH265004   5.872   3.276   0.415 -0.0002 -0.0091 -0.1915
14530TIP3    H165005   5.905   3.271   0.326 -3.3297 -1.6336 -1.5057
14530TIP3    H265006   5.802   3.341   0.411  0.3138  0.4911  1.4757
14531TIP3   OH265007   6.059   6.021   4.993 -0.3986  0.2167 -0.5243
14531TIP3    H165008   6.053   6.115   4.975  0.7643  0.6643  1.2107
14531TIP3    H265009   6.000   6.007   5.066 -1.3123 -0.6198 -1.4010
14532TIP3   OH265010   3.818   5.528  12.084 -0.3326  0.1192 -0.3047
14532TIP3    H165011   3.760   5.585  12.033 -1.8354 -0.0407  1.1196
14532TIP3    H265012   3.844   5.582  12.158  0.0454 -0.3349 -0.1055
14533TIP3   OH265013   1.390   6.176  14.418 -0.3506 -0.1750 -0.3643
14533TIP3    H165014   1.333   6.103  14.444  1.2620 -1.1324  0.7041
14533TIP3    H265015   1.365   6.248  14.477 -0.7852 -0.4269 -0.2370
14534TIP3   OH265016   6.628   2.451   6.477  0.6885  0.8458  0.2641
14534TIP3    H165017   6.549   2.421   6.431  0.3256 -1.4251  2.1349
14534TIP3    H265018   6.624   2.546   6.472 -1.0508  0.7546 -1.4615
14535TIP3   OH265019   3.702   5.316   4.123 -0.3104 -0.0751  0.1172
14535TIP3    H165020   3.679   5.229   4.156 -0.6041  0.7096  2.1366
14535TIP3    H265021   3.639   5.375   4.165  1.1171  1.3289  0.3954
14536TIP3   OH265022   3.431   1.771  10.859 -0.1790 -0.1261  0.2505
14536TIP3    H165023   3.502   1.835  10.854 -0.6659  0.3585 -3.6525
14536TIP3    H265024   3.354   1.822  10.884 -0.0595  0.3122 -0.2609
14537TIP3   OH265025   4.910   0.464   2.314 -0.3911 -0.4724  0.2426
14537TIP3    H165026   4.884   0.394   2.255 -0.6431  0.0691 -0.3102
14537TIP3    H265027   4.860   0.448   2.394 -1.0735 -0.4634 -0.1709
14538TIP3   OH265028   5.321   0.472   4.682  0.5506  0.2620 -0.0771
14538TIP3    H165029   5.236   0.444   4.718 -0.3237  0.1317 -2.1352
14538TIP3    H265030   5.367   0.510   4.758 -1.3791  0.4601  1.0800
14539TIP3   OH265031   5.600   3.961  10.828  0.0369 -0.3295  1.0285
14539TIP3    H165032   5.620   4.048  10.795 -0.2193 -0.0810  1.5257
14539TIP3    H265033   5.666   3.944  10.895  1.7358 -1.5963 -0.8237
14540TIP3   OH265034   3.729   4.533  14.064 -0.0629  0.2242  0.2181
14540TIP3    H165035   3.638   4.506  14.058 -0.2815  0.9146  0.2791
14540TIP3    H265036   3.767   4.477  14.131 -0.6216  0.3963  0.6861
14541TIP3   OH265037   3.348   3.396   2.558 -0.4077  0.3724  0.4481
14541TIP3    H165038   3.367   3.397   2.652  0.3208 -1.5937  0.3687
14541TIP3    H265039   3.432   3.372   2.517 -0.6642  1.4054 -0.7356
14542TIP3   OH265040   0.066   2.369   4.931 -0.1725 -0.3693 -0.7324
14542TIP3    H165041  -0.010   2.334   4.884 -1.0706  1.1075 -0.4326
14542TIP3    H265042   0.109   2.427   4.868 -1.5590  1.8715  0.2715
14543TIP3   OH265043   4.970   0.924  16.768 -0.0852 -0.4426  0.0708
14543TIP3    H165044   4.980   0.870  16.846 -0.4215 -0.6155 -0.0083
14543TIP3    H265045   4.879   0.914  16.742 -0.3679  0.8066  0.5298
14544TIP3   OH265046   2.184   4.644  15.568 -0.3069  0.7751  0.2941
14544TIP3    H165047   2.275   4.671  15.577 -0.6758  1.8930  0.8647
14544TIP3    H265048   2.167   4.647  15.473  0.4408 -0.1787  0.1132
14545TIP3   OH265049   2.123   2.818  11.599 -0.1536  0.5044  0.1894
14545TIP3    H165050   2.162   2.904  11.609 -1.6995  1.2240  0.3970
14545TIP3    H265051   2.113   2.807  11.504 -0.3298  0.7454  0.1787
14546TIP3   OH265052   0.477   6.705  12.758  1.3793 -0.1612 -0.7434
14546TIP3    H165053   0.548   6.641  12.766 -0.4042 -2.2382 -0.3364
14546TIP3    H265054   0.401   6.652  12.733 -1.0158  1.2127  2.8312
14547TIP3   OH265055   0.997   4.700   3.990  0.2199 -0.2372  0.4429
14547TIP3    H165056   0.943   4.773   4.021  0.6323 -0.2245  1.1642
14547TIP3    H265057   1.011   4.646   4.068  0.4558 -0.7441  0.0539
14548TIP3   OH265058   5.740   1.019  15.841 -0.5097 -0.1888  0.3076
14548TIP3    H165059   5.724   0.929  15.811  0.1389 -0.6894  1.3717
14548TIP3    H265060   5.666   1.039  15.897  0.4421 -0.9608  1.9255
14549TIP3   OH265061   2.603   3.056  11.938  0.5417  0.2019  0.1740
14549TIP3    H165062   2.516   3.019  11.953  0.2268  0.7056 -0.3496
14549TIP3    H265063   2.647   2.993  11.882  0.0226  0.5856 -0.6805
14550TIP3   OH265064   4.388   0.050   2.750 -0.2267 -0.0451  0.1615
14550TIP3    H165065   4.381   0.111   2.823  1.3063 -0.3970  0.6353
14550TIP3    H265066   4.307  -0.001   2.752 -1.0046  1.1619  0.4754
14551TIP3   OH265067   6.738   4.130  14.874  0.3223  0.0766 -0.2217
14551TIP3    H165068   6.813   4.183  14.902  0.3865 -0.6171  1.0016
14551TIP3    H265069   6.770   4.039  14.878 -0.0149 -0.1194 -1.5404
14552TIP3   OH265070   5.859   0.774   0.929 -0.8445 -0.1794  0.0526
14552TIP3    H165071   5.921   0.837   0.965 -0.7196  0.3022 -0.9565
14552TIP3    H265072   5.906   0.691   0.930 -0.6603 -0.0751  0.5012
14553TIP3   OH265073   3.643   6.178  13.437  0.3615  0.1948  0.3745
14553TIP3    H165074   3.713   6.242  13.433  1.6873 -1.2397 -2.1484
14553TIP3    H265075   3.571   6.217  13.387  0.2317  0.6696  0.9185
14554TIP3   OH265076   1.961   1.361  12.163 -0.5305 -0.8563 -0.8779
14554TIP3    H165077   1.970   1.454  12.184 -1.0675 -0.5159 -2.0559
14554TIP3    H265078   1.894   1.358  12.094  0.0947 -2.0325 -1.4648
14555TIP3   OH265079   5.328   3.648  16.271  0.1281 -0.1747 -0.5051
14555TIP3    H165080   5.317   3.559  16.239 -0.5466 -0.5035  0.5870
14555TIP3    H265081   5.379   3.640  16.352  0.8201  0.5211 -0.8521
14556TIP3   OH265082   2.787   3.454   4.297 -0.1717  0.2610 -0.0440
14556TIP3    H165083   2.719   3.501   4.248 -0.8272 -0.5357  0.0810
14556TIP3    H265084   2.865   3.509   4.288 -0.3662  0.3300 -1.6705
14557TIP3   OH265085   2.841   4.554   0.949  0.1257  0.2063  0.1293
14557TIP3    H165086   2.933   4.580   0.961  1.6579 -1.1068 -5.5197
14557TIP3    H265087   2.810   4.610   0.878 -2.8511 -0.7397  0.5675
14558TIP3   OH265088   4.663   1.641  16.659  0.2060  0.0838  0.5419
14558TIP3    H165089   4.589   1.597  16.618 -0.3452  1.6043 -0.1430
14558TIP3    H265090   4.699   1.575  16.719 -0.2200 -1.5003 -0.8521
14559TIP3   OH265091   2.976   2.984   3.932 -0.8440 -0.4301  0.2176
14559TIP3    H165092   3.003   3.047   3.865 -0.4820 -1.8393 -1.0321
14559TIP3    H265093   2.986   3.030   4.015 -0.5278  1.1123 -0.6470
14560TIP3   OH265094   6.229   6.416   3.259 -0.2050  0.1703  0.0182
14560TIP3    H165095   6.145   6.390   3.295 -0.6850  1.6422  0.0131
14560TIP3    H265096   6.212   6.499   3.215  1.5676  1.3914  1.4919
14561TIP3   OH265097   4.658   6.691  12.372 -0.4682  0.4363 -0.0894
14561TIP3    H165098   4.729   6.737  12.326  1.6440 -0.1606  2.3544
14561TIP3    H265099   4.666   6.719  12.463 -2.1712 -1.1450  0.6086
14562TIP3   OH265100   1.593   0.379  14.676  0.1141 -0.2015 -0.0525
14562TIP3    H165101   1.588   0.416  14.588  0.7541  2.1159  0.8085
14562TIP3    H265102   1.503   0.384  14.709 -0.1888 -1.3651 -0.6394
14563TIP3   OH265103   1.341   0.902  16.142 -0.2116  0.3182 -0.0291
14563TIP3    H165104   1.246   0.900  16.128 -0.2885  2.3891 -0.0812
14563TIP3    H265105   1.354   0.848  16.220 -1.2467 -1.1133 -0.7968
14564TIP3   OH265106   3.312   0.516  11.388 -0.6171 -0.3368  0.5875
14564TIP3    H165107   3.283   0.449  11.327 -0.2875  0.0223  0.0260
14564TIP3    H265108   3.408   0.513  11.382 -0.6042  1.3259 -0.7303
14565TIP3   OH265109   5.020   6.439  15.908  0.0055  0.1342  0.1476
14565TIP3    H165110   4.972   6.511  15.866 -0.5436 -0.5146 -0.3618
14565TIP3    H265111   4.962   6.411  15.979 -0.0026 -0.1121  0.0453
14566TIP3   OH265112   2.268   3.097   4.782 -0.1007 -0.2058 -0.1791
14566TIP3    H165113   2.225   3.121   4.863 -1.9281 -1.5346 -0.6842
14566TIP3    H265114   2.251   3.170   4.722 -1.6551 -0.6713 -0.3425
14567TIP3   OH265115   4.561   4.167   5.241 -0.0062 -0.4896 -0.3863
14567TIP3    H165116   4.588   4.075   5.250 -0.2661 -0.8446 -2.5865
14567TIP3    H265117   4.556   4.180   5.146 -2.6147  1.0242 -0.1110
14568TIP3   OH265118   1.632   2.443  13.180  0.1879  0.5012  0.1050
14568TIP3    H165119   1.703   2.423  13.119  0.3839  1.6795 -0.0800
14568TIP3    H265120   1.642   2.537  13.199 -1.8843  0.9465 -0.7028
14569TIP3   OH265121   0.209   4.134   4.922 -0.4037  0.6757  0.2696
14569TIP3    H165122   0.152   4.188   4.867 -1.6051 -1.6118 -0.9023
14569TIP3    H265123   0.183   4.154   5.011 -1.0840  1.7234 -0.1472
14570TIP3   OH265124   2.972   1.228   1.288  0.6979 -0.6063  0.3424
14570TIP3    H165125   3.062   1.255   1.308  1.2071 -2.3044  0.5240
14570TIP3    H265126   2.919   1.307   1.303  2.3873  1.0444 -1.8066
14571TIP3   OH265127   0.545   2.344   4.629 -0.0563 -0.0246 -0.6085
14571TIP3    H165128   0.630   2.328   4.588 -0.7241 -0.1407 -2.0129
14571TIP3    H265129   0.509   2.420   4.582 -0.9585 -0.3141 -0.4141
14572TIP3   OH265130   3.192   6.753   4.407 -0.4974  0.0725  0.5000
14572TIP3    H165131   3.119   6.814   4.421  0.0077  1.2943 -1.6798
14572TIP3    H265132   3.205   6.711   4.492 -1.6424  2.1590  1.7944
14573TIP3   OH265133   3.768   3.181  15.542 -0.4521  0.1952  0.0936
14573TIP3    H165134   3.723   3.148  15.620 -1.6955 -0.0768 -0.7159
14573TIP3    H265135   3.704   3.238  15.499 -1.1203 -2.2916 -2.5229
14574TIP3   OH265136   0.754   0.963  10.453  0.8817 -0.5921 -0.3532
14574TIP3    H165137   0.732   0.878  10.493 -0.3946  0.1079  0.5103
14574TIP3    H265138   0.744   1.026  10.525  0.3931  0.4746 -1.3259
14575TIP3   OH265139   6.104   5.974   3.985  0.2657 -0.5185  0.0573
14575TIP3    H165140   6.120   5.919   4.062  3.5877 -1.1343 -0.9157
14575TIP3    H265141   6.132   5.920   3.911  0.6641  1.3564 -1.2267
14576TIP3   OH265142   2.798   1.949   3.997  0.1257  0.2236  0.1924
14576TIP3    H165143   2.847   1.884   3.946 -0.8841  0.6106 -1.3371
14576TIP3    H265144   2.706   1.927   3.982 -0.2142  0.6622  1.4803
14577TIP3   OH265145   5.405   6.689  13.281  0.3839  0.0243  0.5896
14577TIP3    H165146   5.380   6.717  13.369 -1.8436 -1.1795  0.4262
14577TIP3    H265147   5.440   6.600  13.294  0.8030  0.1486  0.3326
14578TIP3   OH265148   3.675   4.869  11.089 -0.3656  0.0390  0.1052
14578TIP3    H165149   3.698   4.812  11.016  0.0211 -1.7368  1.5378
14578TIP3    H265150   3.759   4.899  11.124 -0.5611  1.3248 -0.4661
14579TIP3   OH265151   0.827   4.479  16.387 -0.1632  0.0641 -0.1550
14579TIP3    H165152   0.795   4.541  16.321  1.1758 -0.9668 -1.8738
14579TIP3    H265153   0.848   4.533  16.463 -0.6676  1.4675 -0.9761
14580TIP3   OH265154   4.477   5.070  17.243 -0.3877 -0.5564 -0.0636
14580TIP3    H165155   4.398   5.102  17.286 -0.3020 -1.4587  0.8011
14580TIP3    H265156   4.495   5.135  17.174  0.2167  1.6691  2.0527
14581TIP3   OH265157   5.968   0.266   6.010 -0.9225 -0.3817  0.5161
14581TIP3    H165158   5.916   0.188   6.027 -1.7835 -0.2319 -1.1989
14581TIP3    H265159   6.054   0.246   6.047 -0.7531 -2.6609 -0.9173
14582TIP3   OH265160   6.580   0.813   3.440  0.8720 -0.2282 -0.2659
14582TIP3    H165161   6.507   0.811   3.377 -0.4091  0.2182  1.1600
14582TIP3    H265162   6.644   0.872   3.400  0.7520 -1.0785 -1.8179
14583TIP3   OH265163   0.400   3.939  11.562  0.4845 -0.4248  0.4223
14583TIP3    H165164   0.358   4.022  11.540 -0.4195 -1.0413 -0.2480
14583TIP3    H265165   0.354   3.873  11.509 -0.3391 -1.6700  2.5509
14584TIP3   OH265166   3.989   0.271  14.292 -0.0640  0.1036 -0.4443
14584TIP3    H165167   4.007   0.223  14.211  1.3724  1.9362 -1.2832
14584TIP3    H265168   3.910   0.322  14.273  1.0680  1.6239 -1.2561
14585TIP3   OH265169   1.501   6.261   6.087  0.4587 -0.4647  0.6250
14585TIP3    H165170   1.449   6.183   6.067  0.3776 -0.2964  0.1510
14585TIP3    H265171   1.528   6.293   6.001 -1.3662  1.2933  0.6438
14586TIP3   OH265172   2.834   0.231  16.177 -0.4724  0.3953 -0.5200
14586TIP3    H165173   2.753   0.206  16.132 -0.8257  0.3193  0.1498
14586TIP3    H265174   2.903   0.213  16.113 -0.4373 -4.1804  0.4870
14587TIP3   OH265175   6.364   0.075  16.168  0.3018 -0.2176  0.0855
14587TIP3    H165176   6.406   0.161  16.179 -0.0556  0.0895 -0.8730
14587TIP3    H265177   6.429   0.013  16.200  0.4619  0.4170  1.0625
14588TIP3   OH265178   4.427   5.663   4.738  0.8796  0.0739  0.2960
14588TIP3    H165179   4.458   5.599   4.674 -0.1352 -0.0502 -0.0902
14588TIP3    H265180   4.341   5.630   4.765  0.6986  0.8519  0.6905
14589TIP3   OH265181   5.050   0.457  15.197  0.2030  0.0615  0.1935
14589TIP3    H165182   5.007   0.466  15.282 -0.5721 -1.7472  0.0424
14589TIP3    H265183   5.064   0.547  15.167 -1.1040  0.7134  1.4442
14590TIP3   OH265184   3.322   4.819   2.587 -0.0077  0.9896  0.0341
14590TIP3    H165185   3.248   4.778   2.543 -0.7938  1.6133  0.7446
14590TIP3    H265186   3.288   4.902   2.620  0.4257  0.3956  2.1215
14591TIP3   OH265187   3.468   2.918  15.610 -0.2436  0.1810 -0.1300
14591TIP3    H165188   3.521   2.989  15.575 -0.2287  0.5101  0.5486
14591TIP3    H265189   3.493   2.841  15.558  0.3835  0.4835 -0.2820
14592TIP3   OH265190   2.989   4.410   3.864  0.2450  0.4884  0.8463
14592TIP3    H165191   2.999   4.351   3.939 -0.4207 -0.0047  0.5670
14592TIP3    H265192   2.895   4.407   3.845  0.4570  0.3595 -0.2025
14593TIP3   OH265193   1.890   2.870  10.832 -0.3177 -0.8061 -0.1884
14593TIP3    H165194   1.896   2.832  10.744  0.5588  0.3405 -0.6394
14593TIP3    H265195   1.805   2.913  10.834 -0.1384 -0.4248 -0.6492
14594TIP3   OH265196   3.597   1.319   5.165  0.4070  0.7537  0.2781
14594TIP3    H165197   3.627   1.361   5.085  1.6730 -1.0365 -0.2686
14594TIP3    H265198   3.631   1.374   5.236  1.7738  0.8337 -0.4096
14595TIP3   OH265199   3.974   3.360  16.114 -0.9675 -0.8135  0.3095
14595TIP3    H165200   4.070   3.364  16.112 -0.9874 -0.4983 -0.3638
14595TIP3    H265201   3.952   3.270  16.089 -0.8476 -0.8955  0.5003
14596TIP3   OH265202   4.093   6.500   1.691  0.3371  0.4123  0.0783
14596TIP3    H165203   4.051   6.516   1.775  1.8152 -0.6539  1.0822
14596TIP3    H265204   4.116   6.587   1.659  2.4013  0.7786  2.2625
14597TIP3   OH265205   0.853   4.865   0.775  0.1123 -0.1140 -0.4737
14597TIP3    H165206   0.869   4.954   0.745  0.9963 -0.2602 -0.4618
14597TIP3    H265207   0.780   4.873   0.836 -0.4505  0.4520 -1.2126
14598TIP3   OH265208   4.342   5.104   4.381 -0.3980 -0.1908 -0.1645
14598TIP3    H165209   4.399   5.065   4.448 -0.9098  0.7736  0.8670
14598TIP3    H265210   4.346   5.042   4.308  0.0055 -1.3959  0.8320
14599TIP3   OH265211   4.361   2.562   4.925 -0.6068 -0.1442 -0.3805
14599TIP3    H165212   4.317   2.490   4.880 -2.4146  1.4045 -1.1995
14599TIP3    H265213   4.293   2.604   4.976  1.2277 -1.3927  3.4533
14600TIP3   OH265214   3.647   0.470  10.823 -0.4244 -0.0188  0.4138
14600TIP3    H165215   3.631   0.562  10.842 -1.6683 -0.1598  0.1589
14600TIP3    H265216   3.570   0.442  10.774 -0.0436 -1.1863  0.4415
14601TIP3   OH265217   3.006   6.039  15.699 -0.2578  0.0607 -0.5618
14601TIP3    H165218   2.928   6.026  15.753  0.7518  0.2072  0.9959
14601TIP3    H265219   3.079   6.015  15.756  0.8522 -0.1215 -1.9956
14602TIP3   OH265220   0.233   5.887   3.586 -0.2609 -0.2907  0.3608
14602TIP3    H165221   0.176   5.811   3.593  1.1690 -1.3806  0.6523
14602TIP3    H265222   0.219   5.920   3.497  0.6533 -2.2097 -0.5447
14603TIP3   OH265223   2.024   3.653   1.436  0.3713 -0.1622  0.4093
14603TIP3    H165224   1.966   3.587   1.471  0.3384  0.4005  1.4458
14603TIP3    H265225   2.017   3.643   1.341 -0.8074 -0.6176  0.5280
14604TIP3   OH265226   5.839   6.522   0.727  0.5784  0.3322  0.9119
14604TIP3    H165227   5.898   6.447   0.729  1.8610  1.1738 -1.4700
14604TIP3    H265228   5.819   6.534   0.634 -1.8344  1.2650  1.4913
14605TIP3   OH265229   2.564   2.138  14.730 -0.7313 -0.5125 -0.2938
14605TIP3    H165230   2.552   2.183  14.814 -0.4498 -1.6370  0.3804
14605TIP3    H265231   2.640   2.081  14.745  0.7373  0.8855 -2.0317
14606TIP3   OH265232   6.380   3.206  13.522 -0.2187 -0.1067  0.0648
14606TIP3    H165233   6.308   3.152  13.490 -0.9655  0.7613  0.2198
14606TIP3    H265234   6.447   3.144  13.551 -0.4769 -0.9158 -1.0367
14607TIP3   OH265235   1.967   1.361   0.383 -0.1480  0.2373  0.2388
14607TIP3    H165236   1.911   1.417   0.330 -0.2733  0.3221  0.4582
14607TIP3    H265237   1.947   1.386   0.473  0.2267  0.2496  0.3200
14608TIP3   OH265238   0.412   4.621  15.533 -0.2393 -0.5349  0.1543
14608TIP3    H165239   0.448   4.677  15.464  0.6192  1.2927  2.0050
14608TIP3    H265240   0.393   4.680  15.605 -2.2411 -2.2150  1.1192
14609TIP3   OH265241   3.066   0.931   5.770  0.5891 -0.1967  0.0963
14609TIP3    H165242   2.983   0.968   5.742 -0.6438 -3.0233 -0.3505
14609TIP3    H265243   3.103   0.892   5.690  0.3085 -2.4945  1.0133
14610TIP3   OH265244   0.533   3.125  16.918 -0.1672  0.2332 -0.0905
14610TIP3    H165245   0.550   3.215  16.947  1.7002 -0.1048 -0.0084
14610TIP3    H265246   0.538   3.130  16.822 -0.0763  0.2086 -0.0867
14611TIP3   OH265247   6.048   0.960   0.983 -0.1546  0.1426 -0.4992
14611TIP3    H165248   6.108   0.936   1.053 -0.5768  0.9395  0.1499
14611TIP3    H265249   5.991   1.026   1.021  0.2083  1.3121 -1.8602
14612TIP3   OH265250   5.376   0.089   4.239 -0.4386 -0.0901 -0.3553
14612TIP3    H165251   5.347   0.161   4.295 -3.3142 -1.6081  0.2928
14612TIP3    H265252   5.453   0.054   4.283 -0.8168  0.6914  0.9687
14613TIP3   OH265253   1.552   3.429   2.591 -0.3812 -0.1956 -0.3536
14613TIP3    H165254   1.518   3.509   2.553  0.4532 -0.8957 -2.7841
14613TIP3    H265255   1.635   3.414   2.545 -0.1418 -2.0570  0.5760
14614TIP3   OH265256   1.106   5.371  11.903 -0.5635 -0.5304  0.1494
14614TIP3    H165257   1.156   5.314  11.844  1.3124  1.5540 -0.3987
14614TIP3    H265258   1.155   5.368  11.986  0.0870  0.9082 -0.1507
14615TIP3   OH265259   0.785   0.940   0.186 -0.0961 -0.8150  0.2087
14615TIP3    H165260   0.730   0.933   0.265  0.2120  1.0904  0.6272
14615TIP3    H265261   0.874   0.948   0.219  0.1755 -1.3267 -0.3862
14616TIP3   OH265262   5.327   3.891  16.589  0.8480  0.3004 -0.2738
14616TIP3    H165263   5.389   3.819  16.574 -0.6659 -1.0918 -0.1204
14616TIP3    H265264   5.243   3.847  16.602 -0.1920  2.1498 -0.5469
14617TIP3   OH265265   5.821   2.439  12.676 -0.1041 -0.2726  0.1398
14617TIP3    H165266   5.906   2.427  12.718 -0.4583  0.4177  1.0951
14617TIP3    H265267   5.758   2.440  12.749 -0.7885  0.5157 -0.4375
14618TIP3   OH265268   4.930   0.003  15.636  0.2536 -0.5431 -0.4198
14618TIP3    H165269   4.966   0.073  15.690 -1.9885  0.6392 -0.3296
14618TIP3    H265270   4.872  -0.045  15.695 -0.9025 -0.2971 -1.3207
14619TIP3   OH265271   6.301   3.369   6.021  0.7519 -0.6532  0.3970
14619TIP3    H165272   6.394   3.374   5.999  0.3561 -1.7160 -1.8158
14619TIP3    H265273   6.263   3.449   5.984  0.3743 -1.6127 -1.4496
14620TIP3   OH265274   5.457   2.834  13.540 -0.0124 -0.3039 -0.3522
14620TIP3    H165275   5.455   2.783  13.459  0.0246 -0.8200 -0.0336
14620TIP3    H265276   5.545   2.823  13.574  1.0291  2.4527 -1.8041
14621TIP3   OH265277   0.587   3.986  15.318  0.2079 -0.2525 -0.2481
14621TIP3    H165278   0.580   3.912  15.258 -0.6475 -0.4681  0.1090
14621TIP3    H265279   0.578   4.063  15.261 -0.8781 -0.4577 -0.3823
14622TIP3   OH265280   5.831   4.092   5.402  0.1557  0.1221 -0.4101
14622TIP3    H165281   5.868   4.179   5.393 -1.0919  0.6480 -0.5951
14622TIP3    H265282   5.747   4.096   5.355 -1.2098 -0.3677  1.8314
14623TIP3   OH265283   2.881   3.889   5.544  0.3940  0.3506  0.0634
14623TIP3    H165284   2.938   3.965   5.532  1.8624 -0.7426 -0.1462
14623TIP3    H265285   2.865   3.857   5.455  0.3816 -0.0043  0.1929
14624TIP3   OH265286   5.958   1.195   0.387 -0.4513  0.3403  0.1288
14624TIP3    H165287   5.895   1.132   0.422 -0.0307 -0.8346 -1.1621
14624TIP3    H265288   6.038   1.179   0.437 -0.4194  0.0265 -0.0219
14625TIP3   OH265289   3.033   3.507  15.340 -0.4161  0.5687 -0.1300
14625TIP3    H165290   2.990   3.453  15.274 -0.5930  0.6097 -0.0494
14625TIP3    H265291   3.014   3.463  15.423 -0.2470  0.5508 -0.0990
14626TIP3   OH265292   0.947   5.716   5.833 -0.2035 -0.0767 -0.1565
14626TIP3    H165293   0.885   5.642   5.831 -0.6692  0.3099 -1.6610
14626TIP3    H265294   0.924   5.764   5.912  0.3160 -1.6852  1.0446
14627TIP3   OH265295   3.469   3.203   4.727 -0.0906  0.4047  0.0879
14627TIP3    H165296   3.480   3.153   4.809 -0.7718 -1.2434 -0.7729
14627TIP3    H265297   3.415   3.278   4.752  0.0857  0.1809  1.2346
14628TIP3   OH265298   1.099   6.473  14.853 -0.3223 -0.0135 -0.0615
14628TIP3    H165299   1.071   6.382  14.852  0.5699 -0.2945 -0.7182
14628TIP3    H265300   1.072   6.507  14.768 -0.7651  0.3691  0.2323
14629TIP3   OH265301   2.843   3.665  15.518 -0.4022  0.1310 -0.4748
14629TIP3    H165302   2.859   3.760  15.516  1.4741 -0.1463 -0.5686
14629TIP3    H265303   2.855   3.637  15.428 -1.4201 -0.1482 -0.5346
14630TIP3   OH265304   4.064   3.703  14.329  0.8335 -0.1541 -0.8989
14630TIP3    H165305   4.065   3.682  14.235  3.5540  0.4072 -1.0848
14630TIP3    H265306   4.053   3.619  14.372  1.5937 -0.6971 -1.7249
14631TIP3   OH265307   5.095   2.233  15.715 -0.0124 -0.3606  0.1853
14631TIP3    H165308   5.053   2.289  15.781  0.5000 -0.8288  0.9273
14631TIP3    H265309   5.155   2.292  15.669 -1.5508  0.3584 -1.0044
14632TIP3   OH265310   4.333   2.120   2.589 -0.0780  0.2473 -0.0768
14632TIP3    H165311   4.387   2.151   2.517  1.1091 -2.9770 -0.7160
14632TIP3    H265312   4.274   2.056   2.550  0.1760 -1.1500  1.6821
14633TIP3   OH265313   5.085   1.549   4.410 -0.0844  0.1101  0.4571
14633TIP3    H165314   5.049   1.481   4.468 -0.4092 -0.4119 -0.3381
14633TIP3    H265315   5.159   1.585   4.459 -0.7209  0.1117  1.4611
14634TIP3   OH265316   5.323   6.237  11.393  0.2843  0.2685 -0.3505
14634TIP3    H165317   5.397   6.192  11.353  1.1880  1.0499  0.4069
14634TIP3    H265318   5.336   6.227  11.487 -1.0305 -0.2867 -0.1920
14635TIP3   OH265319   5.495   3.787   3.472  0.1789 -0.6343  0.1601
14635TIP3    H165320   5.458   3.705   3.504 -1.6677 -0.3973 -1.2061
14635TIP3    H265321   5.472   3.852   3.539  0.7829 -1.0240  0.7603
14636TIP3   OH265322   3.579   4.547  14.820 -0.1009  0.2341  0.1882
14636TIP3    H165323   3.610   4.631  14.787  1.3471 -0.0480  0.7655
14636TIP3    H265324   3.547   4.566  14.909 -1.0022  0.3925 -0.1531
14637TIP3   OH265325   6.574   5.392   0.612 -0.3085  0.0620  0.1603
14637TIP3    H165326   6.576   5.299   0.636 -0.9003  0.6722  2.9403
14637TIP3    H265327   6.605   5.394   0.521 -1.9802 -3.0201 -0.6294
14638TIP3   OH265328   1.220   2.875  13.361 -0.4964  0.3232  0.3018
14638TIP3    H165329   1.194   2.804  13.302  1.5607 -1.6093  1.5524
14638TIP3    H265330   1.173   2.856  13.442  0.6943 -0.1582  0.9064
14639TIP3   OH265331   4.516   0.432  16.764  0.5621  0.4200 -0.6135
14639TIP3    H165332   4.437   0.413  16.713  0.6661 -2.4784  0.1028
14639TIP3    H265333   4.485   0.437  16.854  1.1526 -0.9171 -0.3061
14640TIP3   OH265334   1.268   5.531   4.057 -0.3387  0.0234  0.1939
14640TIP3    H165335   1.226   5.607   4.016  0.1376  0.0392 -0.2649
14640TIP3    H265336   1.242   5.457   4.002  0.5702  0.0903 -0.3443
14641TIP3   OH265337   4.964   3.812   1.052 -0.0282 -0.8499 -0.3088
14641TIP3    H165338   5.030   3.752   1.017 -0.2232 -1.3432  0.1599
14641TIP3    H265339   4.937   3.865   0.976  0.8205 -0.7137 -0.5287
14642TIP3   OH265340   3.131   4.538   6.243 -0.0367  0.3638  0.2025
14642TIP3    H165341   3.209   4.587   6.269  0.0466  1.6167 -2.1635
14642TIP3    H265342   3.136   4.456   6.293  2.4670  0.6681  0.5609
14643TIP3   OH265343   2.870   0.571  11.398  0.2891 -0.0370  0.1615
14643TIP3    H165344   2.964   0.571  11.416  0.2872  0.6898  0.1852
14643TIP3    H265345   2.862   0.535  11.310  0.4205 -2.1152  0.9252
14644TIP3   OH265346   4.646   3.039  16.546  0.1816  0.6588  0.2581
14644TIP3    H165347   4.681   3.080  16.467  2.5889  0.9722  1.3938
14644TIP3    H265348   4.720   3.034  16.606 -0.8667 -2.1092  1.5184
14645TIP3   OH265349   2.347   2.854  13.825  0.2854 -0.0683 -0.0541
14645TIP3    H165350   2.395   2.793  13.770  1.0982 -0.6023  1.2018
14645TIP3    H265351   2.415   2.898  13.877 -0.4641  0.3076  0.6314
14646TIP3   OH265352   0.440   5.592  11.922  0.4924 -0.2408  0.3963
14646TIP3    H165353   0.448   5.655  11.994  1.7658  0.3417 -0.2203
14646TIP3    H265354   0.349   5.597  11.895  0.3060  0.4687  1.1382
14647TIP3   OH265355   2.447   2.653   0.366  0.2141  0.3325  0.3128
14647TIP3    H165356   2.369   2.701   0.392  0.2822  0.6360 -0.0271
14647TIP3    H265357   2.497   2.644   0.447  0.4534  1.3132  0.2971
14648TIP3   OH265358   4.850   3.881   3.844 -0.2260  0.5004  0.2003
14648TIP3    H165359   4.887   3.970   3.843  0.1483  0.3448  0.2696
14648TIP3    H265360   4.890   3.839   3.920  1.9039 -0.7106 -1.4992
14649TIP3   OH265361   2.599   0.849  12.346 -0.4627  0.4602  0.1066
14649TIP3    H165362   2.604   0.760  12.310  0.6212 -0.5581  2.5950
14649TIP3    H265363   2.631   0.905  12.275  2.1891 -1.4908 -0.3816
14650TIP3   OH265364   3.575   2.512  16.288  0.0932 -0.4689 -0.1525
14650TIP3    H165365   3.580   2.432  16.340 -0.0423 -1.0134 -0.9546
14650TIP3    H265366   3.664   2.525  16.254  0.3534  0.2770  0.7587
14651TIP3   OH265367   2.261   4.372   1.512  0.2108  0.4173 -0.2235
14651TIP3    H165368   2.184   4.325   1.480  0.0091 -1.8147  3.0354
14651TIP3    H265369   2.226   4.456   1.544 -0.5954  0.0736 -0.1677
14652TIP3   OH265370   1.944   3.319   4.139  0.2151 -0.0759  0.1797
14652TIP3    H165371   1.914   3.402   4.101  0.5722  0.2094  0.5165
14652TIP3    H265372   1.898   3.252   4.088  2.4029  0.1863 -2.3738
14653TIP3   OH265373   5.884   4.291   3.379  0.0091  0.0365 -0.0157
14653TIP3    H165374   5.907   4.378   3.410 -1.3665  0.7020 -0.7555
14653TIP3    H265375   5.917   4.288   3.289 -0.5669  0.0716 -0.2316
14654TIP3   OH265376   2.382   3.801  12.739  0.4830 -0.1780  0.0247
14654TIP3    H165377   2.322   3.868  12.772  1.0120 -0.0119  0.6505
14654TIP3    H265378   2.467   3.826  12.773  0.5011 -1.8312  1.2811
14655TIP3   OH265379   4.151   4.918  16.899  0.0615 -0.4705 -0.6747
14655TIP3    H165380   4.111   4.987  16.952 -1.0667 -0.6124 -1.2893
14655TIP3    H265381   4.147   4.840  16.953  2.2307  0.1018  0.4056
14656TIP3   OH265382   2.102   0.613   1.320  0.5489 -0.4043  0.0869
14656TIP3    H165383   2.086   0.530   1.276 -0.5973  0.8226 -1.9579
14656TIP3    H265384   2.017   0.638   1.356  1.2934 -0.9921  2.4368
14657TIP3   OH265385   1.437   5.299   3.071  0.1101 -0.1976 -0.1921
14657TIP3    H165386   1.464   5.335   3.155  1.2152  1.4912 -1.2316
14657TIP3    H265387   1.418   5.207   3.090  1.6082 -0.1887  1.6368
14658TIP3   OH265388   0.741   2.543   4.254  0.0910  0.4050  0.0818
14658TIP3    H165389   0.729   2.509   4.165 -3.3177  1.4142  0.0161
14658TIP3    H265390   0.712   2.634   4.249 -1.9163  0.0147  2.4963
14659TIP3   OH265391   6.694   1.949  16.695  0.0402 -0.4615  0.2474
14659TIP3    H165392   6.610   1.930  16.737  1.3146 -4.0969  1.5277
14659TIP3    H265393   6.734   2.016  16.750 -1.9597  1.3930 -0.4361
14660TIP3   OH265394   3.334   3.637  13.753  0.0059  0.0710 -0.3899
14660TIP3    H165395   3.412   3.589  13.781 -1.3147 -0.8209  2.0893
14660TIP3    H265396   3.359   3.729  13.759 -0.2027  0.0962  4.7616
14661TIP3   OH265397   0.703   4.672   3.533 -0.1190 -0.1086 -0.5917
14661TIP3    H165398   0.710   4.647   3.625 -0.3508  1.8893  0.0021
14661TIP3    H265399   0.783   4.721   3.515 -1.2615  1.8013 -0.6779
14662TIP3   OH265400   0.838   6.094  14.631 -0.4253 -0.2301 -0.6720
14662TIP3    H165401   0.904   6.161  14.614  0.0415 -0.7210 -0.8247
14662TIP3    H265402   0.886   6.011  14.625 -0.3257 -0.4903  2.4434
14663TIP3   OH265403   4.200   5.707   5.995 -0.2432 -0.7534  0.2782
14663TIP3    H165404   4.134   5.746   6.052 -0.3773 -0.8071  0.1589
14663TIP3    H265405   4.153   5.683   5.915  0.1329  0.2159 -0.2484
14664TIP3   OH265406   0.973   0.437  14.498  0.6190 -0.0852 -0.1545
14664TIP3    H165407   0.984   0.514  14.554  1.1133 -0.5922  0.4572
14664TIP3    H265408   0.925   0.375  14.553 -1.2672  0.3642 -1.1964
14665TIP3   OH265409   4.332   4.077  17.220 -0.0255 -0.4229 -0.1934
14665TIP3    H165410   4.300   4.020  17.150 -0.9873  0.4975 -0.5295
14665TIP3    H265411   4.281   4.158  17.210  0.6640  0.1556  0.8376
14666TIP3   OH265412   6.704   5.005   4.815 -0.4084 -0.6889  0.6808
14666TIP3    H165413   6.617   5.044   4.826 -0.3157 -0.6787  1.5013
14666TIP3    H265414   6.690   4.911   4.823 -0.7225 -0.9188 -1.9317
14667TIP3   OH265415   2.746   4.847   6.446  0.2367 -0.1033 -0.0876
14667TIP3    H165416   2.792   4.798   6.377 -0.0070  0.1610 -0.4376
14667TIP3    H265417   2.816   4.881   6.501  0.4405 -0.2244 -0.2678
14668TIP3   OH265418   2.665   3.849  17.108 -0.1530 -0.0568 -0.0407
14668TIP3    H165419   2.692   3.813  17.024  0.8395 -0.6269  0.5101
14668TIP3    H265420   2.603   3.918  17.085 -2.5056 -2.3511 -1.1333
14669TIP3   OH265421   3.901   4.086   3.821 -0.1491  0.0749  0.0691
14669TIP3    H165422   3.850   4.005   3.828 -2.1757  1.3465  0.8124
14669TIP3    H265423   3.874   4.124   3.738  1.1653 -0.2057 -0.5137
14670TIP3   OH265424   1.661   5.396   3.784  0.3779 -0.8684 -0.1494
14670TIP3    H165425   1.723   5.450   3.735  1.9910 -2.5462 -0.0881
14670TIP3    H265426   1.579   5.445   3.781  1.0856  0.3535 -2.2684
14671TIP3   OH265427   0.603   2.880   3.928 -0.5719  0.0902  0.5181
14671TIP3    H165428   0.518   2.843   3.952 -0.4981 -1.0366 -0.8878
14671TIP3    H265429   0.591   2.975   3.939 -3.0754  0.3073 -2.5993
14672TIP3   OH265430   0.752   5.635  12.164  0.0595 -0.2407 -0.3976
14672TIP3    H165431   0.747   5.682  12.247  2.7903 -1.2178  0.4336
14672TIP3    H265432   0.661   5.629  12.135 -0.8129  1.7434  1.5586
14673TIP3   OH265433   4.115   4.346   2.102  0.1807 -0.1856 -0.4489
14673TIP3    H165434   4.112   4.288   2.026 -2.5896  0.1110 -0.6467
14673TIP3    H265435   4.026   4.346   2.136  0.8210  1.5389  1.4130
14674TIP3   OH265436   4.114   6.116  13.014  0.5415 -0.3014 -0.1586
14674TIP3    H165437   4.141   6.189  13.070  0.4433  0.4311 -1.0235
14674TIP3    H265438   4.076   6.159  12.937  0.5951 -1.2775 -0.7436
14675TIP3   OH265439   4.067   6.171  11.087 -0.4762  0.5446  0.1518
14675TIP3    H165440   3.989   6.149  11.138  1.7892 -3.2766  2.4702
14675TIP3    H265441   4.124   6.217  11.148  0.0093  1.1911 -0.7696
14676TIP3   OH265442   6.543   5.499  14.424 -1.2469  0.0130 -0.1586
14676TIP3    H165443   6.537   5.406  14.402  0.1819 -0.7994  2.4103
14676TIP3    H265444   6.498   5.507  14.508  0.7468  1.0511  0.9068
14677TIP3   OH265445   4.166   6.714   2.321  0.0446 -0.3570 -0.2561
14677TIP3    H165446   4.110   6.702   2.244 -0.4829  0.1533  0.0388
14677TIP3    H265447   4.212   6.796   2.304 -1.7021  0.9462  0.9179
14678TIP3   OH265448   3.858   5.014   4.266 -0.1934 -0.0738 -0.4777
14678TIP3    H165449   3.871   5.095   4.315  1.6349 -1.8746  2.2552
14678TIP3    H265450   3.896   5.032   4.180 -0.4209  2.1372 -0.1689
14679TIP3   OH265451   4.870   5.068   3.358 -0.2002 -0.4104  0.6457
14679TIP3    H165452   4.819   5.063   3.277  0.6143  0.1307  0.0805
14679TIP3    H265453   4.942   5.128   3.337 -0.7773  0.9146  2.2186
14680TIP3   OH265454   3.589   1.606   0.053  0.1783 -0.6205 -0.0816
14680TIP3    H165455   3.629   1.533   0.101  0.5742 -0.1194  0.3576
14680TIP3    H265456   3.584   1.575  -0.038  2.4050 -0.3692 -0.3468
14681TIP3   OH265457   3.154   4.444  15.828  0.6333  0.7698 -0.1137
14681TIP3    H165458   3.198   4.496  15.896 -0.9855  2.6773 -0.4077
14681TIP3    H265459   3.065   4.435  15.860  0.1875  0.5706 -1.3821
14682TIP3   OH265460   4.883   3.221  14.065 -0.3238  0.0382  0.2125
14682TIP3    H165461   4.916   3.298  14.111 -1.7005  0.4967  0.5070
14682TIP3    H265462   4.867   3.156  14.133  0.9842 -0.5813 -0.0546
14683TIP3   OH265463   3.638   3.412  15.516  0.5157 -0.1014 -0.9340
14683TIP3    H165464   3.550   3.449  15.509  1.0895  1.2549 -1.2533
14683TIP3    H265465   3.665   3.396  15.426  1.5316  1.8353 -1.0176
14684TIP3   OH265466   2.845   5.960   5.065  0.2858 -0.0148  0.5315
14684TIP3    H165467   2.912   5.973   5.132 -0.1637 -0.1708  1.0161
14684TIP3    H265468   2.890   5.913   4.995 -0.0405 -3.0482  2.1873
14685TIP3   OH265469   2.606   4.780   4.307  1.1356 -0.2548 -0.5282
14685TIP3    H165470   2.640   4.823   4.228  0.6782  0.9539 -0.0886
14685TIP3    H265471   2.631   4.838   4.379  2.7968 -2.0551  0.4277
14686TIP3   OH265472   2.352   1.537   0.732  0.2568 -0.7309 -0.0117
14686TIP3    H165473   2.324   1.475   0.665 -0.3561 -0.7084  0.2176
14686TIP3    H265474   2.271   1.578   0.762  0.5636 -0.4762  0.4833
14687TIP3   OH265475   0.925   5.757   1.562 -0.4507 -0.1889 -0.3815
14687TIP3    H165476   0.987   5.830   1.553 -2.3596  1.5966  0.1260
14687TIP3    H265477   0.931   5.711   1.478  1.9141 -0.4463 -0.1524
14688TIP3   OH265478   2.262   2.846   1.655 -0.0904  0.0169 -0.0631
14688TIP3    H165479   2.175   2.830   1.619 -0.6278  0.0176  1.1903
14688TIP3    H265480   2.311   2.765   1.638  0.0196  0.3884 -1.6945
14689TIP3   OH265481   5.893   3.397  11.720  0.0353 -0.3311 -0.2550
14689TIP3    H165482   5.937   3.343  11.654 -0.4187 -0.2468 -0.6310
14689TIP3    H265483   5.807   3.414  11.683 -0.5530 -1.0171  0.7399
14690TIP3   OH265484   4.039   6.177   4.293  0.4618 -0.1402 -0.0276
14690TIP3    H165485   3.989   6.155   4.215  1.9448 -1.5748 -0.6525
14690TIP3    H265486   4.059   6.092   4.334  1.3633  0.4511  0.8189
14691TIP3   OH265487   3.880   5.714  13.685  0.8883 -0.1385 -0.1930
14691TIP3    H165488   3.835   5.630  13.675  0.8261 -0.2890  1.2248
14691TIP3    H265489   3.819   5.768  13.734  1.1678  0.5594 -0.6003
14692TIP3   OH265490   3.406   1.716   5.764 -0.5800 -0.8775 -0.2077
14692TIP3    H165491   3.439   1.667   5.689 -0.4395  0.4568 -1.0546
14692TIP3    H265492   3.328   1.669   5.792  0.9491 -3.0420  0.6646
14693TIP3   OH265493   1.715   4.885  13.779  0.2875 -0.3372 -0.7520
14693TIP3    H165494   1.703   4.792  13.801  0.2266 -0.8009 -2.6263
14693TIP3    H265495   1.631   4.912  13.742  0.2260  0.5649 -0.0073
14694TIP3   OH265496   2.860   1.958   1.711  0.4740 -0.2292 -0.4547
14694TIP3    H165497   2.917   2.034   1.703  2.5909 -1.6757  0.0505
14694TIP3    H265498   2.917   1.888   1.744 -2.1210 -1.1730  2.5047
14695TIP3   OH265499   1.253   0.854  11.744  0.0143  0.1237 -0.0345
14695TIP3    H165500   1.298   0.781  11.701  1.1613  1.1550 -0.6650
14695TIP3    H265501   1.201   0.895  11.674 -0.6356 -0.0881  0.3174
14696TIP3   OH265502   2.087   6.446  14.474 -0.7949  0.3084 -0.6421
14696TIP3    H165503   2.087   6.533  14.512 -0.5402 -0.3548  0.9395
14696TIP3    H265504   2.166   6.404  14.507 -1.6527 -1.0129 -0.1485
14697TIP3   OH265505   0.657   0.238  14.111 -0.2995 -0.2480 -0.3205
14697TIP3    H165506   0.733   0.184  14.133  0.5233  0.3330 -1.6166
14697TIP3    H265507   0.582   0.185  14.138  0.5384 -0.4585  1.8530
14698TIP3   OH265508   5.688   3.060   5.383  0.3026  0.6197 -0.3844
14698TIP3    H165509   5.638   3.119   5.326 -0.8990  2.4239  2.3051
14698TIP3    H265510   5.730   2.998   5.323 -1.1177  2.1325 -3.1451
14699TIP3   OH265511   2.212   1.082  16.678  0.5136 -0.2703 -0.1972
14699TIP3    H165512   2.226   1.177  16.673 -1.2461 -0.0341 -1.7700
14699TIP3    H265513   2.157   1.070  16.756  1.0092 -0.0437  0.1922
14700TIP3   OH265514   6.047   4.859   0.523 -0.3020 -0.0049 -0.0635
14700TIP3    H165515   5.987   4.785   0.535 -1.4534  0.8730 -0.1894
14700TIP3    H265516   6.043   4.907   0.606  0.9176 -0.4026  0.2415
14701TIP3   OH265517   3.823   6.528   2.996  0.1905 -0.7130 -0.3438
14701TIP3    H165518   3.791   6.460   3.054  1.7028 -0.9637  0.2510
14701TIP3    H265519   3.916   6.537   3.019 -0.1853  2.3191  0.3951
14702TIP3   OH265520   6.248   5.318  16.313  0.2981  0.1658  0.7671
14702TIP3    H165521   6.273   5.252  16.378 -1.2568 -0.1041  1.1412
14702TIP3    H265522   6.204   5.268  16.244  0.9693  0.5805  0.0216
14703TIP3   OH265523   2.147   2.658   1.284 -0.1311 -0.1054  0.6560
14703TIP3    H165524   2.106   2.605   1.353  0.4801 -1.7713 -0.1988
14703TIP3    H265525   2.233   2.617   1.270  0.0802  0.6950 -0.5429
14704TIP3   OH265526   5.974   5.869  16.450  0.0266 -0.0796  0.3748
14704TIP3    H165527   6.017   5.791  16.413  0.2282  0.3143 -0.2312
14704TIP3    H265528   5.906   5.892  16.387  0.7563  0.9446 -0.0616
14705TIP3   OH265529   2.501   4.736   1.915 -0.2138 -0.4907 -0.0255
14705TIP3    H165530   2.517   4.679   1.991 -0.9080  0.6452  1.0085
14705TIP3    H265531   2.474   4.676   1.846 -0.2969 -1.4846  0.8437
14706TIP3   OH265532   2.935   5.590  11.407 -0.2018  0.2623  0.5473
14706TIP3    H165533   2.997   5.551  11.468  1.1046  0.7979 -0.3832
14706TIP3    H265534   2.971   5.572  11.320 -1.0347  1.0915  0.0007
14707TIP3   OH265535   5.361   1.199  11.591  0.2463  0.2158  0.1154
14707TIP3    H165536   5.280   1.154  11.568 -0.3343  2.0073 -1.7001
14707TIP3    H265537   5.343   1.239  11.676  0.1473 -1.4053  0.8912
14708TIP3   OH265538   5.893   6.151  13.460 -0.6184 -0.3202 -0.0058
14708TIP3    H165539   5.978   6.115  13.487 -1.2034 -1.0582  0.9143
14708TIP3    H265540   5.888   6.236  13.504 -0.8918 -0.8395  1.0125
14709TIP3   OH265541   5.184   6.415   3.958  0.1832 -0.5049  0.3632
14709TIP3    H165542   5.189   6.508   3.977 -1.8261 -0.6099  1.7532
14709TIP3    H265543   5.202   6.372   4.042  0.4544 -1.3641 -0.1161
14710TIP3   OH265544   1.256   1.649   5.720 -0.5022 -0.0034 -0.3872
14710TIP3    H165545   1.185   1.666   5.783  0.0739  0.8131  0.0535
14710TIP3    H265546   1.250   1.555   5.703 -0.5303 -0.2893  1.0624
14711TIP3   OH265547   0.222   0.496  14.085 -0.2442  0.6367 -0.4741
14711TIP3    H165548   0.275   0.426  14.123 -0.5117 -0.4010 -1.9240
14711TIP3    H265549   0.236   0.571  14.143  0.6596 -0.3841  0.6841
14712TIP3   OH265550   6.602   4.915  16.825 -0.1670 -0.2375  0.1070
14712TIP3    H165551   6.597   4.857  16.749  0.5567 -0.7355  0.4273
14712TIP3    H265552   6.653   4.865  16.889 -0.5248  0.2963  0.8097
14713TIP3   OH265553   4.663   5.997   1.800 -0.4713  0.0577  0.4700
14713TIP3    H165554   4.620   5.911   1.803 -2.1243  0.7945 -0.6381
14713TIP3    H265555   4.755   5.978   1.818 -0.2815 -2.3195 -2.3200
14714TIP3   OH265556   4.004   4.632   2.234 -0.5129 -0.3190 -0.1796
14714TIP3    H165557   4.063   4.664   2.303 -0.2275 -0.1688 -0.4948
14714TIP3    H265558   4.059   4.579   2.178 -0.6614 -0.1088 -0.5251
14715TIP3   OH265559   0.372   0.086   1.482 -0.6141  0.0658  0.1944
14715TIP3    H165560   0.367  -0.009   1.496 -0.6761  0.1449  0.7083
14715TIP3    H265561   0.406   0.121   1.564  0.1143  0.4195 -0.2442
14716TIP3   OH265562   2.899   0.378  13.984  0.3952 -0.0690 -0.2086
14716TIP3    H165563   2.843   0.333  14.047  0.0384  1.5216  0.6539
14716TIP3    H265564   2.932   0.308  13.927  0.7115 -1.5586  1.7091
14717TIP3   OH265565   1.684   3.028   0.906 -0.3594  0.0895 -0.4280
14717TIP3    H165566   1.650   3.105   0.861 -0.1498  0.5741  0.2200
14717TIP3    H265567   1.755   3.062   0.961 -0.7608 -0.4297  0.4416
14718TIP3   OH265568   1.526   3.477   5.012 -0.6490 -0.1813 -0.6369
14718TIP3    H165569   1.447   3.527   4.994 -0.3810  0.5635  0.1894
14718TIP3    H265570   1.575   3.480   4.930 -1.0024  0.2382 -0.8392
14719TIP3   OH265571   4.715   0.001  14.874  0.0769  0.4115 -0.2519
14719TIP3    H165572   4.754   0.082  14.840 -1.3443  1.1435 -0.2496
14719TIP3    H265573   4.761  -0.069  14.829  0.3153  1.2778 -1.4152
14720TIP3   OH265574   0.416   4.277   1.784 -0.1033 -0.1015 -0.0914
14720TIP3    H165575   0.323   4.292   1.772 -0.1176 -0.4415 -0.4303
14720TIP3    H265576   0.432   4.293   1.877 -0.9563 -2.4441  0.5082
14721TIP3   OH265577   6.401   2.010   1.383 -0.2992  0.0298  0.2626
14721TIP3    H165578   6.460   1.997   1.309 -0.1484 -0.5358  0.4738
14721TIP3    H265579   6.339   1.938   1.378 -1.2404  0.8573 -0.1908
14722TIP3   OH265580   0.797   0.802   6.423  0.1907 -0.3240 -0.1307
14722TIP3    H165581   0.843   0.718   6.434 -0.0484 -0.9735 -3.0899
14722TIP3    H265582   0.767   0.825   6.511  2.3310 -2.1097  1.1731
14723TIP3   OH265583   4.810   4.627   2.955 -0.1112 -0.1062 -0.8409
14723TIP3    H165584   4.769   4.624   2.869 -0.3246  0.2275 -0.7525
14723TIP3    H265585   4.884   4.566   2.949 -0.8333 -0.9867 -0.8848
14724TIP3   OH265586   1.454   0.619  14.838  0.2934  0.1549  0.6770
14724TIP3    H165587   1.446   0.526  14.857  0.9124  0.0396  0.3995
14724TIP3    H265588   1.366   0.646  14.812 -0.2152 -0.0356  2.1156
14725TIP3   OH265589   6.362   2.264  16.903 -0.5160  1.1734 -0.0564
14725TIP3    H165590   6.447   2.300  16.877  0.4159  0.0312  1.2395
14725TIP3    H265591   6.308   2.272  16.825  1.7483 -0.9761 -2.0554
14726TIP3   OH265592   1.695   4.042   2.927 -0.2257  0.1715  0.1097
14726TIP3    H165593   1.758   4.019   2.859 -2.5029 -0.6851 -1.8675
14726TIP3    H265594   1.629   4.094   2.881 -1.1199  0.8411  2.0380
14727TIP3   OH265595   6.394   4.872  15.694  0.2252 -0.5547  0.3861
14727TIP3    H165596   6.439   4.807  15.748 -1.9267 -2.3232  0.2169
14727TIP3    H265597   6.441   4.869  15.610  2.0809  0.4525  1.3250
14728TIP3   OH265598   6.109   4.171  13.870 -0.1215  0.5554  0.0283
14728TIP3    H165599   6.104   4.214  13.956  0.4307  1.8411 -0.5484
14728TIP3    H265600   6.018   4.161  13.843 -0.4003 -1.5044  1.5065
14729TIP3   OH265601   6.698   6.236  15.606 -0.5194  0.0828  0.6228
14729TIP3    H165602   6.748   6.232  15.525 -0.0496 -0.7212  0.9528
14729TIP3    H265603   6.733   6.312  15.652 -1.3403  1.0459 -0.2705
14730TIP3   OH265604   3.802   3.754  11.637  0.2192  0.1631 -0.4419
14730TIP3    H165605   3.852   3.791  11.711  1.1510  0.0487 -0.9931
14730TIP3    H265606   3.755   3.680  11.675  0.9906 -0.1308 -0.0347
14731TIP3   OH265607   4.772   1.789   0.862  0.7563 -0.1414 -0.2417
14731TIP3    H165608   4.778   1.693   0.869  2.5368 -0.1231 -0.9172
14731TIP3    H265609   4.810   1.809   0.777 -1.4112  1.0612 -0.9821
14732TIP3   OH265610   5.887   0.640   0.579 -0.1750  0.2989 -0.0777
14732TIP3    H165611   5.797   0.671   0.579 -0.4547 -0.4922  0.1732
14732TIP3    H265612   5.882   0.551   0.614  0.4851 -0.3715 -1.5941
14733TIP3   OH265613   2.359   6.381  14.449  0.3925  0.7864  0.1280
14733TIP3    H165614   2.398   6.297  14.474 -0.7496  0.0312 -0.5613
14733TIP3    H265615   2.398   6.401  14.364  0.6057  0.9166  0.2565
14734TIP3   OH265616   4.569   2.879   1.415 -0.9282  0.2053 -0.7806
14734TIP3    H165617   4.639   2.821   1.445 -1.0928  0.2753 -0.2436
14734TIP3    H265618   4.587   2.962   1.458 -1.2224  0.2828 -0.8064
14735TIP3   OH265619   2.457   5.662   6.072 -0.5364  0.1637 -0.0455
14735TIP3    H165620   2.362   5.675   6.071 -0.4748  0.6396  0.0378
14735TIP3    H265621   2.490   5.735   6.124  0.1033  1.7623 -2.4984
14736TIP3   OH265622   4.333   3.739   4.806 -0.2971  0.6848  0.3780
14736TIP3    H165623   4.313   3.708   4.895  1.0410 -0.1334  0.4146
14736TIP3    H265624   4.262   3.705   4.752 -1.3665  1.5617  1.1927
14737TIP3   OH265625   2.112   3.522  14.689  0.2333  0.1724 -0.7585
14737TIP3    H165626   2.092   3.491  14.600  2.1173  1.4889 -1.7090
14737TIP3    H265627   2.207   3.535  14.688 -0.0611  3.0663  0.4970
14738TIP3   OH265628   3.735   2.052  12.130  0.2124 -0.1978 -0.1253
14738TIP3    H165629   3.656   2.076  12.177  0.1816 -1.4212  0.4762
14738TIP3    H265630   3.734   1.957  12.126  1.3256 -0.2146 -0.6907
14739TIP3   OH265631   4.593   0.218  17.118  0.2786  0.3955 -0.1392
14739TIP3    H165632   4.522   0.269  17.080 -0.1118  0.4569  0.6555
14739TIP3    H265633   4.599   0.139  17.064 -0.5746  0.2639 -0.0471
14740TIP3   OH265634   4.416   4.909  15.018 -0.1287  0.1156 -0.0938
14740TIP3    H165635   4.402   4.820  14.984 -0.1024 -0.2566  0.8542
14740TIP3    H265636   4.462   4.954  14.947  1.8219 -1.2478  0.2392
14741TIP3   OH265637   2.403   2.381   1.303  0.1169 -0.0265  0.0960
14741TIP3    H165638   2.374   2.338   1.384 -1.1291  0.2451 -0.1889
14741TIP3    H265639   2.496   2.399   1.318 -0.0516 -0.1227  1.4020
14742TIP3   OH265640   2.971   4.981   2.310 -0.2138  0.5035 -0.6181
14742TIP3    H165641   2.927   4.907   2.352  1.1012 -0.6594 -1.1984
14742TIP3    H265642   2.991   5.041   2.382  0.1640 -0.4866  0.1228
14743TIP3   OH265643   1.705   6.577   0.055  0.3264 -0.1921 -0.3063
14743TIP3    H165644   1.728   6.652   0.110  0.0382 -1.1612  1.1945
14743TIP3    H265645   1.619   6.599   0.020  0.8823  0.8147 -1.0849
14744TIP3   OH265646   1.094   1.947   0.692  0.0141 -0.4613  0.2120
14744TIP3    H165647   1.107   1.942   0.597 -2.1686 -0.9442 -0.1135
14744TIP3    H265648   1.158   1.885   0.727 -0.2605 -1.5445 -1.0902
14745TIP3   OH265649   5.060   5.432   2.670  0.1690  0.0438 -0.1626
14745TIP3    H165650   5.048   5.442   2.576 -1.4595  0.4213  0.0639
14745TIP3    H265651   4.976   5.458   2.708  0.8787  0.1239  1.4114
14746TIP3   OH265652   5.846   0.865  12.726 -0.0351  0.0304 -0.3191
14746TIP3    H165653   5.836   0.931  12.657 -0.8346  1.3452  0.9894
14746TIP3    H265654   5.762   0.865  12.772 -0.8852 -3.4913 -1.5436
14747TIP3   OH265655   5.431   4.082  15.756  0.2309  0.0471  0.1022
14747TIP3    H165656   5.358   4.081  15.693  0.2063 -0.2760  0.1352
14747TIP3    H265657   5.494   4.143  15.719  0.1708 -0.0655 -0.1822
14748TIP3   OH265658   6.322   5.979   1.543 -0.1203 -0.2914 -0.3735
14748TIP3    H165659   6.292   5.973   1.452 -2.1907  0.4982  0.1789
14748TIP3    H265660   6.252   5.938   1.594  1.2979 -1.2881  0.8535
14749TIP3   OH265661   0.110   4.786  16.284  0.0765  0.6134 -0.6181
14749TIP3    H165662   0.022   4.822  16.299  0.5448  1.0743  1.3998
14749TIP3    H265663   0.094   4.693  16.266 -0.8183  0.6092  0.0917
14750TIP3   OH265664   2.030   0.835   0.584 -0.0512 -0.8403  0.0959
14750TIP3    H165665   2.061   0.919   0.616 -1.4299 -0.7196  1.2429
14750TIP3    H265666   1.942   0.826   0.622 -0.7933 -1.8283 -1.7175
14751TIP3   OH265667   2.898   5.828  11.520  0.6681 -0.0321 -0.7256
14751TIP3    H165668   2.844   5.882  11.462  1.1167 -1.4928 -2.5964
14751TIP3    H265669   2.926   5.755  11.465  1.4429 -1.2990  1.2634
14752TIP3   OH265670   6.539   4.569  16.347 -0.6677  0.0815  0.0026
14752TIP3    H165671   6.550   4.582  16.253 -0.4147 -3.6562 -0.6337
14752TIP3    H265672   6.493   4.648  16.377 -0.3590  1.6093 -3.1159
14753TIP3   OH265673   1.172   6.051  16.147 -0.3453 -0.0343  0.1112
14753TIP3    H165674   1.258   6.092  16.135  0.2239 -0.4366  2.4334
14753TIP3    H265675   1.189   5.957  16.140 -0.3994 -0.1598  1.4114
14754TIP3   OH265676   2.672   5.668   5.834  0.1890 -0.0918  0.4440
14754TIP3    H165677   2.749   5.659   5.779 -0.1709 -2.4966  0.2440
14754TIP3    H265678   2.598   5.654   5.774 -0.5736  3.4866  0.3381
14755TIP3   OH265679   3.517   6.596   3.961 -0.1718 -0.1789  0.1051
14755TIP3    H165680   3.561   6.657   4.022 -0.0474  0.6957 -0.8291
14755TIP3    H265681   3.484   6.526   4.017  1.9856 -0.6246  0.9131
14756TIP3   OH265682   4.870   0.955   3.541  0.6586 -0.1998 -0.7965
14756TIP3    H165683   4.943   0.986   3.594 -0.8515  0.1111  1.1923
14756TIP3    H265684   4.840   1.032   3.493  0.2866  0.1997  0.0575
14757TIP3   OH265685   5.424   1.829  15.095  0.1980 -0.7078 -0.5222
14757TIP3    H165686   5.469   1.897  15.045  0.7332  2.3601  3.5965
14757TIP3    H265687   5.472   1.823  15.177 -2.0739 -3.4363  0.8060
14758TIP3   OH265688   5.801   1.749  11.430  0.3618  0.1774  0.1399
14758TIP3    H165689   5.714   1.788  11.439  0.8749  1.3806  0.0511
14758TIP3    H265690   5.814   1.741  11.335 -0.3523 -1.6884  0.1534
14759TIP3   OH265691   0.051   0.958   4.516 -0.1803 -0.5627 -0.1050
14759TIP3    H165692  -0.012   1.008   4.568  0.2281  0.3071 -0.4366
14759TIP3    H265693   0.020   0.965   4.426  0.8678  0.6449 -0.3995
14760TIP3   OH265694   6.272   4.529  14.476  0.5520 -0.6378  0.2338
14760TIP3    H165695   6.315   4.459  14.428  2.5918  0.4882  0.2934
14760TIP3    H265696   6.212   4.485  14.536  0.6608 -2.2266 -0.7781
14761TIP3   OH265697   0.222   2.476  12.718  0.3058  0.6927  0.0852
14761TIP3    H165698   0.252   2.460  12.807  0.5725 -1.4151 -0.3184
14761TIP3    H265699   0.303   2.492  12.669  0.0739  3.0377  0.3894
14762TIP3   OH265700   1.886   0.994   1.642  0.1967 -0.0024  0.1781
14762TIP3    H165701   1.923   1.049   1.712 -1.9354 -0.2724  1.6227
14762TIP3    H265702   1.901   1.044   1.562  0.8468  1.3325  1.0876
14763TIP3   OH265703   6.033   6.003   0.314 -0.1805 -0.5342  0.1421
14763TIP3    H165704   5.968   5.972   0.251 -0.0351 -0.8149  0.1246
14763TIP3    H265705   6.057   5.925   0.364 -0.2146 -0.3341  0.4724
14764TIP3   OH265706   2.987   3.033   2.679 -0.1602  0.2974  0.8252
14764TIP3    H165707   2.927   3.010   2.750 -1.8010 -2.0801 -1.1277
14764TIP3    H265708   2.948   3.110   2.638 -1.1013 -0.3243  0.5114
14765TIP3   OH265709   0.821   4.884   2.777  0.1337  0.1866 -0.3173
14765TIP3    H165710   0.776   4.808   2.740  1.1481  0.6998 -2.8683
14765TIP3    H265711   0.888   4.846   2.835 -0.4657 -0.7720 -0.2300
14766TIP3   OH265712   1.845   2.620   4.962 -0.3834  0.0430 -0.2395
14766TIP3    H165713   1.849   2.527   4.943 -1.3637 -0.1511  0.4726
14766TIP3    H265714   1.863   2.662   4.877 -4.9364 -0.8029 -1.9167
14767TIP3   OH265715   6.322   1.118  14.315 -0.3136 -0.0983 -0.2184
14767TIP3    H165716   6.349   1.143  14.404 -0.0402 -0.5721 -0.1604
14767TIP3    H265717   6.311   1.201  14.269 -0.9545  0.1686  0.3973
14768TIP3   OH265718   4.613   5.067   1.123  0.7397  0.1720  0.2003
14768TIP3    H165719   4.672   5.059   1.049  1.0545 -1.1436  0.5695
14768TIP3    H265720   4.574   4.980   1.132 -1.3550  1.0214 -0.1005
14769TIP3   OH265721   3.127   4.790   4.017 -0.5302 -0.9709  0.0575
14769TIP3    H165722   3.196   4.768   3.955 -0.1155 -1.0819  0.5485
14769TIP3    H265723   3.102   4.880   3.994 -0.6226 -1.1307 -0.4813
14770TIP3   OH265724   5.394   0.688  16.817  0.9391  0.7559  0.3625
14770TIP3    H165725   5.420   0.598  16.800  2.0119  1.1712 -0.2877
14770TIP3    H265726   5.352   0.685  16.903  0.7657 -0.3872  0.2582
14771TIP3   OH265727   0.497   1.116  17.365  0.0313  0.2224  0.2502
14771TIP3    H165728   0.450   1.101  17.447 -1.8726 -2.6268 -1.1796
14771TIP3    H265729   0.463   1.200  17.333 -0.6203  0.4420  1.4496
14772TIP3   OH265730   3.356   0.699   0.008  0.3359 -0.2256 -0.7273
14772TIP3    H165731   3.377   0.789   0.031 -0.9071 -0.3378  1.0645
14772TIP3    H265732   3.439   0.652   0.014  0.4453  0.1536  1.8107
14773TIP3   OH265733   6.314   0.692   4.658  0.6435 -0.1095 -0.0131
14773TIP3    H165734   6.304   0.603   4.626  1.2228  0.1476 -0.9575
14773TIP3    H265735   6.235   0.738   4.629  0.7542 -0.1007 -0.3046
14774TIP3   OH265736   6.633   1.230  11.486  0.6680  0.0656  0.1208
14774TIP3    H165737   6.601   1.236  11.396 -0.4099  0.6744  0.5292
14774TIP3    H265738   6.647   1.137  11.501 -0.4582 -0.1701 -0.2384
14775TIP3   OH265739   2.627   6.296  17.219  0.2527  0.1443 -0.5249
14775TIP3    H165740   2.709   6.302  17.267  1.3466  1.6869 -2.4464
14775TIP3    H265741   2.577   6.229  17.265  2.1819 -0.1452  1.2784
14776TIP3   OH265742   6.430   2.529   1.306 -0.4851 -0.4933  0.0763
14776TIP3    H165743   6.467   2.562   1.223  2.8988 -1.8945  0.8462
14776TIP3    H265744   6.392   2.444   1.283 -2.5604  0.5435 -0.5534
14777TIP3   OH265745   2.059   5.224   0.863 -0.1147  0.5840 -0.3012
14777TIP3    H165746   2.077   5.313   0.893 -0.8423  0.9256 -0.8581
14777TIP3    H265747   2.031   5.177   0.941 -0.6292  1.0884 -0.1801
14778TIP3   OH265748   5.558   4.832   0.199  0.1435  0.0346  0.4142
14778TIP3    H165749   5.563   4.879   0.283 -1.3633 -0.6098  0.8905
14778TIP3    H265750   5.465   4.814   0.187  0.4281 -0.5969 -1.0216
14779TIP3   OH265751   6.156   1.422  15.480 -0.1560 -0.4688 -0.1691
14779TIP3    H165752   6.166   1.327  15.475  0.3523 -0.3625 -2.2061
14779TIP3    H265753   6.243   1.455  15.503 -0.1726 -0.4646 -0.1121
14780TIP3   OH265754   5.053   2.634  13.687  0.3158 -0.1729 -0.1615
14780TIP3    H165755   5.148   2.643  13.699  0.1413  0.2950  1.0922
14780TIP3    H265756   5.029   2.710  13.635  0.3958  0.7459  1.0914
14781TIP3   OH265757   5.938   3.475  17.217 -0.6000 -0.0893  0.1935
14781TIP3    H165758   5.957   3.486  17.124  1.7809  1.2407  0.7471
14781TIP3    H265759   5.875   3.403  17.221 -0.4179 -0.4751 -2.3940
14782TIP3   OH265760   4.121   5.920  12.512  0.4467 -0.5012 -0.6839
14782TIP3    H165761   4.049   5.982  12.499 -0.5801 -1.5173 -0.0375
14782TIP3    H265762   4.172   5.958  12.584 -0.3841 -0.5803 -0.0439
14783TIP3   OH265763   1.953   5.708   0.800 -0.0376  0.3205  0.1916
14783TIP3    H165764   2.002   5.634   0.837 -0.2926 -0.1092 -0.3244
14783TIP3    H265765   1.862   5.691   0.824 -0.1050  0.4427  0.0231
14784TIP3   OH265766   2.504   3.410  17.163 -0.1054 -0.4292  0.2319
14784TIP3    H165767   2.525   3.318  17.147  0.8758 -0.3957  1.2494
14784TIP3    H265768   2.426   3.407  17.218 -0.9042 -0.6075 -0.8683
14785TIP3   OH265769   5.954   5.833   1.342  0.3482 -0.2060  0.1082
14785TIP3    H165770   5.916   5.753   1.378  1.4451 -1.2148 -0.8617
14785TIP3    H265771   6.047   5.813   1.331  0.1717  0.0528 -2.9727
14786TIP3   OH265772   5.325   3.936  12.740  0.1906 -0.6819  0.9317
14786TIP3    H165773   5.259   3.870  12.720 -0.7997  1.1813 -2.7810
14786TIP3    H265774   5.274   4.017  12.753  1.6175  0.4214 -0.1331
14787TIP3   OH265775   5.818   4.181  15.560  0.0688  0.2214 -0.1052
14787TIP3    H165776   5.795   4.100  15.605 -1.8297  1.8950  2.2278
14787TIP3    H265777   5.910   4.196  15.582  0.6924 -1.5978 -1.2248
14788TIP3   OH265778   2.796   4.854   5.414  0.0992  0.2026  0.0763
14788TIP3    H165779   2.816   4.941   5.448  0.4367  0.3888 -0.5799
14788TIP3    H265780   2.879   4.806   5.419 -0.3021 -0.4089  1.3469
14789TIP3   OH265781   4.814   6.554   0.625 -0.2952  0.1313 -0.2899
14789TIP3    H165782   4.884   6.518   0.570 -2.1308 -0.6568 -2.2671
14789TIP3    H265783   4.734   6.520   0.586 -1.7959  0.8402  2.0165
14790TIP3   OH265784   1.013   0.194   0.320  0.1609  0.8719  0.6333
14790TIP3    H165785   1.026   0.100   0.314 -0.0325  0.9276 -2.9616
14790TIP3    H265786   0.943   0.205   0.384 -0.6316 -1.5166  0.2670
14791TIP3   OH265787   3.207   2.282  17.071  0.3606  0.4912  0.3635
14791TIP3    H165788   3.241   2.370  17.090 -0.6210  1.0397 -0.3021
14791TIP3    H265789   3.179   2.248  17.156 -2.0755  2.0771  0.2860
14792TIP3   OH265790   1.864   6.045   3.493  0.5006 -0.2128 -0.0687
14792TIP3    H165791   1.815   6.089   3.424  1.6331 -0.4300 -1.0201
14792TIP3    H265792   1.956   6.059   3.472  0.8763 -1.0651  0.8822
14793TIP3   OH265793   2.599   1.387   5.285  0.5459 -0.1617  0.1152
14793TIP3    H165794   2.653   1.460   5.256  0.0767 -0.6080 -1.9964
14793TIP3    H265795   2.624   1.314   5.229 -1.0367 -0.8450  0.2386
14794TIP3   OH265796   0.771   1.466  13.632 -0.6840 -0.6081  0.6917
14794TIP3    H165797   0.835   1.414  13.583  0.4122  1.2271  0.0823
14794TIP3    H265798   0.690   1.415  13.627  0.1347 -1.8729 -0.5280
14795TIP3   OH265799   3.581   4.617   0.653  0.1451  0.2353  0.0730
14795TIP3    H165800   3.528   4.661   0.586  0.9293  2.0107  0.5492
14795TIP3    H265801   3.543   4.645   0.736  0.4854 -0.2360  0.3903
14796TIP3   OH265802   4.833   4.813   4.860 -0.1147  0.2151  0.2503
14796TIP3    H165803   4.827   4.906   4.841  0.7695  0.5429  1.4325
14796TIP3    H265804   4.903   4.781   4.803 -0.3973  0.2796 -0.1342
14797TIP3   OH265805   2.227   2.003  10.757 -0.0478 -0.6255 -0.1088
14797TIP3    H165806   2.235   1.919  10.712  3.1024  0.7673 -2.4786
14797TIP3    H265807   2.191   2.062  10.692 -1.0798  0.1899  1.1528
14798TIP3   OH265808   5.205   3.363  11.471  0.3556 -0.3506  0.2349
14798TIP3    H165809   5.201   3.373  11.566  2.7055  2.3107  0.1822
14798TIP3    H265810   5.285   3.312  11.456  1.8642  2.0026 -0.2950
14799TIP3   OH265811   2.092   4.186  12.552 -0.1976  0.7272  0.0099
14799TIP3    H165812   2.109   4.169  12.459  0.6078  1.1439  0.0723
14799TIP3    H265813   2.173   4.225  12.584 -0.0880 -0.3731  1.1384
14800TIP3   OH265814   5.489   1.774  15.722 -0.3741 -0.9509 -0.3564
14800TIP3    H165815   5.510   1.862  15.755  1.2461 -0.8222 -1.6347
14800TIP3    H265816   5.494   1.718  15.799 -1.2601  0.0218  0.4532
14801TIP3   OH265817   0.827   3.243   3.035 -0.3006  0.2434  0.4401
14801TIP3    H165818   0.780   3.199   2.964 -0.6345 -1.3096  1.5607
14801TIP3    H265819   0.915   3.258   3.000 -0.8277  0.7035 -0.7373
14802TIP3   OH265820   6.420   4.850   0.273 -0.0610  0.2394  0.1203
14802TIP3    H165821   6.435   4.861   0.367  0.6539 -0.6809  0.1258
14802TIP3    H265822   6.370   4.769   0.266 -0.6649  0.6361 -0.2627
14803TIP3   OH265823   1.428   3.952  14.927 -0.0555 -0.1761  0.2959
14803TIP3    H165824   1.333   3.935  14.922 -0.7462  2.5827  2.0938
14803TIP3    H265825   1.459   3.894  14.996  0.1001 -2.6548 -1.6952
14804TIP3   OH265826   0.198   4.885   3.315 -0.7558  0.1144 -0.0908
14804TIP3    H165827   0.264   4.832   3.360  0.2822  0.1988 -1.4797
14804TIP3    H265828   0.121   4.828   3.311 -0.7422 -0.0438  1.3949
14805TIP3   OH265829   5.823   4.811   5.246  0.2603 -0.1518  0.6966
14805TIP3    H165830   5.776   4.755   5.186 -0.3032 -0.8086  1.7232
14805TIP3    H265831   5.777   4.802   5.329  0.7518  1.0670  1.1333
14806TIP3   OH265832   3.039   1.096  12.409  0.2337  0.2866  0.3917
14806TIP3    H165833   2.947   1.125  12.410  0.6798  2.1334 -2.1446
14806TIP3    H265834   3.088   1.174  12.437  1.0776 -0.7723  2.0126
14807TIP3   OH265835   2.795   6.695  11.668  0.1573  0.0963  0.0508
14807TIP3    H165836   2.808   6.645  11.588  1.5562  1.5158 -0.6791
14807TIP3    H265837   2.880   6.738  11.683 -0.9038  2.0769  0.7035
14808TIP3   OH265838   5.584   5.969  13.868 -0.0345  0.5349 -0.2429
14808TIP3    H165839   5.653   5.930  13.815  0.6516  0.1661  0.8819
14808TIP3    H265840   5.503   5.935  13.830  0.4679 -0.3651 -0.5607
14809TIP3   OH265841   0.549   6.073  14.490 -0.2332 -0.3645 -0.1048
14809TIP3    H165842   0.608   6.066  14.565  0.1102 -1.3183 -0.4505
14809TIP3    H265843   0.462   6.054  14.526 -0.3620  1.0603  0.4062
14810TIP3   OH265844   3.460   5.269   2.578  0.1124 -0.0540 -0.3403
14810TIP3    H165845   3.418   5.306   2.500  0.0002 -1.0570 -0.7660
14810TIP3    H265846   3.518   5.201   2.545 -2.2266 -2.7135  0.5636
14811TIP3   OH265847   0.239   1.424   0.571  0.9008  0.2606 -0.6276
14811TIP3    H165848   0.206   1.485   0.638 -0.0298  0.4814 -1.2707
14811TIP3    H265849   0.334   1.435   0.574  0.9954 -0.6045  1.4818
14812TIP3   OH265850   0.335   1.588   6.549 -0.1042  0.2017  0.1913
14812TIP3    H165851   0.316   1.494   6.552  0.8951 -0.0750 -1.0961
14812TIP3    H265852   0.386   1.599   6.469  1.3258  1.5718  1.2416
14813TIP3   OH265853   1.914   6.219   5.631 -0.2376  0.1901  0.1241
14813TIP3    H165854   1.976   6.213   5.704 -2.5377  0.8962  2.2901
14813TIP3    H265855   1.877   6.131   5.624  0.7685 -0.1665 -0.9994
14814TIP3   OH265856   6.498   1.926   4.970 -0.3287  0.0702 -0.2171
14814TIP3    H165857   6.588   1.898   4.951  0.2828  1.7766  0.0284
14814TIP3    H265858   6.445   1.884   4.902  1.0640  1.5020 -2.3133
14815TIP3   OH265859   0.684   6.083   1.183 -0.3140 -0.8552  0.1368
14815TIP3    H165860   0.612   6.054   1.238  0.0184 -1.2471  0.3694
14815TIP3    H265861   0.709   6.168   1.219 -0.3362 -0.9451  0.3655
14816TIP3   OH265862   2.827   2.510   0.180  0.3963 -0.0814 -0.0880
14816TIP3    H165863   2.813   2.519   0.274  1.1451  1.6074 -0.0915
14816TIP3    H265864   2.873   2.591   0.155 -1.0375  0.1785 -2.1492
14817TIP3   OH265865   6.426   4.770  14.461 -0.9265  0.2003  0.6512
14817TIP3    H165866   6.392   4.682  14.480  1.3264 -0.4903  1.9378
14817TIP3    H265867   6.495   4.783  14.526 -1.7998  3.3546  1.1030
14818TIP3   OH265868   0.679   2.660   3.185  0.3879  0.3978  0.3048
14818TIP3    H165869   0.756   2.715   3.170  0.5303  0.1494  0.1291
14818TIP3    H265870   0.641   2.696   3.265  0.7754  0.4249  0.4841
14819TIP3   OH265871   6.001   6.451  10.420 -0.0031 -0.0032  0.6919
14819TIP3    H165872   6.069   6.471  10.355 -0.2267 -0.5208  0.2938
14819TIP3    H265873   6.045   6.460  10.504  0.6712 -0.7273  0.4284
14820TIP3   OH265874   0.927   3.605  14.791  0.3824  0.3510 -0.1990
14820TIP3    H165875   0.941   3.520  14.750  0.3460  0.3203 -0.1478
14820TIP3    H265876   1.014   3.646  14.792  0.6448 -0.1809  0.8726
14821TIP3   OH265877   1.083   4.964   4.646 -0.6662 -0.4017 -0.2893
14821TIP3    H165878   1.171   4.976   4.609 -0.5613 -0.2025  0.0256
14821TIP3    H265879   1.066   4.870   4.637 -0.0374 -0.6017  0.5135
14822TIP3   OH265880   4.939   1.707  15.876 -0.7335  0.3358  0.4128
14822TIP3    H165881   4.847   1.693  15.897 -0.5647 -2.1333 -0.1818
14822TIP3    H265882   4.948   1.678  15.785  0.2857  2.4365 -0.2422
14823TIP3   OH265883   1.930   1.113  11.916  0.0664 -0.6083 -0.3210
14823TIP3    H165884   1.882   1.112  11.833  0.7363  0.1703 -0.7324
14823TIP3    H265885   1.867   1.149  11.979  0.1849  0.7512 -0.9271
14824TIP3   OH265886   0.543   4.761   4.598 -0.2807 -0.3806 -0.4469
14824TIP3    H165887   0.519   4.774   4.689 -0.3819  0.0372 -0.5323
14824TIP3    H265888   0.499   4.832   4.551  0.3623 -0.1572 -0.7268
14825TIP3   OH265889   1.280   2.261  13.029 -0.1202 -0.3003  0.7654
14825TIP3    H165890   1.357   2.210  13.050 -0.0650  0.1293  1.6606
14825TIP3    H265891   1.225   2.255  13.107 -1.7991 -2.0094 -0.4498
14826TIP3   OH265892   2.916   5.693   0.997 -0.3368  0.1237  0.7532
14826TIP3    H165893   2.852   5.622   1.000  1.3511 -1.5496 -0.6862
14826TIP3    H265894   2.901   5.735   0.913  0.9234 -0.8154  0.0201
14827TIP3   OH265895   1.326   2.400  12.783  0.3447  0.4155  0.6820
14827TIP3    H165896   1.287   2.316  12.807  0.1754  0.4339  0.4765
14827TIP3    H265897   1.398   2.412  12.845 -0.9356  1.1170  2.1198
14828TIP3   OH265898   5.282   0.437  10.946  0.3815 -0.2707 -0.1585
14828TIP3    H165899   5.225   0.375  10.900  0.2770  0.8743 -1.6353
14828TIP3    H265900   5.257   0.523  10.913  1.3398  0.4842  0.9657
14829TIP3   OH265901   4.963   2.445  13.497  0.3054  0.1447  0.3318
14829TIP3    H165902   4.942   2.490  13.415 -0.6665 -0.1141  0.4276
14829TIP3    H265903   4.961   2.513  13.564 -1.3078 -0.0242  0.5006
14830TIP3   OH265904   6.337   6.437  10.984  0.1829 -0.0991 -0.8621
14830TIP3    H165905   6.260   6.475  10.940 -1.5222 -1.0412  1.1365
14830TIP3    H265906   6.349   6.490  11.063  0.5644 -0.9508 -0.3285
14831TIP3   OH265907   1.685   2.016  16.072 -0.1941 -0.8194 -0.1383
14831TIP3    H165908   1.644   1.930  16.077  0.1776 -0.9476  1.0757
14831TIP3    H265909   1.672   2.043  15.981 -1.6411 -1.4887 -0.1634
14832TIP3   OH265910   3.536   2.176  15.656 -0.1325 -0.4800 -0.0141
14832TIP3    H165911   3.626   2.155  15.683 -1.2218 -2.0709  2.7151
14832TIP3    H265912   3.512   2.251  15.710 -0.7023 -0.5227 -0.2093
14833TIP3   OH265913   0.681   0.405  16.036  0.0705  0.1980  0.0373
14833TIP3    H165914   0.650   0.320  16.006  0.3907  0.2874 -0.5693
14833TIP3    H265915   0.754   0.426  15.977  0.3656  0.6293  0.5428
14834TIP3   OH265916   3.156   0.228   2.874  0.0795 -0.1588 -0.4892
14834TIP3    H165917   3.061   0.237   2.863  0.1147  1.9848  0.4416
14834TIP3    H265918   3.184   0.312   2.910  2.3943 -0.6519 -0.9755
14835TIP3   OH265919   5.605   0.193   1.181 -0.0514  0.5684  0.1274
14835TIP3    H165920   5.616   0.288   1.184  1.2513  0.4791 -0.9123
14835TIP3    H265921   5.682   0.161   1.135  0.5475 -1.2094  2.1999
14836TIP3   OH265922   1.546   6.324   3.410  0.8310  0.1391  0.4268
14836TIP3    H165923   1.552   6.403   3.464  0.0602  0.0491  0.6564
14836TIP3    H265924   1.633   6.315   3.370  0.9560  1.0300  0.4907
14837TIP3   OH265925   5.395   2.544   1.489  0.0209 -0.2069  0.0567
14837TIP3    H165926   5.370   2.625   1.533 -2.0339  0.3239 -1.9250
14837TIP3    H265927   5.468   2.510   1.541 -1.8962  0.5766  3.5091
14838TIP3   OH265928   3.120   5.684   0.115 -0.6861 -0.0839  0.4712
14838TIP3    H165929   3.095   5.736   0.191 -2.4721  0.8937 -0.7160
14838TIP3    H265930   3.052   5.703   0.050  1.1854 -0.2471 -1.6524
14839TIP3   OH265931   5.931   0.890  10.865 -0.1551 -0.3090 -0.4054
14839TIP3    H165932   5.862   0.939  10.820 -1.0297 -0.6006  0.5758
14839TIP3    H265933   6.007   0.897  10.807 -0.4513  1.6046 -0.6415
14840TIP3   OH265934   1.127   5.808   4.263 -0.1943  0.1552 -0.8379
14840TIP3    H165935   1.057   5.850   4.214 -2.1276 -3.0065 -1.1113
14840TIP3    H265936   1.108   5.829   4.355 -1.8826 -1.0412 -0.8704
14841TIP3   OH265937   2.465   4.283  12.607  0.2638  0.2381  0.3341
14841TIP3    H165938   2.497   4.357  12.555 -0.2523 -0.4379 -0.9782
14841TIP3    H265939   2.415   4.324  12.678  0.2557  1.1646 -0.1842
14842TIP3   OH265940   5.504   4.924   3.836 -0.1178 -0.1796  0.2324
14842TIP3    H165941   5.522   5.013   3.806 -2.0759  0.4873  0.9113
14842TIP3    H265942   5.578   4.903   3.894  0.4287  0.9467 -0.0267
14843TIP3   OH265943   6.215   6.724  15.314 -0.0404  0.1820 -0.1660
14843TIP3    H165944   6.208   6.810  15.355  0.5213  0.4169 -0.5544
14843TIP3    H265945   6.143   6.721  15.251 -0.2467  0.2459  0.0653
14844TIP3   OH265946   2.445   1.199  11.090  0.1198 -0.5165  0.5771
14844TIP3    H165947   2.518   1.225  11.033 -0.6672  1.8794  0.5514
14844TIP3    H265948   2.486   1.177  11.174  0.8841  1.0141  0.6340
14845TIP3   OH265949   1.097   4.755  12.905  0.5780 -0.1418  0.1477
14845TIP3    H165950   1.113   4.686  12.841  0.8432  0.6206 -0.6258
14845TIP3    H265951   1.123   4.716  12.989  0.0041 -1.2309 -0.1557
14846TIP3   OH265952   1.910   4.844  15.439  0.4207 -0.0267 -0.1109
14846TIP3    H165953   1.978   4.879  15.381  1.5546 -0.9615  0.5968
14846TIP3    H265954   1.950   4.846  15.526 -0.5992 -0.2686  0.3801
14847TIP3   OH265955   5.681   5.737  15.025 -0.1506  0.0087  0.1443
14847TIP3    H165956   5.761   5.688  15.045 -0.8564 -1.8528 -1.2851
14847TIP3    H265957   5.703   5.785  14.945  0.1342  1.1077  0.8548
14848TIP3   OH265958   1.380   4.851  15.899 -0.2131 -0.1393 -0.0079
14848TIP3    H165959   1.375   4.890  15.812  0.4443  0.6240  0.2827
14848TIP3    H265960   1.453   4.897  15.942 -1.0775  0.1340  1.2376
14849TIP3   OH265961   3.248   3.344  15.046 -0.0971 -0.2543  0.3782
14849TIP3    H165962   3.340   3.347  15.021  0.0094  1.7629  0.7660
14849TIP3    H265963   3.212   3.427  15.013 -1.7086 -0.8935  0.4523
14850TIP3   OH265964   4.828   6.105  11.117  0.2051 -0.1521  0.1125
14850TIP3    H165965   4.776   6.154  11.053 -0.7527  0.6777  1.4672
14850TIP3    H265966   4.919   6.123  11.092 -0.1069 -0.7878 -1.6793
14851TIP3   OH265967   0.266   3.871   5.153  0.4395 -0.4771 -0.2567
14851TIP3    H165968   0.254   3.848   5.061  0.8789 -0.5676 -0.2950
14851TIP3    H265969   0.318   3.952   5.151  2.1791 -1.5420 -0.0751
14852TIP3   OH265970   3.497   5.677  14.039 -0.1967  0.0821 -0.1116
14852TIP3    H165971   3.527   5.616  14.107  1.9078  0.6652 -0.4464
14852TIP3    H265972   3.423   5.722  14.079 -0.2629 -0.9856  1.0428
14853TIP3   OH265973   5.407   5.421  13.937  0.1783  0.3450  0.3261
14853TIP3    H165974   5.424   5.396  13.847 -1.9348 -0.0359 -0.0219
14853TIP3    H265975   5.493   5.423  13.979  1.3270  1.6270 -1.9454
14854TIP3   OH265976   6.085   2.278   3.398 -0.0851  0.3112  0.4905
14854TIP3    H165977   6.081   2.374   3.396  0.4602  0.3373  0.3884
14854TIP3    H265978   6.171   2.257   3.363 -0.0643 -0.2035  0.8302
14855TIP3   OH265979   0.198   6.253  11.791  0.9378  0.4979  0.1811
14855TIP3    H165980   0.285   6.221  11.767  0.9927  0.7444  0.0511
14855TIP3    H265981   0.163   6.290  11.710  0.6914  0.3529  0.2205
14856TIP3   OH265982   3.493   3.779   5.405  0.2268  0.3701 -0.2161
14856TIP3    H165983   3.539   3.755   5.324  0.6765 -0.2457  0.2070
14856TIP3    H265984   3.456   3.865   5.388  0.0413  0.1019 -1.1917
14857TIP3   OH265985   3.397   1.081  14.406 -0.1494  0.3301 -0.1207
14857TIP3    H165986   3.314   1.040  14.429 -0.1672  0.6252  0.3450
14857TIP3    H265987   3.461   1.037  14.462  0.0001  0.1792 -0.4014
14858TIP3   OH265988   0.799   0.845  17.129  0.2269 -0.1302  0.5294
14858TIP3    H165989   0.838   0.932  17.130 -0.1061  0.0205  1.2607
14858TIP3    H265990   0.782   0.825  17.221  1.1067 -1.3448  0.4504
14859TIP3   OH265991   6.685   0.310   2.943  0.2090 -0.3205  0.5948
14859TIP3    H165992   6.668   0.390   2.893 -1.4921  0.7816  2.7850
14859TIP3    H265993   6.772   0.323   2.981  0.1258  0.2997  0.5791
14860TIP3   OH265994   5.798   5.935  11.095 -0.2939  0.9331 -0.4756
14860TIP3    H165995   5.776   5.878  11.021  0.4723  0.0576 -0.0572
14860TIP3    H265996   5.893   5.927  11.104 -0.5237 -0.2757  1.5891
14861TIP3   OH265997   2.843   2.229  11.488 -0.0828  0.0325 -0.5269
14861TIP3    H165998   2.862   2.165  11.556  0.0379 -0.1806 -0.7590
14861TIP3    H265999   2.776   2.286  11.525  1.9097  1.6323  0.8737
14862TIP3   OH266000   3.221   0.891  13.473 -0.1129 -0.2191  0.2108
14862TIP3    H166001   3.206   0.881  13.379  0.9035 -0.3559  0.0482
14862TIP3    H266002   3.133   0.896  13.511 -0.5967  1.9631 -0.9704
14863TIP3   OH266003   1.258   5.391  12.119  0.1455 -0.0440 -0.1342
14863TIP3    H166004   1.225   5.370  12.206 -0.0896 -1.6354 -0.5719
14863TIP3    H266005   1.353   5.374  12.124 -0.1115 -1.8545 -0.6171
14864TIP3   OH266006   5.416   1.203   1.766 -0.0382 -0.3157 -0.2715
14864TIP3    H166007   5.465   1.286   1.764  0.5084 -0.6398 -0.4827
14864TIP3    H266008   5.444   1.161   1.848  0.8872 -0.9955 -0.9054
14865TIP3   OH266009   6.419   5.970   5.215  0.0076 -0.2097 -0.4726
14865TIP3    H166010   6.365   5.927   5.149  1.3382 -0.4154 -1.4882
14865TIP3    H266011   6.364   5.976   5.293 -2.1726  1.4077 -2.0206
14866TIP3   OH266012   1.128   3.811   3.405  0.4418 -0.7589  0.3420
14866TIP3    H166013   1.043   3.771   3.386  0.5764 -0.3367 -1.2861
14866TIP3    H266014   1.185   3.736   3.423  0.0411 -1.1350  0.0880
14867TIP3   OH266015   4.484   3.629  15.110 -0.6348  0.0959  0.2168
14867TIP3    H166016   4.464   3.541  15.078 -1.2414 -0.4120  1.8804
14867TIP3    H266017   4.410   3.682  15.080 -0.8290 -0.1968  0.1714
14868TIP3   OH266018   0.045   0.783  15.659 -0.0338  0.5494 -0.3333
14868TIP3    H166019   0.123   0.729  15.673 -0.5867  0.1922  1.7651
14868TIP3    H266020   0.057   0.858  15.718 -0.2724  1.6515 -1.6300
14869TIP3   OH266021   2.867   3.912  16.728 -0.2995  0.1382  0.1954
14869TIP3    H166022   2.784   3.932  16.685 -0.3936 -0.8916 -0.1319
14869TIP3    H266023   2.934   3.935  16.664 -0.3812 -0.0712  0.0341
14870TIP3   OH266024   0.140   6.231  13.991  0.5385  0.6552 -0.1695
14870TIP3    H166025   0.097   6.195  13.914 -0.3367  3.6679 -1.2189
14870TIP3    H266026   0.102   6.184  14.065 -0.3140 -0.6818 -1.4240
14871TIP3   OH266027   4.944   2.734  17.011 -1.0805  0.2786 -0.6236
14871TIP3    H166028   4.936   2.664  17.077  0.4613 -0.1188 -0.8141
14871TIP3    H266029   5.038   2.738  16.993 -1.2268  1.9786 -1.1001
14872TIP3   OH266030   3.370   6.046   2.293  0.6818  0.1023  0.2824
14872TIP3    H166031   3.297   6.104   2.317  0.9548  0.2487  0.7747
14872TIP3    H266032   3.449   6.096   2.316  0.9297 -0.2386  0.1788
14873TIP3   OH266033   5.420   5.476   2.665  0.0665 -0.3157  0.2128
14873TIP3    H166034   5.364   5.553   2.669  0.1082 -0.1586 -1.4152
14873TIP3    H266035   5.496   5.503   2.612  1.2543 -0.7917  1.6076
14874TIP3   OH266036   0.737   5.034   5.844  0.1308  0.4324 -0.1420
14874TIP3    H166037   0.821   5.068   5.875  0.2056  0.8253 -0.7585
14874TIP3    H266038   0.740   5.046   5.749 -1.3627  2.1560 -0.0164
14875TIP3   OH266039   3.426   1.050  11.150 -0.1387  0.9524 -0.4670
14875TIP3    H166040   3.357   1.112  11.175 -0.9295  0.2645 -0.8609
14875TIP3    H266041   3.443   1.069  11.058  0.2355  1.1515 -0.3569
14876TIP3   OH266042   5.186   5.801  11.911 -0.2311 -0.4110 -0.8239
14876TIP3    H166043   5.148   5.716  11.935 -1.8649  0.1115 -1.4331
14876TIP3    H266044   5.257   5.815  11.975 -2.1599 -0.6533  1.5084
14877TIP3   OH266045   4.182   3.796   1.156 -0.2631  0.2794  0.5416
14877TIP3    H166046   4.133   3.773   1.235 -3.2552 -0.7074 -1.3940
14877TIP3    H266047   4.130   3.866   1.116 -0.9877 -1.7005 -2.2911
14878TIP3   OH266048   2.803   3.159   5.518 -0.4880 -0.0833 -0.2062
14878TIP3    H166049   2.761   3.102   5.582 -1.2081 -0.8867 -1.3464
14878TIP3    H266050   2.892   3.125   5.511 -0.7912 -0.8287 -0.5735
14879TIP3   OH266051   6.037   2.250  13.884 -0.3063  1.1591  0.0002
14879TIP3    H166052   6.067   2.340  13.872 -0.1796  0.9402 -1.4897
14879TIP3    H266053   5.971   2.238  13.816  0.9724 -0.4348 -0.9980
14880TIP3   OH266054   6.467   0.544   0.607 -0.1204  0.9441 -0.1069
14880TIP3    H166055   6.540   0.606   0.615  0.1140  0.6186  0.3303
14880TIP3    H266056   6.396   0.596   0.569  1.1095  0.6394 -3.0505
14881TIP3   OH266057   2.121   5.037  16.522 -0.7248  0.0732 -0.2533
14881TIP3    H166058   2.092   5.059  16.433 -2.9769  0.4592  0.5194
14881TIP3    H266059   2.119   5.121  16.568 -1.5534 -0.4475  0.6733
14882TIP3   OH266060   1.523   5.602   1.564  0.5386 -0.7076  0.3055
14882TIP3    H166061   1.607   5.631   1.599  0.0036 -1.0594  1.9436
14882TIP3    H266062   1.531   5.506   1.559  0.6272 -0.6616 -0.6416
14883TIP3   OH266063   0.112   1.084  17.343  0.0507 -0.9526  0.1278
14883TIP3    H166064   0.083   1.019  17.407  1.5311 -0.2091  1.6271
14883TIP3    H266065   0.032   1.129  17.316 -0.5211 -0.5140  2.3622
14884TIP3   OH266066   2.857   0.141   1.317 -0.1701 -0.0538 -0.0434
14884TIP3    H166067   2.884   0.063   1.366 -1.0568 -0.6516 -0.4886
14884TIP3    H266068   2.762   0.145   1.329 -0.0896  1.1784  0.2803
14885TIP3   OH266069   6.075   2.711  12.207 -0.1223 -0.1155 -0.2008
14885TIP3    H166070   6.109   2.718  12.118 -0.4458  1.1906 -0.2444
14885TIP3    H266071   5.981   2.727  12.198  0.0840  1.7187  0.5538
14886TIP3   OH266072   2.148   6.255  11.057  0.4664 -0.0272  0.0011
14886TIP3    H166073   2.101   6.172  11.060  0.0149  0.1942 -0.8600
14886TIP3    H266074   2.129   6.296  11.142  1.0324 -0.9748  0.6005
14887TIP3   OH266075   1.776   5.954   2.112 -0.3978 -0.4226 -0.6825
14887TIP3    H166076   1.857   5.924   2.154 -0.4312  1.7441  1.1523
14887TIP3    H266077   1.804   5.990   2.028  1.1508  2.9220  1.0778
14888TIP3   OH266078   4.465   6.192  14.024 -0.3378  0.8827  0.3402
14888TIP3    H166079   4.463   6.283  13.993 -1.5889  0.8705  0.3268
14888TIP3    H266080   4.373   6.166  14.028  0.0207 -0.6343 -0.3693
14889TIP3   OH266081   4.168   4.578  11.729 -0.1108 -0.1080 -0.7052
14889TIP3    H166082   4.131   4.595  11.815  1.0484 -2.5293  0.3472
14889TIP3    H266083   4.095   4.545  11.677 -0.9096  1.7417 -0.8508
14890TIP3   OH266084   2.311   6.407   1.238  0.0833  0.4203 -0.4753
14890TIP3    H166085   2.287   6.314   1.237 -1.4266  0.7485  0.6480
14890TIP3    H266086   2.257   6.445   1.308 -0.0131  2.3196 -1.5134
14891TIP3   OH266087   1.283   5.163  17.032  0.3311 -0.6694  0.4883
14891TIP3    H166088   1.358   5.108  17.009  0.5247 -1.1021  2.0100
14891TIP3    H266089   1.267   5.143  17.125  0.2933  1.7130  1.0409
14892TIP3   OH266090   2.881   1.185  13.175  0.3610  0.4187 -0.4421
14892TIP3    H166091   2.871   1.276  13.204  0.6069  0.2902  0.0502
14892TIP3    H266092   2.792   1.157  13.154  0.2328  0.6405 -0.1973
14893TIP3   OH266093   5.576   4.808   1.816 -0.7218  0.1195 -0.1137
14893TIP3    H166094   5.545   4.799   1.726 -1.0485 -0.6209  0.0650
14893TIP3    H266095   5.613   4.722   1.838 -0.3657  0.3835  0.3609
14894TIP3   OH266096   3.266   6.249  15.786  0.0304  0.4498  0.3707
14894TIP3    H166097   3.323   6.260  15.862  1.1545  2.2901 -0.6619
14894TIP3    H266098   3.317   6.283  15.713 -1.7371  0.5135 -0.8953
14895TIP3   OH266099   0.888   5.557  15.154 -0.0026  0.0111  0.5022
14895TIP3    H166100   0.908   5.490  15.219  2.9309  0.6193  0.3841
14895TIP3    H266101   0.967   5.562  15.100  0.2588  4.0420  0.9685
14896TIP3   OH266102   5.729   6.105  15.360 -0.3321  0.1582 -0.2372
14896TIP3    H166103   5.785   6.057  15.299 -0.2763  0.2540 -0.2602
14896TIP3    H266104   5.657   6.045  15.378 -0.6531  0.3489 -0.8554
14897TIP3   OH266105   2.411   6.391  11.057 -0.2750 -0.4032  0.1325
14897TIP3    H166106   2.474   6.375  11.128 -0.9348 -1.5032  0.5116
14897TIP3    H266107   2.349   6.454  11.094 -1.2257 -1.7530  0.9868
14898TIP3   OH266108   2.504   4.741   0.105 -0.0372  1.0865  0.0384
14898TIP3    H166109   2.483   4.652   0.134  1.9640  0.2369 -0.9618
14898TIP3    H266110   2.441   4.758   0.035 -0.2396  0.3286  0.0178
14899TIP3   OH266111   2.883   4.489  11.406 -0.3394 -0.1965 -0.2739
14899TIP3    H166112   2.796   4.528  11.413 -0.3445 -0.1093 -0.7402
14899TIP3    H266113   2.886   4.454  11.317 -0.7743 -2.3452  0.4995
14900TIP3   OH266114   1.822   4.975  11.900 -0.4179  0.4870 -0.0690
14900TIP3    H166115   1.887   4.933  11.843  0.1410  0.4868  0.5540
14900TIP3    H266116   1.797   5.054  11.853 -0.6160  0.0468 -0.7185
14901TIP3   OH266117   1.712   4.384  14.884 -0.2245  0.6301 -0.4651
14901TIP3    H166118   1.709   4.371  14.978  0.0713 -0.8225 -0.6352
14901TIP3    H266119   1.724   4.478  14.873  1.7331  0.6047  0.9862
14902TIP3   OH266120   5.272   2.364  16.499 -0.1442 -0.4836  0.6183
14902TIP3    H166121   5.326   2.420  16.444 -0.9497  0.6784  0.9542
14902TIP3    H266122   5.266   2.281  16.452  2.3577 -0.8573  0.8400
14903TIP3   OH266123   0.519   2.187   1.796 -0.5907 -0.0197  0.4682
14903TIP3    H166124   0.565   2.269   1.811 -0.8127  0.2102 -0.0948
14903TIP3    H266125   0.583   2.119   1.818 -0.5299  0.3007  1.2898
14904TIP3   OH266126   2.733   4.197   5.870  0.1916 -0.1969  0.3441
14904TIP3    H166127   2.754   4.104   5.859  0.0712 -0.1600 -0.2173
14904TIP3    H266128   2.697   4.203   5.959  0.2142 -0.6840  0.3889
14905TIP3   OH266129   2.173   1.330   3.813  0.1003  0.3617 -0.0135
14905TIP3    H166130   2.251   1.277   3.831 -0.1249  0.3126  0.8223
14905TIP3    H266131   2.144   1.300   3.726  1.6267  1.1400 -0.8302
14906TIP3   OH266132   1.265   2.514   4.958  0.1282 -0.2621  0.0121
14906TIP3    H166133   1.297   2.599   4.927 -1.8928  0.7634  0.6077
14906TIP3    H266134   1.267   2.522   5.054  3.2595 -2.2364  0.2690
14907TIP3   OH266135   3.298   4.169  15.925  0.3489  0.1815 -0.5658
14907TIP3    H166136   3.372   4.226  15.941  0.4384 -0.6444  2.6018
14907TIP3    H266137   3.337   4.088  15.891  0.7798  0.1347  0.0359
14908TIP3   OH266138   2.126   6.088  14.274  0.5203 -0.7032 -0.3256
14908TIP3    H166139   2.203   6.032  14.283 -0.4133 -2.0962 -0.6542
14908TIP3    H266140   2.058   6.044  14.324  0.4170  1.5887  1.7739
14909TIP3   OH266141   4.254   6.039  13.783 -0.2615  0.4549 -0.5722
14909TIP3    H166142   4.295   6.023  13.869 -0.9496  1.0677 -0.1170
14909TIP3    H266143   4.323   6.020  13.720  0.0586 -0.6841  0.0814
14910TIP3   OH266144   4.456   3.426   0.885  0.1113  0.3504  0.3709
14910TIP3    H166145   4.491   3.340   0.863  0.2205  0.9025 -1.8718
14910TIP3    H266146   4.378   3.436   0.831 -0.6603  1.1717  1.5616
14911TIP3   OH266147   2.127   5.134  16.888  0.4176 -0.1827  0.1922
14911TIP3    H166148   2.083   5.213  16.919 -0.8026  0.1753 -2.2495
14911TIP3    H266149   2.162   5.157  16.802 -0.6736 -2.4832 -0.9578
14912TIP3   OH266150   2.595   6.361  11.284  0.2283 -0.4694  0.1511
14912TIP3    H166151   2.655   6.335  11.354 -0.0045 -0.3348  0.4028
14912TIP3    H266152   2.619   6.451  11.264  0.9314 -0.8099 -0.6138
14913TIP3   OH266153   1.935   3.694   4.615 -0.1025  0.3487 -0.4424
14913TIP3    H166154   1.894   3.777   4.593 -0.7156 -0.2957 -1.9064
14913TIP3    H266155   1.882   3.628   4.569  1.0057 -0.7418 -0.2241
14914TIP3   OH266156   2.771   4.102   3.677 -0.3498 -0.3614  0.3819
14914TIP3    H166157   2.824   4.042   3.624  0.2794 -0.6174  1.2887
14914TIP3    H266158   2.711   4.142   3.614 -1.2364 -2.3985 -0.1473
14915TIP3   OH266159   5.330   0.423  12.891  0.5081  0.4286 -0.1578
14915TIP3    H166160   5.268   0.493  12.912  0.6357  0.5656 -0.2417
14915TIP3    H266161   5.361   0.392  12.976 -0.0371  0.0328 -0.0940
14916TIP3   OH266162   4.524   0.394   0.236  0.2631  0.8500 -0.0393
14916TIP3    H166163   4.447   0.336   0.245  0.2181  1.0306  0.8346
14916TIP3    H266164   4.579   0.350   0.171 -0.3172  0.4232 -0.2552
14917TIP3   OH266165   0.144   1.238   4.950  0.0545 -0.0253  0.0738
14917TIP3    H166166   0.172   1.329   4.962 -0.0253 -0.1124  1.0262
14917TIP3    H266167   0.114   1.234   4.860 -0.5908  1.0726  0.2163
14918TIP3   OH266168   5.115   0.639  15.975 -0.3216  0.3000 -0.0998
14918TIP3    H166169   5.151   0.602  16.056 -0.0525  4.6568  2.0781
14918TIP3    H266170   5.190   0.682  15.933 -1.0814  0.7935 -0.9882
14919TIP3   OH266171   1.078   0.958   2.611 -0.1665  0.6728 -0.1171
14919TIP3    H166172   1.059   0.865   2.602  0.3305  0.5848 -0.2940
14919TIP3    H266173   1.164   0.969   2.571  0.0163  1.1127  0.3746
14920TIP3   OH266174   1.210   4.220   5.935 -0.6772  0.5421 -0.6201
14920TIP3    H166175   1.187   4.133   5.966 -0.3017  0.1960 -1.2883
14920TIP3    H266176   1.295   4.209   5.891  1.0261  1.8525  2.0937
14921TIP3   OH266177   3.943   3.237  17.305 -0.1975  0.1571  0.0592
14921TIP3    H166178   3.970   3.327  17.322  0.3007 -0.1726  1.0833
14921TIP3    H266179   3.992   3.212  17.226  1.9754 -0.1585  1.4149
14922TIP3   OH266180   0.668   1.422   3.913  0.6848  0.2581 -0.4591
14922TIP3    H166181   0.685   1.443   3.821  1.6762 -1.7378 -0.7827
14922TIP3    H266182   0.749   1.445   3.958  0.7219 -0.1158 -0.3320
14923TIP3   OH266183   5.566   5.457  11.808  0.1473  0.0442 -0.3305
14923TIP3    H166184   5.593   5.391  11.745 -0.7075  0.6914 -1.4078
14923TIP3    H266185   5.470   5.454  11.807  0.0984 -0.6335  1.7246
14924TIP3   OH266186   3.631   0.012   4.143 -0.2560  0.5364 -0.5294
14924TIP3    H166187   3.661   0.096   4.178 -2.4877  1.0035  0.4401
14924TIP3    H266188   3.587  -0.030   4.217 -1.3414 -0.3710 -1.6487
14925TIP3   OH266189   4.231   2.956   2.736  0.2534 -0.5371 -0.1813
14925TIP3    H166190   4.175   2.891   2.693  1.8828 -0.9863 -1.7171
14925TIP3    H266191   4.289   2.904   2.792  0.9385 -0.3336 -0.6929
14926TIP3   OH266192   1.354   2.008   5.410  0.2746  0.0071  0.3692
14926TIP3    H166193   1.270   2.028   5.451  0.5647  2.6535 -0.1712
14926TIP3    H266194   1.361   2.069   5.337  2.5585 -0.3173  0.2433
14927TIP3   OH266195   4.119   3.076   2.103  0.2058 -0.1466 -0.0183
14927TIP3    H166196   4.137   2.985   2.127  1.1650  0.0581  0.0804
14927TIP3    H266197   4.183   3.096   2.035 -1.8523 -0.4208 -2.1746
14928TIP3   OH266198   1.138   2.270  14.362  0.1308 -0.1834  0.3612
14928TIP3    H166199   1.085   2.334  14.410 -0.5381 -0.5556  0.1320
14928TIP3    H266200   1.204   2.323  14.317 -1.4738  0.5613 -1.2209
14929TIP3   OH266201   0.163   2.713   5.115  0.8986  0.1256 -0.2415
14929TIP3    H166202   0.158   2.718   5.211  0.1929 -0.4297 -0.2402
14929TIP3    H266203   0.253   2.741   5.094  2.2036 -2.8157  0.8263
14930TIP3   OH266204   4.839   1.958   5.275  0.4481 -0.2879 -0.3176
14930TIP3    H166205   4.785   2.031   5.244  0.2219  0.0951  0.9041
14930TIP3    H266206   4.928   1.982   5.250  0.5022  0.9069  0.9045
14931TIP3   OH266207   3.955   4.296  12.548  0.4046 -0.1098 -0.2072
14931TIP3    H166208   3.957   4.386  12.517  2.7689  0.3534  1.0527
14931TIP3    H266209   3.989   4.244  12.475  2.7461  0.5641  0.3132
14932TIP3   OH266210   6.125   4.196   4.425 -0.1510 -0.0490 -0.4052
14932TIP3    H166211   6.175   4.233   4.352 -0.4949  1.3755  0.0531
14932TIP3    H266212   6.126   4.102   4.409  1.3827  0.0684 -1.2293
14933TIP3   OH266213   0.816   3.806  13.453  0.6518 -0.1488 -0.0912
14933TIP3    H166214   0.795   3.782  13.543  0.7367 -0.3718 -0.1300
14933TIP3    H266215   0.874   3.881  13.461  0.2606  0.1459  0.0271
14934TIP3   OH266216   6.170   1.796   1.506 -0.1070  0.0090 -0.1502
14934TIP3    H166217   6.092   1.849   1.523 -0.6239 -0.1851 -1.7462
14934TIP3    H266218   6.173   1.733   1.578 -0.3162  1.2398  0.9639
14935TIP3   OH266219   6.511   2.727   1.944  0.2408  0.4410 -0.2069
14935TIP3    H166220   6.508   2.790   1.871 -0.7084  1.4750  0.6837
14935TIP3    H266221   6.524   2.781   2.022  0.4092 -0.5692  0.4827
14936TIP3   OH266222   5.367   3.792   4.855 -0.3368  0.1264 -0.1289
14936TIP3    H166223   5.427   3.791   4.930 -1.7044 -1.0808  1.0354
14936TIP3    H266224   5.296   3.849   4.883 -0.4931  0.2814 -0.8345
14937TIP3   OH266225   6.640   6.288   1.409  0.0930  0.0156 -0.5156
14937TIP3    H166226   6.714   6.247   1.454 -2.0757 -1.4720  1.9780
14937TIP3    H266227   6.583   6.215   1.385 -0.8193  1.1488 -1.9470
14938TIP3   OH266228   3.426   3.102   4.162 -0.0463  0.0312 -0.2457
14938TIP3    H166229   3.451   3.036   4.226  1.3168 -0.3219 -1.0955
14938TIP3    H266230   3.389   3.174   4.214  1.3744 -0.0790  0.9770
14939TIP3   OH266231   3.141   3.982  16.095 -0.7039 -0.0848 -0.0653
14939TIP3    H166232   3.186   3.900  16.117 -0.1725  0.2126 -0.0435
14939TIP3    H266233   3.204   4.030  16.041  0.2871  1.7347  2.5513
14940TIP3   OH266234   6.119   5.301  14.601  0.0528  0.1843  0.1830
14940TIP3    H166235   6.024   5.297  14.607  0.0294  0.2273 -0.1571
14940TIP3    H266236   6.149   5.219  14.641 -0.1554 -0.1563 -0.3412
14941TIP3   OH266237   4.152   4.604   0.149  0.1148  0.0805  0.1951
14941TIP3    H166238   4.209   4.681   0.140 -0.1179  0.3374  0.8312
14941TIP3    H266239   4.186   4.541   0.086 -0.4371  1.1432 -1.2195
14942TIP3   OH266240   3.821   1.307   2.032  0.2089 -0.5428 -0.1618
14942TIP3    H166241   3.890   1.312   1.966 -1.2687  1.7616 -1.6753
14942TIP3    H266242   3.761   1.240   1.997 -0.7236  0.8808 -1.4110
14943TIP3   OH266243   6.441   2.796  13.337  0.3860  0.3449 -0.1794
14943TIP3    H166244   6.470   2.774  13.425 -0.6433 -1.4157 -0.2355
14943TIP3    H266245   6.379   2.868  13.349 -1.8828 -1.6634  0.9093
14944TIP3   OH266246   0.066   6.496  14.082 -0.0193  0.4169  0.2331
14944TIP3    H166247   0.086   6.406  14.054  1.3237  0.4292  1.0787
14944TIP3    H266248   0.007   6.485  14.156 -2.2258  0.3444 -1.4388
14945TIP3   OH266249   3.024   6.672  15.582 -0.3179  0.0561 -0.0339
14945TIP3    H166250   2.986   6.642  15.499 -1.7748  1.9705 -0.1100
14945TIP3    H266251   2.965   6.638  15.649  0.5932 -1.0752  0.2394
14946TIP3   OH266252   5.506   3.758  14.114 -0.4926 -0.6184 -0.5557
14946TIP3    H166253   5.540   3.707  14.187 -0.3069 -0.3460 -0.4470
14946TIP3    H266254   5.557   3.729  14.038  0.4142  0.2190 -0.2817
14947TIP3   OH266255   0.329   2.873   1.705  0.5155 -0.4123  0.2662
14947TIP3    H166256   0.235   2.891   1.706  0.5942  0.0078  0.7301
14947TIP3    H266257   0.336   2.781   1.730  0.2485 -0.3391  0.6167
14948TIP3   OH266258   1.898   4.597   2.221 -0.0552 -0.4171  0.0029
14948TIP3    H166259   1.832   4.575   2.286 -0.8994 -1.2316 -1.0944
14948TIP3    H266260   1.871   4.681   2.186 -0.5155 -0.7424 -0.4328
14949TIP3   OH266261   0.246   4.186  12.224  0.7766  0.2952 -0.0282
14949TIP3    H166262   0.259   4.224  12.311  0.5968 -0.9724  0.5659
14949TIP3    H266263   0.272   4.256  12.164 -1.6721  2.1981  0.9459
14950TIP3   OH266264   1.949   0.018  16.205 -0.2296 -0.0738 -0.2030
14950TIP3    H166265   1.880   0.018  16.271 -1.2718 -2.3636 -1.1622
14950TIP3    H266266   2.031   0.015  16.254 -0.9097  0.1218  0.9645
14951TIP3   OH266267   1.046   1.956  14.297  0.6817  0.0888 -0.3444
14951TIP3    H166268   1.129   1.913  14.275  0.3939  0.0263 -1.3821
14951TIP3    H266269   1.069   2.048  14.308  0.7649  0.2211 -1.4906
14952TIP3   OH266270   0.705   1.408  16.547  0.1090  0.0623  0.0091
14952TIP3    H166271   0.784   1.366  16.513 -0.1172 -1.1256  0.8935
14952TIP3    H266272   0.659   1.439  16.468  2.1290  2.1198 -0.4408
14953TIP3   OH266273   5.030   4.298  11.399  0.2277  0.0969 -0.0333
14953TIP3    H166274   5.015   4.390  11.374 -2.4296  0.7673  3.1950
14953TIP3    H266275   4.948   4.254  11.375 -0.0216 -0.5027  1.7758
14954TIP3   OH266276   2.495   6.444  13.720  0.4526  0.1355  0.1238
14954TIP3    H166277   2.432   6.447  13.648 -0.6338  0.1219  1.0361
14954TIP3    H266278   2.458   6.502  13.787 -0.6855 -2.8142  2.2745
14955TIP3   OH266279   4.358   0.152   2.496 -0.3861  0.9102 -0.4007
14955TIP3    H166280   4.262   0.160   2.504 -0.7277 -1.4743 -1.4251
14955TIP3    H266281   4.387   0.130   2.585 -0.7604  1.5791 -0.0975
14956TIP3   OH266282   4.085   3.148  13.837 -0.2720 -0.7448  0.2141
14956TIP3    H166283   4.067   3.181  13.749 -0.2902  2.6161  1.3161
14956TIP3    H266284   4.176   3.118  13.834 -0.8167 -2.3851 -1.3327
14957TIP3   OH266285   6.015   1.696  16.081  0.5078 -0.0136  0.2974
14957TIP3    H166286   6.086   1.653  16.129 -0.8696 -0.5646  1.9390
14957TIP3    H266287   5.936   1.677  16.132 -0.9675 -0.0409 -1.8310
14958TIP3   OH266288   5.511   3.016  14.725  0.1333  0.5379 -0.2760
14958TIP3    H166289   5.605   3.006  14.742  0.2813  2.8659  0.5204
14958TIP3    H266290   5.469   2.967  14.795  0.6993 -0.6652 -0.7296
14959TIP3   OH266291   0.060   5.987   1.955 -0.1898  0.2838  0.2217
14959TIP3    H166292  -0.004   6.021   2.018  0.3474 -0.4030  1.1547
14959TIP3    H266293   0.025   5.902   1.929  0.4016 -0.1444  0.8215
14960TIP3   OH266294   0.968   3.522   4.051  0.3752 -0.0264 -0.1974
14960TIP3    H166295   1.013   3.549   3.971 -0.2074  1.2756 -0.1287
14960TIP3    H266296   1.013   3.443   4.079  1.9495  0.6582 -0.6738
14961TIP3   OH266297   4.064   6.224  14.569 -0.1154 -0.0959 -0.4482
14961TIP3    H166298   4.009   6.251  14.496  0.1500 -0.9642 -0.9820
14961TIP3    H266299   4.088   6.133  14.549  1.1437  0.1215 -0.0174
14962TIP3   OH266300   1.265   2.784  12.110  0.2611 -0.0144  0.2855
14962TIP3    H166301   1.234   2.873  12.096  0.9090 -0.0005 -1.1911
14962TIP3    H266302   1.255   2.770  12.205 -2.7531  0.5190  0.1421
14963TIP3   OH266303   1.416   1.936   3.442 -0.6656  0.0197 -0.4325
14963TIP3    H166304   1.323   1.939   3.419 -0.7190  0.0238 -0.2128
14963TIP3    H266305   1.461   1.941   3.357 -0.8609  0.2396 -0.5255
14964TIP3   OH266306   3.735   5.383  15.919 -0.6337  0.0977  0.9416
14964TIP3    H166307   3.667   5.447  15.897 -0.4300 -0.0318 -0.1272
14964TIP3    H266308   3.689   5.314  15.966 -0.9091  0.8815  1.8639
14965TIP3   OH266309   5.951   1.936   3.540 -0.2471  0.4907  0.3993
14965TIP3    H166310   5.995   1.937   3.625  1.0083 -0.4175 -0.2077
14965TIP3    H266311   5.905   1.852   3.539  1.0882 -0.2663 -0.4446
14966TIP3   OH266312   2.496   4.879  13.943  0.1627 -0.2462  0.1722
14966TIP3    H166313   2.529   4.969  13.949  0.9208 -0.2945 -2.3489
14966TIP3    H266314   2.402   4.886  13.957  0.1990  0.9489 -0.1421
14967TIP3   OH266315   2.100   4.321  13.005 -0.0665 -0.4781  0.1500
14967TIP3    H166316   2.160   4.286  13.070 -0.5558 -0.6088  0.5384
14967TIP3    H266317   2.018   4.335  13.052 -0.6677 -1.3051 -0.6070
14968TIP3   OH266318   1.709   2.853   5.804  0.3240 -0.1529 -0.2596
14968TIP3    H166319   1.753   2.879   5.885 -0.6937 -0.2576  0.3484
14968TIP3    H266320   1.714   2.930   5.748  2.2084 -0.5047 -0.6473
14969TIP3   OH266321   0.826   1.240  11.914  0.2909 -0.7724 -0.0194
14969TIP3    H166322   0.879   1.255  11.992 -0.9831  0.3994  0.6589
14969TIP3    H266323   0.802   1.328  11.884  0.2428 -1.2238 -1.3891
14970TIP3   OH266324   0.531   0.141  17.082 -0.1915  0.6209 -0.0846
14970TIP3    H166325   0.562   0.194  17.008  0.7302  2.1553  1.3290
14970TIP3    H266326   0.446   0.107  17.053  1.1062 -0.6957 -2.6710
14971TIP3   OH266327   6.357   1.191  14.637  0.1362  0.3266  0.7244
14971TIP3    H166328   6.327   1.282  14.636 -3.0135 -0.5718 -1.0384
14971TIP3    H266329   6.280   1.140  14.659  1.2089 -2.0637 -0.5837
14972TIP3   OH266330   0.793   5.140  15.639  0.0025 -0.1902 -0.0769
14972TIP3    H166331   0.748   5.221  15.615 -0.0721 -0.3146 -0.3549
14972TIP3    H266332   0.772   5.128  15.732 -0.8408 -0.4365 -0.2921
14973TIP3   OH266333   3.169   0.031  17.401  0.8167  0.3397 -0.2252
14973TIP3    H166334   3.207   0.083  17.472  2.1133 -0.7524 -0.0812
14973TIP3    H266335   3.150  -0.053  17.441  2.3393 -0.5732 -1.3384
14974TIP3   OH266336   4.717   5.743   0.935  0.1915 -0.0478  0.1210
14974TIP3    H166337   4.632   5.735   0.979  0.5847  0.1591  0.9354
14974TIP3    H266338   4.696   5.772   0.846 -0.6401 -0.7606  0.0696
14975TIP3   OH266339   2.774   5.141   5.491  0.7073  0.0462  0.2386
14975TIP3    H166340   2.710   5.211   5.481 -0.0437 -0.3523  1.9697
14975TIP3    H266341   2.859   5.184   5.479  0.2800  1.3540  1.6043
14976TIP3   OH266342   4.311   5.641   0.602  0.5481  0.0953  0.6570
14976TIP3    H166343   4.309   5.558   0.554  1.0194  0.0123  0.7802
14976TIP3    H266344   4.243   5.694   0.560  0.5355 -0.1990  0.3015
14977TIP3   OH266345   2.598   5.427   6.027 -0.3123  0.1739 -0.1997
14977TIP3    H166346   2.550   5.506   6.001  0.4270  0.8696  0.4596
14977TIP3    H266347   2.652   5.406   5.951 -0.6230  0.2197 -0.4342
14978TIP3   OH266348   1.335   5.494   4.862  0.3518  0.4741 -0.3242
14978TIP3    H166349   1.398   5.498   4.790 -0.5048  2.0154 -1.0246
14978TIP3    H266350   1.376   5.542   4.933  0.2761  0.8611 -0.5390
14979TIP3   OH266351   0.635   3.363  11.647 -0.3896  0.2330 -0.2565
14979TIP3    H166352   0.571   3.319  11.702 -1.3604 -0.3038 -1.7609
14979TIP3    H266353   0.702   3.297  11.631 -0.4149  0.1995 -0.2230
14980TIP3   OH266354   6.265   4.827  14.785 -0.3316 -0.5086  0.0504
14980TIP3    H166355   6.332   4.866  14.729  0.9069  1.2748  2.5872
14980TIP3    H266356   6.285   4.734  14.785  0.7528 -0.3065 -1.0162
14981TIP3   OH266357   1.282   4.582  17.302 -0.0001  0.4393  0.6529
14981TIP3    H166358   1.374   4.584  17.276  0.1842  1.1859  1.3247
14981TIP3    H266359   1.253   4.494  17.278  0.5099  0.6482 -0.8150
14982TIP3   OH266360   1.117   1.546  11.554  0.2906 -0.2049 -0.5758
14982TIP3    H166361   1.072   1.625  11.585 -1.2523 -1.5877  0.8799
14982TIP3    H266362   1.199   1.544  11.603  0.6508  0.8122 -1.1095
14983TIP3   OH266363   6.733   4.971  10.658 -0.3012 -0.2884 -0.2090
14983TIP3    H166364   6.818   4.926  10.658 -0.4923 -0.6696  1.0240
14983TIP3    H266365   6.735   5.027  10.736 -0.8172  0.4341 -0.6992
14984TIP3   OH266366   4.664   3.693  11.510 -0.3658 -0.1892  0.8199
14984TIP3    H166367   4.589   3.661  11.560  0.2391 -1.3409  1.0346
14984TIP3    H266368   4.724   3.728  11.576 -0.1680 -0.4501  0.7835
14985TIP3   OH266369   2.776   1.906  17.315  0.5099 -0.3288 -0.0470
14985TIP3    H166370   2.782   1.856  17.233  0.1152  0.2224 -0.4210
14985TIP3    H266371   2.866   1.906  17.349  0.3847 -1.9319  0.3658
14986TIP3   OH266372   4.375   1.401   4.396 -0.1457  0.0547  0.0640
14986TIP3    H166373   4.331   1.330   4.349 -0.8333 -0.5536  1.5765
14986TIP3    H266374   4.310   1.471   4.401  0.7864  1.1638 -2.1127
14987TIP3   OH266375   1.221   6.577   2.802 -0.4242 -0.0666 -0.2354
14987TIP3    H166376   1.178   6.663   2.793  0.6271  1.0907  3.8059
14987TIP3    H266377   1.209   6.554   2.894  2.3334 -2.6344 -0.3867
14988TIP3   OH266378   1.465   0.900  11.360 -0.0953 -0.0302  0.5583
14988TIP3    H166379   1.476   0.875  11.268 -0.2049  0.3430  0.4414
14988TIP3    H266380   1.459   0.817  11.407 -0.6149 -0.2250  0.1603
14989TIP3   OH266381   2.994   3.701   0.164 -0.1747  0.2882 -0.4578
14989TIP3    H166382   2.968   3.762   0.233  2.1047  0.0626  0.7011
14989TIP3    H266383   3.003   3.756   0.086  0.1631  1.1445  0.1662
14990TIP3   OH266384   5.108   3.466   2.417 -0.0411  0.6327 -0.2904
14990TIP3    H166385   5.120   3.399   2.485 -0.8017  0.2633 -0.5115
14990TIP3    H266386   5.021   3.449   2.382  0.6356  0.3171 -1.9059
14991TIP3   OH266387   3.528   0.169   1.092  0.0144  0.4144 -0.4403
14991TIP3    H166388   3.538   0.084   1.135 -1.0985  0.7022  0.4175
14991TIP3    H266389   3.551   0.152   1.000  1.4966 -0.4127  0.0496
14992TIP3   OH266390   3.226   0.524   6.104  0.1463  0.2869  0.4958
14992TIP3    H166391   3.176   0.549   6.182  2.9027  0.1267  2.4667
14992TIP3    H266392   3.191   0.439   6.079 -0.7872  0.3245  1.5679
14993TIP3   OH266393   5.983   3.334  13.528  0.1807 -0.1324 -0.3836
14993TIP3    H166394   6.054   3.389  13.496 -0.2920  0.9224  0.3107
14993TIP3    H266395   5.988   3.255  13.475  1.2624  0.3240 -0.9983
14994TIP3   OH266396   5.921   3.625   1.242  0.3924 -0.0698  0.5153
14994TIP3    H166397   5.888   3.687   1.306  1.0187  1.2186 -0.3581
14994TIP3    H266398   5.972   3.562   1.293  0.7736  0.8567  1.3091
14995TIP3   OH266399   6.221   5.071  10.548 -0.5694 -0.2284 -0.0102
14995TIP3    H166400   6.310   5.104  10.545 -0.8525  0.5212 -1.4410
14995TIP3    H266401   6.212   5.019  10.467 -0.9826 -1.5617  0.8562
14996TIP3   OH266402   6.736   2.983   2.655 -0.0951  0.1635 -0.4814
14996TIP3    H166403   6.649   2.965   2.691  0.0569  0.7431  0.2028
14996TIP3    H266404   6.787   3.015   2.730 -0.1076  2.5966 -1.3989
14997TIP3   OH266405   3.979   4.820  15.296 -0.2082 -0.0117 -0.3245
14997TIP3    H166406   3.900   4.772  15.273 -1.6165  0.5436  2.7266
14997TIP3    H266407   3.991   4.802  15.389 -0.2023  4.4479  0.7906
14998TIP3   OH266408   3.274   5.104   4.430  0.1313  0.1619 -0.4952
14998TIP3    H166409   3.350   5.073   4.380  0.5286 -0.1563  0.2877
14998TIP3    H266410   3.210   5.129   4.363 -0.2645 -2.4452 -1.2108
14999TIP3   OH266411   6.715   2.781   3.887 -0.1049 -0.3431  0.4112
14999TIP3    H166412   6.749   2.791   3.798  1.7668 -1.5249  0.9289
14999TIP3    H266413   6.716   2.869   3.923  0.5835 -0.0632 -0.2636
15000TIP3   OH266414   3.639   2.033  13.613  0.0133  0.1228  0.1733
15000TIP3    H166415   3.579   1.982  13.558  0.7142  1.0259 -1.4985
15000TIP3    H266416   3.603   2.122  13.611 -0.8295 -0.0957  2.5243
15001TIP3   OH266417   5.488   4.191   3.196  0.4673 -0.0856 -0.4349
15001TIP3    H166418   5.423   4.254   3.228 -0.8291 -1.7319  0.3047
15001TIP3    H266419   5.572   4.227   3.226 -0.4361 -0.0244  2.3714
15002TIP3   OH266420   3.577   6.263   1.953  0.2972  0.1306 -0.0378
15002TIP3    H166421   3.523   6.306   2.019 -0.0445 -0.3002 -0.0272
15002TIP3    H266422   3.519   6.196   1.915  0.8589 -0.4210  0.0565
15003TIP3   OH266423   3.951   3.960  16.042  0.0605  0.0731 -0.2108
15003TIP3    H166424   4.000   4.027  16.089  0.3815 -0.6645  0.5400
15003TIP3    H266425   4.018   3.903  16.005 -0.1808  0.6590 -1.6449
15004TIP3   OH266426   4.474   6.545   2.680 -0.2763 -0.1481  0.0252
15004TIP3    H166427   4.447   6.542   2.588  0.5243  1.4636 -0.3059
15004TIP3    H266428   4.424   6.618   2.718 -0.0895 -0.3530  0.6787
15005TIP3   OH266429   4.551   2.769   0.584  0.3733  0.1839  0.0880
15005TIP3    H166430   4.581   2.789   0.673  1.3633 -0.5275 -0.0680
15005TIP3    H266431   4.502   2.687   0.593  3.1397 -1.6482 -0.4371
15006TIP3   OH266432   1.536   4.327  11.465  0.1701  0.3050 -0.7028
15006TIP3    H166433   1.460   4.374  11.429 -1.1245 -2.1737 -1.4076
15006TIP3    H266434   1.592   4.311  11.388  1.1472  1.5396 -0.2893
15007TIP3   OH266435   5.679   4.079  16.740  0.3010 -0.9925  0.2070
15007TIP3    H166436   5.592   4.050  16.765 -0.5908  1.0566 -0.2901
15007TIP3    H266437   5.723   4.099  16.822 -0.1232 -0.9049  0.4143
15008TIP3   OH266438   6.185   4.558   0.597  0.5510  0.0256  0.0782
15008TIP3    H166439   6.166   4.464   0.587  1.0299 -0.1651  0.8214
15008TIP3    H266440   6.135   4.584   0.674 -0.1203  0.5568 -0.5236
15009TIP3   OH266441   1.150   2.010   2.873 -0.3581  0.0302 -0.0653
15009TIP3    H166442   1.172   1.918   2.863  0.6353  0.1802  0.5640
15009TIP3    H266443   1.227   2.049   2.914 -0.4284  1.3042 -1.0542
15010TIP3   OH266444   2.078   6.151   0.151  0.2502  0.0984  0.0538
15010TIP3    H166445   1.998   6.179   0.106  0.1397 -1.4291 -0.7945
15010TIP3    H266446   2.078   6.199   0.233 -0.4602  1.6792 -0.8186
15011TIP3   OH266447   0.995   6.624   5.260  0.1881 -0.8313 -0.2748
15011TIP3    H166448   0.939   6.552   5.231 -0.0593 -1.0133  0.6251
15011TIP3    H266449   1.077   6.612   5.213 -0.7303 -0.1788 -2.1496
15012TIP3   OH266450   3.262   1.528  14.926 -0.0651  0.1648 -0.0706
15012TIP3    H166451   3.227   1.446  14.891  0.9262  0.2668 -1.3957
15012TIP3    H266452   3.242   1.593  14.858 -0.4203  0.9286  0.7493
15013TIP3   OH266453   1.079   1.374  16.458  0.0297 -0.0913  0.2168
15013TIP3    H166454   1.084   1.376  16.554 -0.6743 -0.8756  0.2829
15013TIP3    H266455   1.056   1.464  16.433  0.2272  0.1194  0.7766
15014TIP3   OH266456   6.347   2.956   3.024  0.4516  0.0955  0.5076
15014TIP3    H166457   6.337   2.880   3.081  0.9257 -0.2326  0.1604
15014TIP3    H266458   6.265   3.004   3.033 -1.2066 -2.0561 -1.6464
15015TIP3   OH266459   0.360   2.334  12.425  0.1454 -0.1476  0.0609
15015TIP3    H166460   0.298   2.278  12.472 -0.4795 -1.5908 -2.2923
15015TIP3    H266461   0.415   2.373  12.493 -1.1728 -1.4950  1.9811
15016TIP3   OH266462   3.012   0.209  11.973 -0.0350 -0.0626 -0.4043
15016TIP3    H166463   3.078   0.272  11.941  1.6739 -1.1739  0.7499
15016TIP3    H266464   2.999   0.232  12.065  0.6252 -1.3545  0.0383
15017TIP3   OH266465   0.937   0.175  14.168  0.6258  0.1454 -0.7232
15017TIP3    H166466   1.005   0.118  14.131  1.1227 -1.0066  1.7488
15017TIP3    H266467   0.985   0.250  14.204  0.0652  1.7270 -3.0178
15018TIP3   OH266468   3.191   2.682   1.331  0.7077 -0.0855  0.5852
15018TIP3    H166469   3.233   2.710   1.250  0.0304  0.0444  0.2728
15018TIP3    H266470   3.140   2.758   1.359  0.7397 -0.2154  0.9985
15019TIP3   OH266471   1.766   4.354   1.684  0.4468  0.5552  0.1640
15019TIP3    H166472   1.846   4.309   1.710 -0.4392 -0.5198  1.1050
15019TIP3    H266473   1.699   4.323   1.745 -0.1866  3.2858  1.0089
15020TIP3   OH266474   2.611   6.640   4.819  0.3236 -0.1736 -0.0779
15020TIP3    H166475   2.578   6.594   4.742 -0.6913 -1.8031  1.2638
15020TIP3    H266476   2.542   6.631   4.885  1.6576  0.0650  1.4451
15021TIP3   OH266477   5.162   5.866   2.101  0.0178  0.9483  0.3078
15021TIP3    H166478   5.138   5.941   2.156 -1.6749  0.2661  0.5745
15021TIP3    H266479   5.183   5.905   2.017  0.1172  1.8127  0.7149
15022TIP3   OH266480   5.046   2.249   0.480  0.1121 -0.0032  0.6267
15022TIP3    H166481   5.075   2.173   0.530  0.6215 -0.3648 -0.2027
15022TIP3    H266482   4.976   2.215   0.423 -0.4041  0.3835  1.0231
15023TIP3   OH266483   4.417   6.122  13.260  0.1033  0.0923  0.0585
15023TIP3    H166484   4.449   6.068  13.188 -0.6396 -0.4546  0.1210
15023TIP3    H266485   4.493   6.172  13.289  0.9707 -1.3470  0.3776
15024TIP3   OH266486   6.391   2.797  11.027  0.3029 -0.1817  0.2990
15024TIP3    H166487   6.485   2.808  11.008  0.6707  2.3854  2.9695
15024TIP3    H266488   6.388   2.767  11.117 -1.4964 -1.1078 -0.0236
15025TIP3   OH266489   5.531   6.504   0.425 -0.5082 -0.2485 -0.3504
15025TIP3    H166490   5.623   6.528   0.436 -0.4985 -0.2527 -0.4223
15025TIP3    H266491   5.488   6.584   0.395 -0.7408  0.0584  0.7432
15026TIP3   OH266492   6.001   1.908   3.801  0.0687  0.4928  0.4474
15026TIP3    H166493   5.998   1.836   3.863 -0.2772  1.3432  1.4539
15026TIP3    H266494   6.051   1.976   3.846  1.4488  0.4637 -0.9619
15027TIP3   OH266495   1.112   5.050  14.310  0.3023 -0.2711 -0.0364
15027TIP3    H166496   1.198   5.086  14.290  1.3629 -2.4078  0.4183
15027TIP3    H266497   1.084   5.009  14.228  0.3924 -0.8470  0.2165
15028TIP3   OH266498   4.040   3.378  13.303 -0.6675  0.2449  0.1789
15028TIP3    H166499   3.982   3.303  13.318  0.7561 -1.1536 -1.0052
15028TIP3    H266500   4.017   3.409  13.215  2.4030 -2.3787 -1.7547
15029TIP3   OH266501   5.024   6.422   4.232  0.1128 -0.0323 -0.3283
15029TIP3    H166502   5.011   6.517   4.223  1.5161  0.1100 -1.1000
15029TIP3    H266503   5.012   6.406   4.326  0.2793  0.9811 -0.1160
15030TIP3   OH266504   1.847   6.522   5.786 -0.1788 -0.1637  0.7344
15030TIP3    H166505   1.780   6.459   5.810 -1.5053  1.6158  2.0177
15030TIP3    H266506   1.913   6.514   5.855  1.1224 -2.0942 -0.6676
15031TIP3   OH266507   5.089   3.059   2.135  0.0866 -0.7648 -0.2969
15031TIP3    H166508   5.116   2.980   2.183  1.4043 -1.0981 -1.5222
15031TIP3    H266509   5.133   3.052   2.051 -2.5631 -0.4878 -1.8335
15032TIP3   OH266510   5.341   1.371   6.471 -0.1133  0.0246  0.4278
15032TIP3    H166511   5.270   1.411   6.522 -0.6910  1.5584 -1.4717
15032TIP3    H266512   5.396   1.444   6.445 -0.2314 -0.5893 -1.7234
15033TIP3   OH266513   0.110   0.725  17.151 -0.1326 -0.1752  0.4419
15033TIP3    H166514   0.158   0.730  17.233 -1.8626  0.8075  1.4622
15033TIP3    H266515   0.129   0.638  17.117  3.2265  0.5530  0.1630
15034TIP3   OH266516   1.412   1.568   4.982 -0.1909  0.3598 -0.0716
15034TIP3    H166517   1.354   1.544   5.055  0.3862 -1.1113 -0.0628
15034TIP3    H266518   1.482   1.618   5.023  0.0134 -0.2657  0.3612
15035TIP3   OH266519   0.179   2.768   5.763  0.1792 -0.3600  0.6230
15035TIP3    H166520   0.247   2.713   5.724 -1.9640 -2.9009  0.1076
15035TIP3    H266521   0.118   2.785   5.692 -1.2771 -0.8089  1.7094
15036TIP3   OH266522   0.086   1.294   2.202 -0.1154  0.5943 -0.0900
15036TIP3    H166523   0.134   1.355   2.147 -1.2713  2.2164  0.6270
15036TIP3    H266524   0.093   1.330   2.290  0.0268 -0.8836  0.5413
15037TIP3   OH266525   3.330   6.714  12.545 -0.0660  0.2647  0.2715
15037TIP3    H166526   3.423   6.693  12.554 -0.5992 -1.7487  2.0541
15037TIP3    H266527   3.306   6.679  12.460  0.2847 -1.7384  0.9331
15038TIP3   OH266528   6.751   3.873   0.272  0.1362  0.4601  0.4016
15038TIP3    H166529   6.832   3.881   0.222  0.0640 -0.8180  0.0513
15038TIP3    H266530   6.776   3.828   0.352 -0.1427  0.5369  0.5346
15039TIP3   OH266531   4.799   2.089   5.610 -0.0649 -0.7750 -0.0600
15039TIP3    H166532   4.792   2.140   5.529  1.2471 -0.9582 -0.3217
15039TIP3    H266533   4.892   2.067   5.616 -0.5464 -2.9402  0.1667
15040TIP3   OH266534   2.042   2.343   2.423 -0.4711 -0.0575 -0.7576
15040TIP3    H166535   1.984   2.354   2.499  0.3357 -0.3460 -0.0813
15040TIP3    H266536   2.081   2.429   2.410 -0.1294 -0.1565 -0.4296
15041TIP3   OH266537   0.783   0.010  15.111 -0.4112 -0.1371  0.3000
15041TIP3    H166538   0.876  -0.007  15.102  0.1620  1.9243  1.5728
15041TIP3    H266539   0.751  -0.058  15.171  0.2262 -0.9216 -0.2332
15042TIP3   OH266540   5.047   3.228  12.219 -0.0532 -0.3940 -0.0431
15042TIP3    H166541   4.997   3.309  12.228  0.6331 -0.0099  0.4667
15042TIP3    H266542   5.070   3.204  12.309  1.1310 -0.2632 -0.2902
15043TIP3   OH266543   1.755   0.890  14.728  0.2356  0.7220  0.1686
15043TIP3    H166544   1.704   0.831  14.672  0.3389  0.2843  0.5209
15043TIP3    H266545   1.708   0.973  14.726  0.7081  0.9793 -1.2505
15044TIP3   OH266546   6.113   2.636   4.202  0.1062 -0.5357 -0.0856
15044TIP3    H166547   6.190   2.602   4.156 -0.9091 -2.3138 -0.5913
15044TIP3    H266548   6.066   2.687   4.137  0.3593 -0.2776 -0.0647
15045TIP3   OH266549   2.924   2.764  13.260 -0.0405 -0.4329 -0.2986
15045TIP3    H166550   2.894   2.796  13.175  1.0966  2.2243  0.2083
15045TIP3    H266551   2.844   2.758  13.313 -0.5573 -0.5758 -1.0752
15046TIP3   OH266552   4.990   6.515  14.324 -0.2187 -0.2823 -0.0330
15046TIP3    H166553   4.964   6.472  14.406 -0.6933  1.9385  1.0574
15046TIP3    H266554   4.912   6.509  14.269 -0.1206 -1.1963 -0.0955
15047TIP3   OH266555   1.525   5.924   2.005 -0.0898 -0.0385 -0.3756
15047TIP3    H166556   1.453   5.955   2.060  0.0952 -0.4542  0.1068
15047TIP3    H266557   1.603   5.957   2.048  0.0673 -0.5419 -0.2622
15048TIP3   OH266558   1.657   2.219   2.638 -0.0750 -0.1238  0.0337
15048TIP3    H166559   1.587   2.154   2.647 -0.4295  0.3743  1.0169
15048TIP3    H266560   1.615   2.294   2.596  0.1671 -0.2626 -0.4667
15049TIP3   OH266561   5.637   1.523   4.401  0.4281 -0.6347  0.4091
15049TIP3    H166562   5.658   1.494   4.490  0.4811 -0.7746  0.3523
15049TIP3    H266563   5.657   1.616   4.400 -0.3430 -0.4630  0.7746
15050TIP3   OH266564   0.983   2.369   5.726 -0.2843  0.3324  0.1263
15050TIP3    H166565   1.044   2.414   5.785 -1.2739  0.4522  1.0991
15050TIP3    H266566   0.906   2.353   5.780 -0.7147 -0.7592 -0.7817
15051TIP3   OH266567   4.093   5.290  15.021  0.9921 -0.2471 -0.0154
15051TIP3    H166568   4.188   5.277  15.028  1.1551  0.0495 -1.3449
15051TIP3    H266569   4.055   5.218  15.071  1.9131 -0.6481  0.1339
15052TIP3   OH266570   2.799   6.704  16.685 -0.1755  0.1263 -0.2708
15052TIP3    H166571   2.779   6.711  16.778 -1.4145  0.1440 -0.5220
15052TIP3    H266572   2.758   6.622  16.658  0.3095  0.0424 -0.7713
15053TIP3   OH266573   3.240   4.102   4.695  0.2821  0.3961  0.0342
15053TIP3    H166574   3.220   4.042   4.766 -2.5262 -0.7527 -1.5732
15053TIP3    H266575   3.217   4.189   4.728  1.3422  0.2289  1.2865
15054TIP3   OH266576   0.188   5.222   6.132  0.2082  0.0626 -0.3483
15054TIP3    H166577   0.103   5.179   6.126 -1.5422  2.9903  0.7978
15054TIP3    H266578   0.168   5.309   6.167  3.5931  1.2625 -0.9775
15055TIP3   OH266579   0.761   0.016  11.463 -0.9131  0.2974  0.2295
15055TIP3    H166580   0.719  -0.057  11.508  0.2074  0.4361  1.5835
15055TIP3    H266581   0.854   0.007  11.483 -0.0823 -0.4476 -3.3135
15056TIP3   OH266582   6.460   1.200   4.928  0.0227 -0.2930 -0.2351
15056TIP3    H166583   6.383   1.153   4.959  1.4110 -1.9034  0.9599
15056TIP3    H266584   6.456   1.285   4.973 -0.2396 -0.9637  1.0418
15057TIP3   OH266585   4.822   3.873  14.498 -0.1432  0.6707 -0.1449
15057TIP3    H166586   4.906   3.835  14.524 -1.1551 -1.1344  0.6007
15057TIP3    H266587   4.761   3.800  14.500 -1.8900  2.0804  0.0108
15058TIP3   OH266588   4.034   4.276  16.558  0.8749  0.5341 -0.4189
15058TIP3    H166589   4.025   4.182  16.571 -1.1378  0.6319 -0.8573
15058TIP3    H266590   3.946   4.311  16.569  1.3257  2.1955 -1.6409
15059TIP3   OH266591   0.556   0.750   4.516 -0.1627  0.3724 -0.1861
15059TIP3    H166592   0.606   0.671   4.536 -1.4049 -0.3239  0.2412
15059TIP3    H266593   0.465   0.723   4.521 -0.6654  2.1441  1.3160
15060TIP3   OH266594   3.317   1.571   0.766 -0.2991 -0.8090  0.4557
15060TIP3    H166595   3.268   1.509   0.713  1.4627  0.4272 -2.9005
15060TIP3    H266596   3.402   1.529   0.780 -0.0527 -0.2730  0.5897
15061TIP3   OH266597   4.947   5.891   5.052 -0.1321  0.5642  0.6231
15061TIP3    H166598   5.018   5.832   5.077 -1.0750 -0.4121  1.0777
15061TIP3    H266599   4.974   5.976   5.085  1.0250  0.2914  0.4022
15062TIP3   OH266600   6.590   1.780  14.847 -0.1651 -0.4712  0.3224
15062TIP3    H166601   6.651   1.847  14.815  1.1290 -1.9708 -0.4781
15062TIP3    H266602   6.600   1.707  14.786 -1.7297 -1.3213  1.0262
15063TIP3   OH266603   1.355   3.315   4.701  0.0249  0.0931  0.0409
15063TIP3    H166604   1.274   3.349   4.665  0.9220  0.1078 -2.1389
15063TIP3    H266605   1.407   3.289   4.624  1.6927 -0.8115  1.3849
15064TIP3   OH266606   3.775   4.961  11.740 -0.9024 -0.4659  0.2978
15064TIP3    H166607   3.788   4.916  11.657 -0.9064 -0.3797  0.2502
15064TIP3    H266608   3.683   4.986  11.740 -1.1652 -1.3857  0.7880
15065TIP3   OH266609   0.133   0.827   4.006 -0.4028 -0.1133 -0.6379
15065TIP3    H166610   0.182   0.745   4.013 -2.3355 -1.2893 -0.0919
15065TIP3    H266611   0.118   0.854   4.096  1.3295  1.6051 -0.8042
15066TIP3   OH266612   1.438   3.642  15.526 -0.7505 -0.3009 -0.2120
15066TIP3    H166613   1.531   3.659  15.509 -1.3716  2.1527 -1.7493
15066TIP3    H266614   1.406   3.600  15.446 -1.4246  1.0952 -0.7036
15067TIP3   OH266615   1.444   1.917  13.261 -0.2124  0.0827  0.2928
15067TIP3    H166616   1.372   1.945  13.318 -1.4356 -0.4397 -0.9376
15067TIP3    H266617   1.469   1.995  13.212 -1.2518 -0.1434 -0.6304
15068TIP3   OH266618   2.342   4.909   1.769 -0.3042 -0.1626 -0.3598
15068TIP3    H166619   2.407   4.879   1.832 -0.8284  0.0027  0.2716
15068TIP3    H266620   2.347   4.846   1.697  0.9703  0.1915 -0.6073
15069TIP3   OH266621   1.095   1.053  16.895 -0.1969  0.0471 -0.0936
15069TIP3    H166622   1.001   1.034  16.896  0.0668 -1.5505 -1.2722
15069TIP3    H266623   1.111   1.093  16.810  0.1091  0.8440  0.3308
15070TIP3   OH266624   1.974   6.545   2.720  0.1184  0.0895  0.2978
15070TIP3    H166625   1.890   6.528   2.761 -0.4592  0.2590 -0.7829
15070TIP3    H266626   1.995   6.636   2.742 -0.2404  0.2133  0.1282
15071TIP3   OH266627   5.110   4.152   4.844  0.5539 -0.0604 -0.4889
15071TIP3    H166628   5.179   4.188   4.789 -0.8995  1.1954 -1.5925
15071TIP3    H266629   5.076   4.227   4.893  0.2812 -0.7456  0.4186
15072TIP3   OH266630   3.837   4.913  16.193 -0.3500  0.0235 -0.1447
15072TIP3    H166631   3.863   4.918  16.285 -1.7710  0.5651  0.2391
15072TIP3    H266632   3.910   4.954  16.146  1.2232 -1.8265  0.5424
15073TIP3   OH266633   3.366   5.472   2.878 -0.0057 -0.3096 -0.4300
15073TIP3    H166634   3.300   5.497   2.943  0.7393 -1.9524  1.0482
15073TIP3    H266635   3.317   5.460   2.797 -1.0673  1.1517 -0.0374
15074TIP3   OH266636   4.064   0.178  12.457 -0.1949 -0.2932  0.4706
15074TIP3    H166637   4.128   0.215  12.518 -2.9523  0.6961  3.0311
15074TIP3    H266638   4.015   0.116  12.510 -3.3836  1.3322 -0.3313
15075TIP3   OH266639   3.581   2.283  16.051 -0.4795  0.2146 -0.0142
15075TIP3    H166640   3.494   2.320  16.040  0.0738  2.5717  2.4221
15075TIP3    H266641   3.640   2.346  16.008  0.2205  0.3147  1.0464
15076TIP3   OH266642   4.406   3.074   3.170 -0.5256 -0.1892 -0.1242
15076TIP3    H166643   4.467   3.071   3.095  0.7689  0.0458  0.8828
15076TIP3    H266644   4.330   3.025   3.140  0.0047 -0.2074 -1.5621
15077TIP3   OH266645   5.780   6.145  11.310 -0.4044 -0.0948  0.7655
15077TIP3    H166646   5.814   6.138  11.400 -4.2081 -3.0108  2.2421
15077TIP3    H266647   5.810   6.066  11.266 -0.6059  0.1026  0.2645
15078TIP3   OH266648   4.510   2.023  14.212  0.5289 -0.5615  0.2546
15078TIP3    H166649   4.460   2.041  14.291  0.8669 -0.2587  0.4006
15078TIP3    H266650   4.479   1.937  14.183 -0.5506 -0.0836 -0.0283
15079TIP3   OH266651   5.745   1.579  16.426 -0.4842  0.2617  0.1929
15079TIP3    H166652   5.792   1.497  16.441 -1.3679 -0.5026 -1.0671
15079TIP3    H266653   5.813   1.645  16.421  0.1942 -0.2243  2.1379
15080TIP3   OH266654   2.131   1.838  16.316 -0.8103  0.0461  0.1680
15080TIP3    H166655   2.078   1.769  16.355 -0.0629 -1.0941 -0.7763
15080TIP3    H266656   2.079   1.870  16.242 -1.8519  1.6314  1.4977
15081TIP3   OH266657   1.173   0.399   4.940 -0.1087 -0.6110  0.1721
15081TIP3    H166658   1.233   0.391   4.865 -0.4416  0.9816 -0.2865
15081TIP3    H266659   1.231   0.392   5.016  0.1042 -3.4614 -0.1218
15082TIP3   OH266660   2.450   2.029  11.088  0.3963 -0.3863 -0.1268
15082TIP3    H166661   2.434   2.074  11.005 -0.7935 -0.2270  0.1652
15082TIP3    H266662   2.517   1.964  11.068 -0.7838 -1.2176 -1.5486
15083TIP3   OH266663   1.038   1.451   5.630  0.0074 -0.1621  0.2019
15083TIP3    H166664   0.981   1.490   5.564  0.3550 -1.9075 -1.1951
15083TIP3    H266665   1.086   1.383   5.583  1.5143 -0.3192  1.8884
15084TIP3   OH266666   4.078   1.841  16.526 -0.0649  0.1097 -0.0990
15084TIP3    H166667   4.084   1.936  16.534 -0.0459  0.1450 -0.4971
15084TIP3    H266668   3.991   1.825  16.490 -0.0589 -0.0198 -0.0560
15085TIP3   OH266669   3.196   0.317  14.902 -0.3963  0.2808  0.2255
15085TIP3    H166670   3.161   0.405  14.914 -1.1303 -0.0737  0.7461
15085TIP3    H266671   3.177   0.296  14.811 -0.4888  0.5416  0.1833
15086TIP3   OH266672   5.353   0.630   1.492 -0.4286 -0.3122 -0.0256
15086TIP3    H166673   5.370   0.601   1.582  1.4355 -2.4896 -0.9710
15086TIP3    H266674   5.413   0.703   1.479 -0.6066 -0.0758  0.4529
15087TIP3   OH266675   1.656   3.071  16.605  0.7195 -0.0074  0.4999
15087TIP3    H166676   1.686   2.982  16.624  0.7711 -0.4156 -1.2603
15087TIP3    H266677   1.728   3.110  16.555 -0.1871  0.2273 -0.6885
15088TIP3   OH266678   4.073   4.792   5.385 -0.0601 -0.1777  0.1496
15088TIP3    H166679   4.044   4.719   5.331 -0.7528 -1.1661  1.7950
15088TIP3    H266680   4.001   4.808   5.445  0.4622  1.2722  0.4333
15089TIP3   OH266681   2.260   5.623  14.961 -0.6082  0.7611  0.1185
15089TIP3    H166682   2.218   5.625  15.047 -0.5825 -1.2197  0.2267
15089TIP3    H266683   2.245   5.710  14.924 -2.8242  0.8444  1.0895
15090TIP3   OH266684   3.986   4.085   0.519  0.2441 -0.6093  0.3603
15090TIP3    H166685   4.031   4.067   0.436 -0.7090  0.4627 -0.4281
15090TIP3    H266686   3.965   4.179   0.515 -0.0515 -0.5969  1.7066
15091TIP3   OH266687   4.912   2.532   5.043 -0.2320  0.3219 -0.1954
15091TIP3    H166688   4.968   2.575   5.108  1.0597 -2.5725  0.7842
15091TIP3    H266689   4.972   2.499   4.977 -0.9198 -1.2365 -0.0959
15092TIP3   OH266690   3.049   5.842  13.551 -0.9069  0.1491  0.0984
15092TIP3    H166691   2.981   5.826  13.485 -1.7973 -0.8244  1.2018
15092TIP3    H266692   3.035   5.773  13.617  1.9510 -0.8892 -0.2300
15093TIP3   OH266693   4.635   6.273   4.577  0.2590 -0.0365 -0.4728
15093TIP3    H166694   4.614   6.363   4.604 -0.9969 -0.3518 -0.3257
15093TIP3    H266695   4.730   6.272   4.569  0.4294  0.9136  0.9592
15094TIP3   OH266696   0.870   6.293  12.311 -0.3529 -0.7535 -0.4937
15094TIP3    H166697   0.916   6.294  12.227 -0.7331 -0.4853 -0.6971
15094TIP3    H266698   0.889   6.206  12.347  1.8156 -0.0568  0.2511
15095TIP3   OH266699   5.582   0.975  11.280  0.0753  0.6786 -0.2954
15095TIP3    H166700   5.637   1.003  11.353  0.5340  0.5091 -0.5680
15095TIP3    H266701   5.597   1.042  11.213 -0.2510  0.7684 -0.2794
15096TIP3   OH266702   2.129   0.980   2.905 -0.4531 -0.3631 -0.3126
15096TIP3    H166703   2.158   0.956   2.817  1.3334  1.5722 -0.3283
15096TIP3    H266704   2.194   0.941   2.963  0.8510  1.8691 -0.1766
15097TIP3   OH266705   3.039   3.731   5.840 -0.9145 -0.3981 -0.2267
15097TIP3    H166706   3.128   3.764   5.827 -0.1020 -1.6363  1.7642
15097TIP3    H266707   2.983   3.806   5.820  0.6480  0.8300 -0.2084
15098TIP3   OH266708   2.741   1.749  11.894 -0.1341 -0.3095 -0.0743
15098TIP3    H166709   2.704   1.664  11.914  1.1324 -0.7200  0.6086
15098TIP3    H266710   2.801   1.733  11.821 -0.7399  0.2303 -0.7218
15099TIP3   OH266711   4.419   4.508  17.298  0.3441  0.7326  0.1565
15099TIP3    H166712   4.430   4.585  17.242 -0.5371  0.5500 -0.2726
15099TIP3    H266713   4.325   4.491  17.298  0.3474  0.5994  1.5342
15100TIP3   OH266714   2.235   3.039  12.278  0.1772 -0.4499  0.1681
15100TIP3    H166715   2.200   2.950  12.273 -1.1985  0.0963 -0.3618
15100TIP3    H266716   2.289   3.048  12.199  1.9221 -1.4393  1.2001
15101TIP3   OH266717   1.203   2.071  15.390  0.4039  0.0570 -0.4526
15101TIP3    H166718   1.114   2.084  15.357 -0.4278 -0.3844  1.4704
15101TIP3    H266719   1.230   1.986  15.356 -0.5935 -0.5788  0.2816
15102TIP3   OH266720   5.398   4.168   4.201  0.5259  0.6329 -0.1248
15102TIP3    H166721   5.363   4.088   4.242  1.4671  0.7659  0.9847
15102TIP3    H266722   5.397   4.149   4.107  2.2675 -1.3665  0.1839
15103TIP3   OH266723   0.781   3.784   3.771  0.3339  0.3466  0.2757
15103TIP3    H166724   0.843   3.854   3.750 -0.2394  0.7814 -0.0199
15103TIP3    H266725   0.813   3.746   3.852 -0.1013  1.8814  1.2122
15104TIP3   OH266726   0.842   6.117   5.814  0.0418  0.2561  0.2503
15104TIP3    H166727   0.772   6.144   5.873 -1.6679 -0.7308 -1.2382
15104TIP3    H266728   0.829   6.023   5.802  1.5400  0.0752 -0.1804
15105TIP3   OH266729   6.524   3.854  11.708 -0.2382  0.1784  0.6964
15105TIP3    H166730   6.446   3.892  11.749  0.1017  0.7414  0.8228
15105TIP3    H266731   6.494   3.829  11.620 -1.1987 -1.8115  1.5167
15106TIP3   OH266732   5.290   1.114  14.962 -0.0471 -0.1431 -0.6815
15106TIP3    H166733   5.266   1.051  14.894 -0.0561 -0.1914 -0.6337
15106TIP3    H266734   5.278   1.067  15.044 -0.8243  0.1703 -0.6032
15107TIP3   OH266735   5.343   0.044  10.825  0.2339  0.5635 -0.2672
15107TIP3    H166736   5.376   0.126  10.787  1.2214  0.4719  0.3801
15107TIP3    H266737   5.313   0.069  10.912  1.7442  0.0025  0.4330
15108TIP3   OH266738   6.518   1.110  16.398 -0.4529 -0.3550 -0.2244
15108TIP3    H166739   6.580   1.131  16.468 -0.3604  0.1887 -0.4660
15108TIP3    H266740   6.461   1.187  16.392 -0.8109 -0.6289 -0.3698
15109TIP3   OH266741   6.528   2.364  15.472 -0.2748 -0.1661  0.8137
15109TIP3    H166742   6.511   2.446  15.427  0.4437  0.0211  0.8639
15109TIP3    H266743   6.452   2.309  15.454 -0.4436  0.2638  0.2065
15110TIP3   OH266744   2.344   0.330   5.007 -0.1412  0.2343  0.2316
15110TIP3    H166745   2.372   0.392   4.941  0.0900  0.0054  0.1158
15110TIP3    H266746   2.249   0.321   4.993  0.3316 -2.2846 -2.2184
15111TIP3   OH266747   0.320   3.974  13.022  0.5630 -0.0886  0.4001
15111TIP3    H166748   0.319   4.032  12.946 -0.8221 -1.4345 -0.6721
15111TIP3    H266749   0.403   3.928  13.015  0.8788  0.4894  0.2576
15112TIP3   OH266750   1.855   5.639  15.865 -0.3617 -0.1114  0.3465
15112TIP3    H166751   1.881   5.730  15.880  1.5010 -0.7656  1.5361
15112TIP3    H266752   1.786   5.622  15.929  0.2265  0.1024  1.0463
15113TIP3   OH266753   4.087   1.774   6.026  0.0701  0.0709 -0.3380
15113TIP3    H166754   4.094   1.843   6.092 -2.4341 -2.0953  2.4746
15113TIP3    H266755   4.013   1.800   5.972 -0.8058 -0.2636  0.6548
15114TIP3   OH266756   3.838   5.654   5.144  0.0567 -0.8987 -0.5617
15114TIP3    H166757   3.755   5.680   5.183 -0.2852 -2.9359  0.1621
15114TIP3    H266758   3.898   5.726   5.165 -0.8064 -0.6941  1.3883
15115TIP3   OH266759   0.969   6.116  15.578 -0.1830  0.0946 -0.5873
15115TIP3    H166760   0.898   6.109  15.514  1.0620  0.0822 -2.0368
15115TIP3    H266761   1.023   6.038  15.562  1.5437  1.3842 -1.3224
15116TIP3   OH266762   3.583   0.117  16.734 -0.0211  0.3942 -0.1366
15116TIP3    H166763   3.588   0.203  16.693 -1.5214 -0.2213 -1.7063
15116TIP3    H266764   3.490   0.095  16.733  0.1818 -0.7016  1.4437
15117TIP3   OH266765   0.214   4.296  15.028  0.3922 -0.3386  0.4734
15117TIP3    H166766   0.274   4.222  15.028  1.5492  0.5641  0.1099
15117TIP3    H266767   0.269   4.371  15.006 -0.9644  0.4476 -0.4065
15118TIP3   OH266768   2.040   2.111   1.499  0.2253 -0.6248 -0.0982
15118TIP3    H166769   2.114   2.170   1.513  0.0246  0.0117 -1.6228
15118TIP3    H266770   2.033   2.103   1.404 -1.0280 -1.4961  0.0513
15119TIP3   OH266771   6.408   5.432   0.271 -0.7959 -0.4004  0.0635
15119TIP3    H166772   6.378   5.524   0.270 -0.3859 -0.2675 -0.1110
15119TIP3    H266773   6.341   5.386   0.220 -0.6857 -0.0934 -0.3681
15120TIP3   OH266774   3.177   4.367   4.778 -0.5059 -0.0929 -0.1384
15120TIP3    H166775   3.098   4.396   4.823 -0.4143  0.3581 -0.2640
15120TIP3    H266776   3.175   4.412   4.694  0.3801  0.7093  0.2423
15121TIP3   OH266777   3.380   4.998  12.850 -0.1353 -0.1142  0.2116
15121TIP3    H166778   3.463   5.019  12.809  0.1260 -1.3027  0.0842
15121TIP3    H266779   3.326   4.963  12.779 -0.0667 -1.1331  0.6393
15122TIP3   OH266780   4.560   4.874   4.274 -0.3555 -0.6928  0.3016
15122TIP3    H166781   4.579   4.780   4.271 -1.1116 -0.9363  1.8871
15122TIP3    H266782   4.477   4.883   4.228  0.7984 -0.4217 -1.8555
15123TIP3   OH266783   1.385   2.370  12.446 -0.4642  0.1096  0.0984
15123TIP3    H166784   1.323   2.404  12.381  0.7162 -1.1145 -1.7330
15123TIP3    H266785   1.435   2.304  12.400  1.1122 -0.1140  2.0064
15124TIP3   OH266786   4.597   4.355  13.572 -0.3855 -0.1286 -0.6974
15124TIP3    H166787   4.652   4.412  13.518 -0.0960  0.7564  0.4780
15124TIP3    H266788   4.586   4.276  13.520  3.5292 -1.1531 -0.3346
15125TIP3   OH266789   6.447   4.092   2.906  0.5795  0.1016 -0.0420
15125TIP3    H166790   6.469   4.013   2.857 -2.2556 -1.8032  1.5121
15125TIP3    H266791   6.356   4.111   2.883  0.2845  1.1743  1.8067
15126TIP3   OH266792   6.243   2.145   4.506 -0.1720 -0.2536 -0.0211
15126TIP3    H166793   6.218   2.059   4.474 -1.3161  0.2687 -0.5698
15126TIP3    H266794   6.266   2.194   4.427  2.2333 -0.5474  0.3967
15127TIP3   OH266795   2.337   2.607   1.576  0.1364  0.1958  0.6393
15127TIP3    H166796   2.336   2.605   1.672  2.8180 -0.9201  0.7412
15127TIP3    H266797   2.310   2.518   1.551  0.4395  0.1679  0.4114
15128TIP3   OH266798   3.974   3.607  16.685 -0.7068  0.0133 -0.1852
15128TIP3    H166799   3.997   3.684  16.632  0.3083 -0.3503 -0.2946
15128TIP3    H266800   4.020   3.535  16.643  0.2370 -0.2613  1.2604
15129TIP3   OH266801   4.637   3.268   0.224 -0.5417 -0.4302  0.5068
15129TIP3    H166802   4.639   3.182   0.182 -3.5094 -0.5309  0.3888
15129TIP3    H266803   4.672   3.252   0.312  0.1070 -1.4670  0.0809
15130TIP3   OH266804   2.555   4.209  13.282 -0.3454  0.4027  0.1331
15130TIP3    H166805   2.589   4.287  13.324 -2.2176  0.8887  0.8470
15130TIP3    H266806   2.575   4.138  13.344 -0.4770  0.6523  0.4650
15131TIP3   OH266807   1.088   3.853  13.763  0.5970  0.1567 -0.1136
15131TIP3    H166808   1.047   3.931  13.802  0.3012 -0.5218  0.9683
15131TIP3    H266809   1.166   3.837  13.816  0.5384 -0.4105 -0.1902
15132TIP3   OH266810   4.930   6.362  12.098 -1.2254 -0.4681  0.0608
15132TIP3    H166811   4.890   6.278  12.122 -1.0647 -0.9912 -1.4203
15132TIP3    H266812   4.998   6.376  12.164 -1.7328 -1.1402  0.7472
15133TIP3   OH266813   6.672   2.687  15.646  0.1557  0.2565 -0.0056
15133TIP3    H166814   6.603   2.677  15.581  0.7134 -0.6130 -0.4869
15133TIP3    H266815   6.638   2.750  15.709 -0.7660  0.3992 -0.6425
15134TIP3   OH266816   3.656   3.350  16.730  0.0767  0.0802  0.3315
15134TIP3    H166817   3.679   3.313  16.815 -1.1007 -0.4888  0.4287
15134TIP3    H266818   3.584   3.411  16.750 -1.2693 -1.1882 -0.4062
15135TIP3   OH266819   4.806   6.395   4.861  0.3193  0.1620 -0.0312
15135TIP3    H166820   4.855   6.317   4.836 -0.1846 -0.4227  0.7374
15135TIP3    H266821   4.850   6.428   4.940 -1.3528 -1.2647  1.6098
15136TIP3   OH266822   4.024   1.265   6.151  0.4021  0.3235  0.1280
15136TIP3    H166823   3.950   1.247   6.209  0.7717 -0.7320  0.2963
15136TIP3    H266824   3.985   1.307   6.075 -0.4176 -0.4824  0.0872
15137TIP3   OH266825   2.682   3.057  15.079  0.0134 -0.1447  0.9155
15137TIP3    H166826   2.641   3.118  15.018  2.2038  1.4771  0.9780
15137TIP3    H266827   2.625   3.059  15.156 -1.5299 -0.4901 -0.1487
15138TIP3   OH266828   0.463   5.651   0.387  0.1474  0.2368  0.8219
15138TIP3    H166829   0.500   5.722   0.335 -1.5904  0.2341 -0.5415
15138TIP3    H266830   0.436   5.692   0.469 -0.9772  1.2299 -0.0076
15139TIP3   OH266831   0.328   3.356  14.456  0.0893 -0.2447 -0.1577
15139TIP3    H166832   0.408   3.325  14.498 -0.3039 -2.1930 -0.7567
15139TIP3    H266833   0.349   3.445  14.429  1.4733 -0.1192  1.1637
15140TIP3   OH266834   3.294   1.044  12.261 -0.6031 -0.3623  0.2548
15140TIP3    H166835   3.201   1.034  12.285 -0.4855 -2.1125  0.1633
15140TIP3    H266836   3.341   0.997  12.330 -0.0208 -2.2328 -1.2955
15141TIP3   OH266837   1.321   6.228  11.566  0.8126  0.4716  0.0543
15141TIP3    H166838   1.253   6.267  11.622 -0.1198 -2.3866  1.0936
15141TIP3    H266839   1.272   6.185  11.495  1.3394 -2.4154  1.3041
15142TIP3   OH266840   3.020   2.532   3.773  0.1369 -0.0065  0.3216
15142TIP3    H166841   3.058   2.619   3.789 -0.3075  0.2833 -0.1395
15142TIP3    H266842   2.973   2.511   3.854  0.7054 -0.0610  0.6363
15143TIP3   OH266843   4.564   2.099   1.860  0.5613  0.3882  0.5949
15143TIP3    H166844   4.468   2.096   1.866  0.5898  1.2493  2.0573
15143TIP3    H266845   4.584   2.068   1.772 -1.1352  1.2705 -0.1526
15144TIP3   OH266846   2.351   2.019   1.235 -0.2953  0.4576 -0.0644
15144TIP3    H166847   2.377   2.037   1.145 -0.0905  0.6329  0.0290
15144TIP3    H266848   2.287   1.948   1.228 -0.7971  0.9383 -0.4062
15145TIP3   OH266849   0.917   3.748   1.331 -0.2405  0.2799 -0.3983
15145TIP3    H166850   0.881   3.765   1.244 -1.5851  0.3105  0.1419
15145TIP3    H266851   0.841   3.724   1.384  0.3251  1.6679  1.1293
15146TIP3   OH266852   3.634   3.304   2.544  0.0698 -0.1356 -0.0269
15146TIP3    H166853   3.670   3.390   2.567 -0.9606  0.8125 -1.7637
15146TIP3    H266854   3.658   3.248   2.617  0.6233  1.6703  1.2469
15147TIP3   OH266855   4.723   1.822  14.993 -0.0089 -0.0502 -0.4706
15147TIP3    H166856   4.734   1.905  15.039  0.1580  0.1086 -0.7920
15147TIP3    H266857   4.663   1.841  14.922  0.8844  0.0638 -1.2070
15148TIP3   OH266858   3.806   5.815  12.098 -0.3519  0.2340  0.2685
15148TIP3    H166859   3.749   5.888  12.121 -0.0279  0.9344 -1.0297
15148TIP3    H266860   3.894   5.846  12.118 -0.1743  0.3838 -0.6877
15149TIP3   OH266861   5.665   5.910  16.799 -0.1297  0.7010  0.0415
15149TIP3    H166862   5.702   5.971  16.736 -2.1901 -1.0151 -3.0779
15149TIP3    H266863   5.570   5.925  16.795 -0.5473 -1.4586  0.4985
15150TIP3   OH266864   2.596   0.580   2.343 -0.0368  0.3172  0.4982
15150TIP3    H166865   2.555   0.579   2.429 -0.7070  2.8667  0.2893
15150TIP3    H266866   2.527   0.553   2.283 -0.3707  1.1113  0.5136
15151TIP3   OH266867   6.426   5.528   2.638  0.0416  0.3129 -0.4787
15151TIP3    H166868   6.458   5.530   2.548  0.2580  1.6726 -0.3889
15151TIP3    H266869   6.378   5.610   2.648  1.5648  1.0481  1.1935
15152TIP3   OH266870   3.162   6.430  13.714 -0.3326  0.1093 -0.3120
15152TIP3    H166871   3.098   6.404  13.780 -0.4325  1.0183 -0.0465
15152TIP3    H266872   3.222   6.355  13.709  0.2969  0.4276  1.5824
15153TIP3   OH266873   5.039   4.539  16.656  0.0716  0.0708  0.0963
15153TIP3    H166874   5.071   4.575  16.739  1.2326  0.1191 -0.3542
15153TIP3    H266875   5.101   4.469  16.636 -0.3180 -0.0684 -0.6363
15154TIP3   OH266876   3.927   5.964   1.224  0.2414  0.6764  0.8573
15154TIP3    H166877   3.936   5.958   1.320 -2.2362  0.5138  1.1420
15154TIP3    H266878   3.843   5.923   1.205  0.1795  1.6459 -1.2940
15155TIP3   OH266879   0.294   0.259  13.728 -0.2197 -0.2678  0.6763
15155TIP3    H166880   0.327   0.216  13.807 -1.1792  0.8051  1.6847
15155TIP3    H266881   0.228   0.321  13.759 -1.4805 -0.6503 -1.0664
15156TIP3   OH266882   2.022   6.470  15.912  0.2465 -0.2823 -0.1552
15156TIP3    H166883   2.004   6.403  15.845 -0.5269  1.1562 -1.4575
15156TIP3    H266884   2.068   6.539  15.865 -1.1987  1.2168  0.5542
15157TIP3   OH266885   1.953   6.133   4.542  0.3529 -0.0054  0.2209
15157TIP3    H166886   1.860   6.153   4.554  0.4811  1.7391 -1.2927
15157TIP3    H266887   1.985   6.114   4.630 -1.4578 -0.8350  0.7474
15158TIP3   OH266888   4.775   6.352   3.101 -0.0296  0.0272 -0.4547
15158TIP3    H166889   4.750   6.398   3.021 -1.3273 -0.6807 -0.4783
15158TIP3    H266890   4.814   6.270   3.071 -1.3652 -0.6651 -0.3908
15159TIP3   OH266891   3.616   3.947   3.967 -0.2581  0.1925  0.0623
15159TIP3    H166892   3.619   4.002   3.888  1.5996  0.5409  0.3316
15159TIP3    H266893   3.525   3.950   3.995 -0.7644  0.8362 -1.5339
15160TIP3   OH266894   0.120   2.200   2.427  0.0973 -0.1736 -0.4653
15160TIP3    H166895   0.148   2.290   2.442 -0.9080 -0.1634  1.8049
15160TIP3    H266896   0.025   2.206   2.416 -0.4262 -1.1299  2.5824
15161TIP3   OH266897   3.580   1.728   4.619  0.1569  0.5768 -0.1654
15161TIP3    H166898   3.513   1.661   4.629  1.5736 -1.2140 -1.7787
15161TIP3    H266899   3.608   1.749   4.708  0.3321 -1.7320  0.3738
15162TIP3   OH266900   2.688   5.854   0.097  0.3510 -0.0431 -0.1919
15162TIP3    H166901   2.721   5.938   0.128 -0.9498  0.7299 -0.8184
15162TIP3    H266902   2.759   5.792   0.115  1.1369  1.0859  0.7344
15163TIP3   OH266903   2.369   4.841  15.639  0.3479  0.3315 -0.2054
15163TIP3    H166904   2.349   4.889  15.719  0.9401  0.6480 -0.2410
15163TIP3    H266905   2.463   4.853  15.627  0.0956  1.2273 -1.5452
15164TIP3   OH266906   3.517   2.287  10.475 -0.2074 -0.0841 -0.6053
15164TIP3    H166907   3.489   2.248  10.392  0.3380  0.0485 -0.8534
15164TIP3    H266908   3.571   2.219  10.516 -0.4295 -0.1279 -0.3825
15165TIP3   OH266909   3.196   0.021   5.744 -0.2581  0.7815  0.3923
15165TIP3    H166910   3.184   0.092   5.681  0.0318  1.0179  0.6022
15165TIP3    H266911   3.108  -0.015   5.757 -0.0515 -0.6467 -1.7450
15166TIP3   OH266912   4.965   2.727   4.441  0.2429 -0.4992 -0.1569
15166TIP3    H166913   4.983   2.638   4.473  1.4291 -0.7901 -1.4947
15166TIP3    H266914   5.036   2.745   4.380 -0.6831  0.8790 -0.8912
15167TIP3   OH266915   1.705   5.097   4.773 -0.1709  0.1280 -0.3103
15167TIP3    H166916   1.704   5.182   4.817  0.9676  0.0291 -0.0693
15167TIP3    H266917   1.687   5.117   4.681 -1.6040  0.4349  0.0192
15168TIP3   OH266918   0.087   0.901  13.095 -0.5565  0.3385  0.0944
15168TIP3    H166919   0.109   0.955  13.171  0.1251  0.3827 -0.1263
15168TIP3    H266920   0.031   0.957  13.042 -1.6297  0.0578  0.8955
15169TIP3   OH266921   5.149   5.118  12.281  0.4591  0.3203 -0.4660
15169TIP3    H166922   5.070   5.089  12.235  0.3720 -2.3408  1.1631
15169TIP3    H266923   5.217   5.119  12.214 -0.6855  1.6574 -1.6798
15170TIP3   OH266924   2.435   5.560  11.755  0.1801  0.2235 -0.1431
15170TIP3    H166925   2.481   5.622  11.698  2.5734 -0.6293  0.7446
15170TIP3    H266926   2.431   5.605  11.839 -0.7109  0.3013 -0.2165
15171TIP3   OH266927   0.088   3.394  15.765  0.2941 -0.3897 -0.2046
15171TIP3    H166928   0.088   3.433  15.852 -0.6199  2.9604 -1.5306
15171TIP3    H266929   0.004   3.348  15.760 -0.1818  0.3860  0.3381
15172TIP3   OH266930   3.484   0.981  12.058  0.6129 -0.3280  0.3229
15172TIP3    H166931   3.425   0.990  12.133  1.5572  0.0982  1.0239
15172TIP3    H266932   3.483   0.887  12.038 -2.4064 -0.0731 -1.4369
15173TIP3   OH266933   2.982   6.120  16.601  0.4705 -0.9611 -0.0730
15173TIP3    H166934   3.006   6.203  16.643  1.7976 -0.6941 -1.2942
15173TIP3    H266935   2.908   6.088  16.653  0.7204  0.3693  1.1787
15174TIP3   OH266936   4.210   1.495   3.229 -0.4098 -0.0652 -0.0375
15174TIP3    H166937   4.164   1.457   3.154 -0.3969 -2.3441  1.0052
15174TIP3    H266938   4.229   1.585   3.203  0.0340 -0.8849 -2.9727
15175TIP3   OH266939   1.304   5.234  16.544 -0.3998 -0.1822 -0.3644
15175TIP3    H166940   1.245   5.182  16.599 -0.1297 -1.3797 -1.1742
15175TIP3    H266941   1.269   5.225  16.456  1.2872 -1.4395 -0.9756
15176TIP3   OH266942   5.287   2.477   0.634  0.2284  0.2442  0.1442
15176TIP3    H166943   5.243   2.452   0.715  3.7772 -0.4696  2.0605
15176TIP3    H266944   5.293   2.572   0.639 -1.1502  0.3817 -0.2648
15177TIP3   OH266945   4.262   3.045  11.979  0.0766  0.1068  0.9202
15177TIP3    H166946   4.299   3.124  11.941  1.8577 -0.4779  1.3637
15177TIP3    H266947   4.167   3.061  11.980  0.2042  1.2821 -1.0839
15178TIP3   OH266948   0.412   5.830  16.381  0.6419  0.7054 -0.1984
15178TIP3    H166949   0.427   5.923  16.400  0.7751  0.3359  1.6836
15178TIP3    H266950   0.496   5.788  16.397 -0.0720 -0.1100  1.7812
15179TIP3   OH266951   0.301   0.738  12.707 -0.1464  0.0230  0.7441
15179TIP3    H166952   0.239   0.803  12.673  0.2375 -0.6996 -1.4325
15179TIP3    H266953   0.257   0.703  12.785 -1.6553  0.7979  0.2953
15180TIP3   OH266954   0.043   1.025   2.972 -0.1357  0.0776 -0.3170
15180TIP3    H166955   0.120   1.060   3.018 -0.7872 -0.4566  1.2505
15180TIP3    H266956   0.076   0.998   2.886  0.9156  2.0766 -0.5999
15181TIP3   OH266957   4.381   1.862  12.550 -0.3252  0.2055 -0.3417
15181TIP3    H166958   4.414   1.824  12.469 -0.4263 -1.1850  0.2408
15181TIP3    H266959   4.326   1.794  12.588  0.9064  0.2104  1.6311
15182TIP3   OH266960   2.973   5.135  14.716 -0.1423  0.0907 -0.0114
15182TIP3    H166961   2.918   5.198  14.670  1.3707  1.6842  0.2402
15182TIP3    H266962   3.044   5.116  14.655 -0.3419 -1.0357  0.0921
15183TIP3   OH266963   4.745   2.244  15.936  0.1198 -0.2041  0.7757
15183TIP3    H166964   4.655   2.276  15.946  0.5057  1.6691 -1.0129
15183TIP3    H266965   4.766   2.260  15.843  2.6128  0.3685  1.3576
15184TIP3   OH266966   5.423   3.276   1.151  0.4627  0.2569 -1.1854
15184TIP3    H166967   5.470   3.291   1.233 -1.4154 -0.1606  0.0246
15184TIP3    H266968   5.444   3.352   1.097  2.0435  0.3539 -0.4836
15185TIP3   OH266969   0.632   4.826   0.343 -0.2455 -0.2715  0.3715
15185TIP3    H166970   0.720   4.861   0.338 -0.2152 -0.0336  1.9769
15185TIP3    H266971   0.631   4.752   0.282  0.1918  1.4131 -1.7752
15186TIP3   OH266972   5.924   1.691   0.962 -0.5763  0.3744 -0.0625
15186TIP3    H166973   5.948   1.618   0.905 -1.1347  0.0272  0.1480
15186TIP3    H266974   5.834   1.674   0.987 -0.5184  0.8270  0.4698
15187TIP3   OH266975   0.078   4.369  11.036 -0.2976  0.6930  0.6094
15187TIP3    H166976   0.089   4.460  11.063  1.0582  1.2159 -1.4277
15187TIP3    H266977   0.164   4.343  11.001 -0.6838 -1.3371  1.0030
15188TIP3   OH266978   5.458   4.609  16.808  0.4002 -0.4948  0.1216
15188TIP3    H166979   5.470   4.704  16.809  0.2836 -0.4400 -1.2500
15188TIP3    H266980   5.505   4.578  16.886  0.6947  0.6562  0.4235
15189TIP3   OH266981   5.454   5.445  16.979  0.4451 -0.0474  0.2579
15189TIP3    H166982   5.419   5.359  16.953  0.0917  0.4119 -0.8361
15189TIP3    H266983   5.483   5.484  16.897 -0.7298  1.4701  0.5237
15190TIP3   OH266984   1.451   5.030  11.300 -0.3619 -0.0313 -0.2851
15190TIP3    H166985   1.476   5.087  11.228  1.2914 -0.6757 -0.2524
15190TIP3    H266986   1.500   4.949  11.285  1.9293  0.6313  2.8131
15191TIP3   OH266987   5.818   4.767  17.190  0.2959  0.2906  0.2578
15191TIP3    H166988   5.731   4.774  17.149  0.5216 -0.7023 -0.4372
15191TIP3    H266989   5.802   4.722  17.272  0.2949 -1.1235 -0.4834
15192TIP3   OH266990   0.220   5.546  13.825 -0.6333 -0.0035  0.1486
15192TIP3    H166991   0.190   5.628  13.865 -1.0013 -0.4480  0.8188
15192TIP3    H266992   0.140   5.495  13.815 -0.6839  0.4187 -1.9944
15193TIP3   OH266993   2.171   5.494  13.401 -0.1432 -0.2600  0.0115
15193TIP3    H166994   2.212   5.460  13.481  1.1319 -0.2008 -0.5805
15193TIP3    H266995   2.078   5.476  13.411  0.1587 -1.3633  0.9611
15194TIP3   OH266996   2.242   2.318  14.805 -0.3136 -0.2258 -0.7224
15194TIP3    H166997   2.231   2.262  14.881  0.6417 -0.3542 -0.6704
15194TIP3    H266998   2.158   2.313  14.759 -1.1162  0.3231  0.6232
15195TIP3   OH266999   5.643   6.290  13.222 -0.4276 -0.3171 -0.1787
15195TIP3    H167000   5.634   6.358  13.155 -0.9228  1.3245  1.4953
15195TIP3    H267001   5.730   6.253  13.207  0.5851  1.9064 -0.0473
15196TIP3   OH267002   6.684   4.063  11.448 -0.3471  0.0126  0.0893
15196TIP3    H167003   6.603   4.042  11.402 -0.0881 -1.2444  0.1812
15196TIP3    H267004   6.663   4.141  11.500 -0.5613  1.6782 -2.3423
15197TIP3   OH267005   4.906   3.202   2.556 -0.1484  0.2527  0.2764
15197TIP3    H167006   4.850   3.279   2.571  0.0315  0.3856  0.2719
15197TIP3    H267007   4.881   3.140   2.624 -0.1022  0.4236  0.4514
15198TIP3   OH267008   5.915   3.629  13.860  0.4477  0.6015 -0.2989
15198TIP3    H167009   5.932   3.536  13.844 -1.2692  0.2137  0.0039
15198TIP3    H267010   5.911   3.668  13.772  0.1094  0.1796 -0.4777
15199TIP3   OH267011   4.988   4.234   4.303 -0.4704 -0.1780  0.1654
15199TIP3    H167012   5.000   4.180   4.381  1.1101 -0.6108 -0.3524
15199TIP3    H267013   5.008   4.323   4.332  0.3957 -0.3768  0.2112
15200TIP3   OH267014   6.413   3.159   2.351 -0.1737 -0.1272  0.2021
15200TIP3    H167015   6.383   3.236   2.304 -1.5738 -0.7701  0.0007
15200TIP3    H267016   6.347   3.143   2.418  0.9481 -0.1941  1.3456
15201TIP3   OH267017   0.589   3.986  13.802  0.1063  0.5383  0.1402
15201TIP3    H167018   0.619   3.932  13.728 -0.5827 -1.3202  1.1502
15201TIP3    H267019   0.502   4.016  13.776 -0.1331 -0.1083  0.1832
15202TIP3   OH267020   0.781   3.382   6.145  0.2482 -0.3915 -0.5564
15202TIP3    H167021   0.803   3.400   6.053  0.8727 -0.5519 -0.4472
15202TIP3    H267022   0.866   3.369   6.187  0.0570  1.0919  0.3555
15203TIP3   OH267023   5.045   4.146   2.376  0.3178  0.1449  0.2327
15203TIP3    H167024   5.069   4.054   2.378  1.0971  0.3301 -0.2692
15203TIP3    H267025   4.961   4.149   2.330  0.2118 -0.3273  0.3982
15204TIP3   OH267026   6.543   6.414   3.269 -0.4462 -0.6868 -0.5741
15204TIP3    H167027   6.447   6.406   3.270 -0.5133 -0.1135 -1.4166
15204TIP3    H267028   6.567   6.396   3.178 -0.0477  2.1067 -1.1122
15205TIP3   OH267029   0.053   2.415   5.973 -0.8893 -0.0401 -0.6758
15205TIP3    H167030   0.089   2.495   6.011 -1.9223 -0.5727  1.6331
15205TIP3    H267031  -0.002   2.445   5.901 -0.2051  1.2033 -0.6996
15206TIP3   OH267032   1.275   2.601  16.481 -0.3374 -0.3028 -0.6236
15206TIP3    H167033   1.189   2.578  16.517 -0.6246  0.3469 -0.8870
15206TIP3    H267034   1.332   2.531  16.512 -0.4405  0.5251  1.6194
15207TIP3   OH267035   3.716   0.326  15.348  0.5856  0.1123  0.1185
15207TIP3    H167036   3.673   0.341  15.264  2.0107  1.3030 -0.4403
15207TIP3    H267037   3.780   0.257  15.330 -0.5331 -1.1305  0.7657
15208TIP3   OH267038   5.014   3.730   0.653  0.2116 -0.3759 -0.4007
15208TIP3    H167039   5.065   3.670   0.598  0.3702  0.8086 -1.5669
15208TIP3    H267040   5.023   3.815   0.611  0.4764  0.6111  1.5592
15209TIP3   OH267041   1.756   0.092  11.584 -0.1054  0.3273  0.3584
15209TIP3    H167042   1.710   0.009  11.568  0.1497  0.4012 -0.7787
15209TIP3    H267043   1.792   0.081  11.672  1.4137 -1.5029 -0.4092
15210TIP3   OH267044   1.225   3.633  14.890  0.0253 -0.3927 -0.2096
15210TIP3    H167045   1.216   3.705  14.953  2.0290  2.4577 -2.8485
15210TIP3    H267046   1.288   3.573  14.931 -0.8784 -0.1646  1.6244
15211TIP3   OH267047   0.765   4.204   5.419 -0.3784  0.2274  0.4848
15211TIP3    H167048   0.683   4.188   5.372 -0.2425  0.3360  0.2149
15211TIP3    H267049   0.827   4.141   5.384 -0.3158  0.2117  0.6195
15212TIP3   OH267050   6.261   4.487  11.073 -0.3456 -0.5968  0.5863
15212TIP3    H167051   6.279   4.508  10.982  1.8422 -1.4609  0.7619
15212TIP3    H267052   6.169   4.459  11.074 -0.5215 -0.1778 -1.2515
15213TIP3   OH267053   2.383   2.105  15.505 -0.4149 -0.3495 -0.8113
15213TIP3    H167054   2.391   2.149  15.420 -1.2880 -3.1799 -2.4682
15213TIP3    H267055   2.421   2.018  15.491  1.4591 -0.1997  2.3830
15214TIP3   OH267056   3.176   3.916  12.068  0.0931 -0.3562  0.5265
15214TIP3    H167057   3.261   3.954  12.048 -0.1931 -0.5991 -1.4455
15214TIP3    H267058   3.136   3.902  11.982 -1.4500 -1.3557  1.3587
15215TIP3   OH267059   1.420   1.342  13.593 -0.1340 -0.3404 -0.0543
15215TIP3    H167060   1.349   1.406  13.598  0.6074  0.4183  1.3848
15215TIP3    H267061   1.457   1.354  13.505 -0.8436  0.2764 -0.2809
15216TIP3   OH267062   1.546   5.488   4.081 -0.3353 -0.6151 -0.1224
15216TIP3    H167063   1.502   5.476   4.166  0.9649 -0.7402  0.5596
15216TIP3    H267064   1.475   5.497   4.018 -1.3494 -1.8745  0.7902
15217TIP3   OH267065   6.679   3.122   3.216 -0.2072 -0.0772  0.2214
15217TIP3    H167066   6.751   3.144   3.275  0.6861  1.5323 -1.3692
15217TIP3    H267067   6.673   3.027   3.219  0.5351 -0.0988  2.0206
15218TIP3   OH267068   1.564   3.246   5.780  0.2556 -0.1871 -0.3664
15218TIP3    H167069   1.642   3.298   5.759  0.2485  0.4736  1.1368
15218TIP3    H267070   1.589   3.193   5.856 -0.8419  0.2954  0.3698
15219TIP3   OH267071   3.920   5.223  14.218 -0.6352 -0.0456 -0.2264
15219TIP3    H167072   3.873   5.162  14.275  0.4632 -1.0650 -0.3705
15219TIP3    H267073   4.008   5.227  14.256 -0.1855  0.0440 -1.2599
15220TIP3   OH267074   5.517   0.750   6.338  0.3416 -0.3240  0.5513
15220TIP3    H167075   5.597   0.785   6.377  0.4203  0.2161 -0.0748
15220TIP3    H267076   5.449   0.769   6.402  0.3140  1.3515  0.0765
15221TIP3   OH267077   6.163   5.202  11.881 -0.2640 -0.1458 -0.2982
15221TIP3    H167078   6.078   5.200  11.837 -0.5743 -0.2612  0.3033
15221TIP3    H267079   6.200   5.115  11.866  0.1503  0.1872 -1.3225
15222TIP3   OH267080   4.531   0.919  14.874  0.1777 -0.6559  0.2142
15222TIP3    H167081   4.452   0.961  14.843  0.3727 -0.3384  0.1506
15222TIP3    H267082   4.586   0.909  14.796 -0.0340 -1.4004  0.1501
15223TIP3   OH267083   1.377   4.628  12.799 -0.0926 -0.3120 -0.2548
15223TIP3    H167084   1.290   4.588  12.791 -0.5230  0.2011  1.6090
15223TIP3    H267085   1.431   4.577  12.738 -0.9148 -2.9149  1.0528
15224TIP3   OH267086   4.319   4.604  16.983 -0.6168  0.0182  0.1696
15224TIP3    H167087   4.370   4.639  17.056 -0.5356 -2.5341  1.4561
15224TIP3    H267088   4.229   4.604  17.014 -0.8328  0.5805 -0.4446
15225TIP3   OH267089   1.203   4.160  11.278  0.4909 -0.4124  0.3250
15225TIP3    H167090   1.137   4.190  11.216 -2.7866 -2.8773  2.3015
15225TIP3    H267091   1.222   4.237  11.332  0.7199  0.8021 -1.4098
15226TIP3   OH267092   3.377   2.239   4.956 -0.1334  0.1698 -0.0579
15226TIP3    H167093   3.367   2.329   4.925 -1.9829 -0.1969 -0.6595
15226TIP3    H267094   3.317   2.232   5.030 -0.6011 -0.7552 -0.4952
15227TIP3   OH267095   6.232   5.002   1.815  0.3689 -0.4242  0.5092
15227TIP3    H167096   6.211   4.909   1.811 -1.9145 -0.0168  1.2560
15227TIP3    H267097   6.205   5.028   1.903  1.5238  0.8327  0.5164
15228TIP3   OH267098   0.926   1.534  11.341 -0.3225  0.3271 -0.2107
15228TIP3    H167099   0.974   1.504  11.264 -0.3601  1.2513 -0.6108
15228TIP3    H267100   0.986   1.523  11.414  0.7031  1.9128 -0.7680
15229TIP3   OH267101   3.683   2.161   4.821 -0.1520 -0.1316  0.2509
15229TIP3    H167102   3.620   2.124   4.884 -0.8785  0.1198 -0.3069
15229TIP3    H267103   3.633   2.168   4.740  0.3102  1.0088  0.0556
15230TIP3   OH267104   5.024   6.494   1.882 -0.0259 -0.5578  0.3435
15230TIP3    H167105   4.956   6.445   1.928 -2.2959 -0.4821 -2.6092
15230TIP3    H267106   5.050   6.436   1.810  1.2213  0.4388 -0.0395
15231TIP3   OH267107   0.019   2.706   1.081 -0.0828 -0.1645  0.1910
15231TIP3    H167108   0.088   2.653   1.041 -1.2947 -2.3691  0.8743
15231TIP3    H267109   0.004   2.666   1.167  0.3742  2.6117  1.7015
15232TIP3   OH267110   6.212   5.015  12.882 -0.6753  0.1076 -0.7804
15232TIP3    H167111   6.193   5.000  12.789 -2.3374 -1.2305 -0.2525
15232TIP3    H267112   6.140   4.974  12.929 -0.1961  1.3051  1.1169
15233TIP3   OH267113   6.083   0.290   3.551 -0.0128  0.0142  0.4124
15233TIP3    H167114   6.158   0.331   3.595  0.3016  0.4861 -0.5558
15233TIP3    H267115   6.115   0.270   3.463 -0.4267 -1.5327  0.5812
15234TIP3   OH267116   5.171   5.484   4.928 -0.1954  0.0984 -0.2881
15234TIP3    H167117   5.165   5.483   4.833  0.9581  0.5476 -0.3805
15234TIP3    H267118   5.212   5.568   4.949 -1.0770  0.3194  0.6582
15235TIP3   OH267119   2.166   3.193  14.318 -0.9058  0.0955 -0.1787
15235TIP3    H167120   2.244   3.140  14.301  0.0804  0.9994  1.3063
15235TIP3    H267121   2.112   3.138  14.374 -0.3454  0.2436  0.5268
15236TIP3   OH267122   1.099   4.769  13.569 -0.7433 -0.2505 -0.0358
15236TIP3    H167123   1.010   4.734  13.574 -0.1780 -1.7523 -0.0768
15236TIP3    H267124   1.110   4.820  13.649 -2.6638  2.6156 -1.4020
15237TIP3   OH267125   0.615   3.700   4.910  0.3072 -1.0320 -0.1275
15237TIP3    H167126   0.645   3.783   4.874  0.0583 -0.9351 -0.1109
15237TIP3    H267127   0.637   3.704   5.003  1.9581 -1.7314 -0.4604
15238TIP3   OH267128   5.995   0.546   1.319 -0.5176  0.0096 -0.9432
15238TIP3    H167129   6.000   0.641   1.316 -1.1281  0.0514 -0.7995
15238TIP3    H267130   5.912   0.528   1.364 -0.4920 -0.5882 -1.1285
15239TIP3   OH267131   1.618   0.667   4.517  0.5764  0.1942  0.3851
15239TIP3    H167132   1.597   0.734   4.452 -3.5618 -0.5455  0.7070
15239TIP3    H267133   1.680   0.609   4.472  0.3380  1.4593 -1.7277
15240TIP3   OH267134   0.014   1.523   6.742 -0.3287  0.6395  0.3102
15240TIP3    H167135  -0.063   1.559   6.787 -0.5174  1.6412 -0.7832
15240TIP3    H267136   0.072   1.495   6.812 -1.9804 -0.8128  1.1847
15241TIP3   OH267137   5.506   3.315   5.929  0.1632  0.1969 -0.0854
15241TIP3    H167138   5.475   3.385   5.986 -0.4753  0.9343 -1.2995
15241TIP3    H267139   5.463   3.236   5.961 -0.9175  0.7626 -0.1029
15242TIP3   OH267140   5.818   6.432   2.546 -0.8114  0.6579 -0.0816
15242TIP3    H167141   5.840   6.512   2.595 -1.8634 -0.4115  2.2798
15242TIP3    H267142   5.727   6.415   2.566 -0.5259 -1.3256 -0.2526
15243TIP3   OH267143   2.726   0.641  13.965 -0.0602 -0.4323  0.0606
15243TIP3    H167144   2.816   0.611  13.964 -0.5482 -1.9581 -0.2234
15243TIP3    H267145   2.712   0.674  14.054  0.1609 -2.2112  0.7841
15244TIP3   OH267146   1.303   6.689   5.199  0.6485 -0.3599  0.1561
15244TIP3    H167147   1.392   6.654   5.209  2.2216  3.0142 -0.6726
15244TIP3    H267148   1.287   6.687   5.105 -0.0855 -0.6874  0.2780
15245TIP3   OH267149   0.578   3.315   4.587 -0.4251  0.6815  0.1416
15245TIP3    H167150   0.486   3.298   4.565 -0.5142  0.7994  0.4125
15245TIP3    H267151   0.574   3.364   4.670 -0.1177  0.6655  0.1675
15246TIP3   OH267152   1.583   1.304  15.679 -0.0552 -0.0156 -0.2607
15246TIP3    H167153   1.615   1.381  15.632 -0.1107  0.2773  0.1674
15246TIP3    H267154   1.489   1.302  15.661  0.2024 -0.9370 -1.6024
15247TIP3   OH267155   4.944   6.303   0.526 -0.3456 -0.1427  0.6765
15247TIP3    H167156   4.849   6.299   0.512 -0.4722  2.1872  0.4411
15247TIP3    H267157   4.978   6.341   0.444  0.6649 -0.0186  1.1440
15248TIP3   OH267158   5.470   3.924  13.407 -0.2408  0.5549  0.0844
15248TIP3    H167159   5.506   3.991  13.348  1.0426 -0.0179  0.1812
15248TIP3    H267160   5.376   3.940  13.407  0.1653  3.3083  1.2966
15249TIP3   OH267161   2.800   6.422   0.371  0.3240  0.6801 -0.5480
15249TIP3    H167162   2.781   6.503   0.322 -0.2204  0.2501 -1.0668
15249TIP3    H267163   2.877   6.386   0.328  0.3280  0.7169 -0.5721
15250TIP3   OH267164   0.658   3.390  12.872  0.0674 -0.0150 -0.1964
15250TIP3    H167165   0.748   3.359  12.885 -0.0581 -0.7621 -1.0544
15250TIP3    H267166   0.613   3.316  12.832 -0.7306  0.6330 -0.5121
15251TIP3   OH267167   0.540   4.471  15.256 -0.2057  0.1561  0.0753
15251TIP3    H167168   0.455   4.467  15.301  0.9328 -0.0329  2.3615
15251TIP3    H267169   0.582   4.550  15.291  0.8584 -0.1603 -0.4483
15252TIP3   OH267170   0.174   2.811   2.541  0.7212  0.3369  0.5035
15252TIP3    H167171   0.237   2.874   2.506  2.1535  0.0756  2.4711
15252TIP3    H267172   0.103   2.864   2.575  0.4572  0.6984 -0.5668
15253TIP3   OH267173   3.589   1.935   3.111  0.5700  0.7660  0.0500
15253TIP3    H167174   3.632   2.005   3.062  0.2291  0.1048 -1.2305
15253TIP3    H267175   3.562   1.977   3.193  1.3626  1.8363 -0.2104
15254TIP3   OH267176   5.796   2.269   1.251 -0.4505  0.1014 -0.0532
15254TIP3    H167177   5.791   2.176   1.229 -2.6873 -0.3669  2.0050
15254TIP3    H267178   5.706   2.294   1.272  0.3823  2.2323  1.3342
15255TIP3   OH267179   0.768   4.266   5.031 -0.9074 -0.1676 -0.3842
15255TIP3    H167180   0.845   4.209   5.025 -1.1457 -0.3773 -2.1410
15255TIP3    H267181   0.785   4.321   5.107  1.0026 -0.1686 -0.7518
15256TIP3   OH267182   1.464   4.886  13.555  0.2618 -0.4536 -0.3583
15256TIP3    H167183   1.460   4.950  13.627  1.4766 -1.0403  0.2661
15256TIP3    H267184   1.426   4.931  13.480 -2.1324 -0.2053  0.9120
15257TIP3   OH267185   3.938   4.649  14.544  0.0561 -0.3307 -0.0177
15257TIP3    H167186   3.993   4.708  14.493 -0.4143 -1.6892 -2.1900
15257TIP3    H267187   3.976   4.563  14.532 -1.7386 -1.1084 -0.4874
15258TIP3   OH267188   5.554   5.020   5.337 -0.5778  0.1960  0.2105
15258TIP3    H167189   5.610   5.093   5.312 -1.3787  0.6958 -0.1708
15258TIP3    H267190   5.541   4.971   5.255 -0.0003 -0.4122  0.4742
15259TIP3   OH267191   2.335   6.717   1.603  0.3893  0.2707 -0.5096
15259TIP3    H167192   2.404   6.685   1.545  0.7550  1.5960 -0.8323
15259TIP3    H267193   2.317   6.643   1.662  0.9545 -0.6294 -1.4355
15260TIP3   OH267194   1.994   0.225  13.640  0.1506 -0.2992 -0.0666
15260TIP3    H167195   1.936   0.198  13.569 -1.7690  1.5726  0.6729
15260TIP3    H267196   1.956   0.307  13.671  2.4594  0.2973  1.3933
15261TIP3   OH267197   3.861   5.735  13.993 -0.0227  0.1879  0.3502
15261TIP3    H167198   3.878   5.643  13.973  2.3888  0.2582  1.7268
15261TIP3    H267199   3.908   5.783  13.925 -0.0224  0.4050  0.5027
15262TIP3   OH267200   4.448   2.875  13.264 -0.4391  0.3957  0.7964
15262TIP3    H167201   4.492   2.839  13.187  0.9505  2.2457  0.6409
15262TIP3    H267202   4.479   2.966  13.268 -0.0167  0.2215  3.8473
15263TIP3   OH267203   5.595   2.751  14.831  0.2646 -0.5643  0.0740
15263TIP3    H167204   5.662   2.814  14.859  0.3354  0.6974 -2.6422
15263TIP3    H267205   5.633   2.710  14.753 -0.9380 -1.9973  0.2119
15264TIP3   OH267206   2.611   2.083  12.148 -1.1588 -0.7209  0.5467
15264TIP3    H167207   2.684   2.114  12.202 -1.1260 -0.3296  0.2764
15264TIP3    H267208   2.636   1.994  12.123 -0.6747 -0.5131  0.2801
15265TIP3   OH267209   2.394   1.067  13.838 -0.3460  0.6097 -0.0001
15265TIP3    H167210   2.361   1.148  13.799  1.3672  0.6954 -1.3870
15265TIP3    H267211   2.410   1.009  13.763 -3.0979 -1.7240  1.0350
15266TIP3   OH267212   5.698   1.371  13.407  0.3100  0.1716 -0.2925
15266TIP3    H167213   5.664   1.308  13.342  2.8774 -1.3975 -0.2535
15266TIP3    H267214   5.664   1.340  13.490  0.2349 -0.1985 -0.4596
15267TIP3   OH267215   6.219   4.930   1.363 -0.0195  0.7138  0.3143
15267TIP3    H167216   6.234   5.014   1.406 -3.8813  1.2267  0.9742
15267TIP3    H267217   6.177   4.953   1.280 -2.3394 -0.5162  1.0859
15268TIP3   OH267218   0.174   4.915   5.249 -0.2753  0.2862  0.2699
15268TIP3    H167219   0.112   4.850   5.281 -1.1288  0.8101 -0.2696
15268TIP3    H267220   0.217   4.949   5.327  1.4062 -2.0699  0.4845
15269TIP3   OH267221   3.304   4.515  14.740  0.1430  0.3069  0.7444
15269TIP3    H167222   3.391   4.555  14.750 -0.3255  1.1476  1.5814
15269TIP3    H267223   3.271   4.551  14.657  0.5251  0.1021  0.5002
15270TIP3   OH267224   6.152   4.121  15.012  0.1455 -0.3557  0.7948
15270TIP3    H167225   6.213   4.191  14.988 -0.3368  0.0170  0.6468
15270TIP3    H267226   6.191   4.042  14.974 -0.8198  0.2670 -1.7061
15271TIP3   OH267227   4.910   5.759   5.349 -0.2865 -0.2057 -0.3109
15271TIP3    H167228   4.878   5.669   5.339 -4.5095  1.0256  0.1974
15271TIP3    H267229   4.959   5.776   5.269 -0.5250 -2.5075 -1.0251
15272TIP3   OH267230   2.647   2.585   4.684  0.5365  0.0184 -0.2070
15272TIP3    H167231   2.722   2.560   4.630  2.7705  1.2038  2.1003
15272TIP3    H267232   2.667   2.674   4.713 -1.4348  0.1023  1.0702
15273TIP3   OH267233   2.425   2.077   1.920 -0.2404 -1.0943 -0.0600
15273TIP3    H167234   2.443   2.013   1.989 -1.6094 -1.5863 -0.1282
15273TIP3    H267235   2.452   2.161   1.957 -0.2337 -1.4574  0.7743
15274TIP3   OH267236   2.076   3.342   3.806  0.3854  0.5987 -0.0427
15274TIP3    H167237   2.002   3.304   3.758 -0.7018  1.8252  0.6217
15274TIP3    H267238   2.137   3.269   3.817 -0.4282 -0.2859 -1.1538
15275TIP3   OH267239   6.596   5.606  17.179  0.2410 -0.7865  0.0319
15275TIP3    H167240   6.659   5.651  17.235 -0.4663  0.8724 -0.4426
15275TIP3    H267241   6.612   5.513  17.194  0.0253 -0.4246  3.0431
15276TIP3   OH267242   3.370   2.729   4.807 -0.0197  0.7861 -0.1160
15276TIP3    H167243   3.315   2.762   4.879 -0.0914  2.6605 -0.9789
15276TIP3    H267244   3.417   2.655   4.845 -1.0725  0.8801  1.4596
15277TIP3   OH267245   5.290   0.894   3.457  0.0433 -0.0361 -0.1931
15277TIP3    H167246   5.287   0.912   3.363  2.3034 -0.3487 -0.3737
15277TIP3    H267247   5.381   0.871   3.475 -0.7764 -2.3172  1.6713
15278TIP3   OH267248   1.525   6.145  12.984  0.2553  0.2517 -0.2928
15278TIP3    H167249   1.592   6.207  12.953  0.2785  0.2445 -0.2568
15278TIP3    H267250   1.443   6.194  12.979  0.4170  0.6712  0.8187
15279TIP3   OH267251   6.268   2.085   0.615 -0.7900 -0.0451  0.9500
15279TIP3    H167252   6.343   2.120   0.664 -0.7051  1.1574  0.0014
15279TIP3    H267253   6.196   2.088   0.677 -0.4955  0.6496  1.2696
15280TIP3   OH267254   4.742   4.367   1.113 -0.0510 -0.0296  0.3744
15280TIP3    H167255   4.679   4.426   1.072 -1.3854 -0.6990  1.3604
15280TIP3    H267256   4.784   4.420   1.181 -0.1902  0.1846  0.2922
15281TIP3   OH267257   1.006   6.433   3.284 -0.5571 -0.1615 -0.4957
15281TIP3    H167258   1.011   6.370   3.212 -3.0832  1.2852 -2.0725
15281TIP3    H267259   0.913   6.455   3.290 -0.3524  0.3207  2.8120
15282TIP3   OH267260   5.717   5.623   1.879 -0.0045 -0.4671  0.4400
15282TIP3    H167261   5.625   5.625   1.906 -1.2656  0.8570 -3.2780
15282TIP3    H267262   5.721   5.554   1.813  0.7896  1.5485 -1.7786
15283TIP3   OH267263   0.997   4.191   0.733  0.4421  0.0434 -0.6574
15283TIP3    H167264   0.931   4.121   0.733  0.1531  0.2986  0.8593
15283TIP3    H267265   1.055   4.170   0.806 -0.1863  1.8636  0.4331
15284TIP3   OH267266   6.063   0.001   5.093 -0.0585  0.2848  0.4843
15284TIP3    H167267   5.970  -0.023   5.093 -0.4049  1.5786  0.7025
15284TIP3    H267268   6.087  -0.001   5.186  0.6015 -1.6931  0.3199
15285TIP3   OH267269   4.391   5.539   3.589 -0.4073  1.0131 -0.7926
15285TIP3    H167270   4.461   5.517   3.650 -1.9676 -0.0041  0.7137
15285TIP3    H267271   4.396   5.472   3.521 -0.1111  0.7654 -0.5299
15286TIP3   OH267272   5.481   1.142  16.721 -0.1244  0.3212  0.5852
15286TIP3    H167273   5.436   1.058  16.732 -1.8984  1.1180 -0.2344
15286TIP3    H267274   5.536   1.129  16.644 -1.1827  0.1953 -0.1746
15287TIP3   OH267275   0.916   4.254  11.692 -0.1222  0.0309 -0.2393
15287TIP3    H167276   0.978   4.288  11.756  0.3011 -0.0247 -0.6137
15287TIP3    H267277   0.831   4.283  11.724  0.0691 -0.1169  0.4223
15288TIP3   OH267278   6.480   3.256  14.384  0.2133  0.3798 -0.5567
15288TIP3    H167279   6.514   3.171  14.358  0.0289 -0.0988  0.7320
15288TIP3    H267280   6.461   3.300  14.301 -0.8639 -1.2940 -1.2519
15289TIP3   OH267281   1.479   0.617  13.675  0.5006 -0.2558 -0.3502
15289TIP3    H167282   1.490   0.706  13.641 -0.8199  0.6297  1.3396
15289TIP3    H267283   1.386   0.611  13.697  1.1067 -0.8460  2.5362
15290TIP3   OH267284   2.582   1.755   3.439 -0.0766  0.1258  0.2955
15290TIP3    H167285   2.536   1.740   3.522  0.3607  2.3568  1.0136
15290TIP3    H267286   2.532   1.825   3.397  1.1685  0.7987 -0.1071
15291TIP3   OH267287   4.376   0.664  14.371 -0.5588 -0.0270 -0.5782
15291TIP3    H167288   4.316   0.720  14.421 -0.7259 -0.4584 -0.2940
15291TIP3    H267289   4.365   0.693  14.280 -1.1779 -0.0853 -0.5263
15292TIP3   OH267290   1.442   5.964   1.742  0.2870 -0.8798 -0.2232
15292TIP3    H167291   1.443   5.944   1.835  2.5839 -0.9980 -0.1939
15292TIP3    H267292   1.370   5.912   1.706 -2.1771  0.9485  1.7563
15293TIP3   OH267293   3.009   0.527  16.941 -0.0085  0.0110 -0.6423
15293TIP3    H167294   3.018   0.620  16.923  1.5642  0.2749  1.2170
15293TIP3    H267295   2.914   0.511  16.936 -0.5337  2.1717  1.0258
15294TIP3   OH267296   5.993   2.271  12.873  0.3319  0.7918  0.2842
15294TIP3    H167297   5.932   2.234  12.937  0.1849 -0.9797 -0.8389
15294TIP3    H267298   6.074   2.222  12.886  0.7415  1.3918  0.0410
15295TIP3   OH267299   0.139   0.273   1.532 -0.0308 -0.2791 -0.5442
15295TIP3    H167300   0.196   0.283   1.456  3.0126  2.0617  1.8080
15295TIP3    H267301   0.179   0.203   1.584  0.5824  1.0975  0.9274
15296TIP3   OH267302   6.342   0.121   1.970 -0.3375  0.1668 -0.0841
15296TIP3    H167303   6.255   0.093   1.999 -0.6141 -0.7657 -1.6732
15296TIP3    H267304   6.328   0.152   1.881  1.0600 -0.6312 -0.6085
15297TIP3   OH267305   0.025   2.664   4.328  0.0827  0.0140  0.2084
15297TIP3    H167306   0.068   2.724   4.389  2.6809  2.1181 -3.2920
15297TIP3    H267307   0.096   2.606   4.297 -0.8608 -0.3352 -1.4517
15298TIP3   OH267308   0.256   1.660   1.603  0.5425 -0.1384 -0.1387
15298TIP3    H167309   0.208   1.587   1.642  1.5128 -0.3363  0.7400
15298TIP3    H267310   0.227   1.662   1.512  1.2087 -2.2385 -0.4479
15299TIP3   OH267311   0.197   4.255   5.700  0.3388 -0.3735 -0.2659
15299TIP3    H167312   0.161   4.171   5.727  0.9294 -0.7178 -0.5356
15299TIP3    H267313   0.291   4.248   5.717  0.3932  0.2282 -0.2923
15300TIP3   OH267314   5.214   2.722  16.916  0.3311 -0.1289 -0.5797
15300TIP3    H167315   5.229   2.627  16.918  1.6019  0.0515  1.7554
15300TIP3    H267316   5.227   2.746  16.825  0.2034 -2.1572 -1.1879
15301TIP3   OH267317   0.812   6.369  15.321  0.5659  0.3611  0.1856
15301TIP3    H167318   0.747   6.316  15.276  0.5593 -0.0692  0.6970
15301TIP3    H267319   0.761   6.435  15.368  0.5908  1.0139 -0.6923
15302TIP3   OH267320   1.766   5.819   3.125  0.1407  0.5439  0.1853
15302TIP3    H167321   1.706   5.745   3.130  2.4639 -1.4006  2.8720
15302TIP3    H267322   1.736   5.880   3.193  1.0866 -0.3956  1.4820
15303TIP3   OH267323   0.283   4.673  12.408 -0.1399 -0.7511  0.3629
15303TIP3    H167324   0.231   4.599  12.440  0.1278 -1.3165 -0.4906
15303TIP3    H267325   0.229   4.712  12.340  0.3207 -1.0270 -0.1702
15304TIP3   OH267326   6.367   1.641  16.124 -0.4309 -0.2010  0.7396
15304TIP3    H167327   6.421   1.673  16.197 -1.2083  0.0654  1.2089
15304TIP3    H267328   6.420   1.658  16.046  0.5279 -0.7342  1.2547
15305TIP3   OH267329   1.943   0.836  16.312 -0.3166  0.0579 -0.3563
15305TIP3    H167330   1.855   0.872  16.300 -0.2798  0.2031 -0.1855
15305TIP3    H267331   1.966   0.857  16.402 -0.5363 -0.9155 -0.0563
15306TIP3   OH267332   2.701   2.851  12.145  0.9672 -0.1036  0.3431
15306TIP3    H167333   2.707   2.942  12.175 -0.4956  0.4813 -1.0063
15306TIP3    H267334   2.637   2.811  12.204 -0.5801  0.5633 -0.8326
15307TIP3   OH267335   2.896   2.578  11.636  0.2583  0.0424  0.4530
15307TIP3    H167336   2.888   2.554  11.729  0.6068  2.3181  1.1236
15307TIP3    H267337   2.899   2.673  11.636 -1.3693  0.1923 -2.0498
15308TIP3   OH267338   0.941   2.975  15.916 -0.7716 -0.4163 -0.5454
15308TIP3    H167339   0.912   3.027  15.841  0.7043  2.2731  0.6238
15308TIP3    H267340   1.001   2.910  15.879 -0.5263  0.4710 -1.7693
15309TIP3   OH267341   2.591   5.798   1.077  0.4732 -0.0082  0.4055
15309TIP3    H167342   2.516   5.772   1.023  1.3963 -1.8726 -0.0695
15309TIP3    H267343   2.571   5.887   1.106 -1.2360  0.0677 -0.8977
15310TIP3   OH267344   1.094   6.375   2.604 -0.5741  0.0989 -0.5504
15310TIP3    H167345   1.139   6.436   2.663  1.6039 -0.7944 -1.2209
15310TIP3    H267346   1.060   6.307   2.662 -0.7973  0.6080 -0.0666
15311TIP3   OH267347   1.146   4.970  12.636  0.8197 -0.5511  0.4108
15311TIP3    H167348   1.192   5.031  12.693  1.8710 -0.6563 -0.2813
15311TIP3    H267349   1.208   4.897  12.625  0.7105 -0.4700 -0.9504
15312TIP3   OH267350   3.142   3.404   5.787  0.0817 -0.0166 -0.1531
15312TIP3    H167351   3.147   3.399   5.692  0.0155 -3.5292 -0.1004
15312TIP3    H267352   3.233   3.411   5.816  0.0427  3.0357 -0.3685
15313TIP3   OH267353   5.906   5.613   0.854 -0.3322 -0.2124  0.3543
15313TIP3    H167354   5.897   5.648   0.943  0.0528  2.5479 -0.5946
15313TIP3    H267355   5.822   5.632   0.812  0.3068  0.7374 -0.5456
15314TIP3   OH267356   6.376   0.797   3.979 -0.6424  0.1927 -0.5165
15314TIP3    H167357   6.312   0.834   4.040  0.8056  1.8671  0.0655
15314TIP3    H267358   6.390   0.865   3.914  0.6990 -0.0554 -0.5078
15315TIP3   OH267359   5.379   4.389  13.723 -0.0086  0.2097  0.0449
15315TIP3    H167360   5.313   4.340  13.674  0.2525 -1.6796  1.4662
15315TIP3    H267361   5.333   4.424  13.799  0.5031 -0.8258  0.8615
15316TIP3   OH267362   5.692   4.699   5.454  0.6674  0.1010 -0.8841
15316TIP3    H167363   5.605   4.700   5.493  1.5154  2.3422  1.2782
15316TIP3    H267364   5.741   4.636   5.507  1.3699  1.9146  0.7737
15317TIP3   OH267365   0.465   3.707  13.857  0.8421 -0.5016 -0.2697
15317TIP3    H167366   0.370   3.698  13.845  0.5428 -0.8279  1.8784
15317TIP3    H267367   0.489   3.780  13.801 -1.1813  1.3182  1.0440
15318TIP3   OH267368   1.061   6.700  16.998  0.3108  0.2609  0.1038
15318TIP3    H167369   0.976   6.745  16.999  0.2778  0.2114 -0.2964
15318TIP3    H267370   1.083   6.693  16.905 -0.1043 -1.3585  0.1000
15319TIP3   OH267371   3.901   0.837   1.469 -0.2758 -0.3730  0.3590
15319TIP3    H167372   3.949   0.834   1.552 -0.1331  1.6340  0.3913
15319TIP3    H267373   3.817   0.876   1.491  0.5826  2.2969 -0.7492
15320TIP3   OH267374   3.624   4.501  11.604 -0.4272 -0.3216 -0.4886
15320TIP3    H167375   3.624   4.435  11.535 -1.6866 -0.4890 -0.3547
15320TIP3    H267376   3.537   4.541  11.599  0.0205  0.7599 -0.0268
15321TIP3   OH267377   3.288   6.064   6.014  0.1120 -0.1776  0.4870
15321TIP3    H167378   3.236   6.025   6.085 -0.2726  0.7079  0.7060
15321TIP3    H267379   3.264   6.157   6.015  0.0187 -0.1684 -0.8842
15322TIP3   OH267380   2.516   3.679  13.137  0.2254 -0.4716  0.0601
15322TIP3    H167381   2.608   3.701  13.156 -0.4060  1.1378  1.6128
15322TIP3    H267382   2.478   3.761  13.106 -0.9466 -0.8116  0.5499
15323TIP3   OH267383   0.440   1.900   0.270 -0.0691  0.0834 -0.2939
15323TIP3    H167384   0.495   1.848   0.328 -2.0795 -1.6855  0.1821
15323TIP3    H267385   0.353   1.897   0.311 -0.6541  2.3154 -1.2488
15324TIP3   OH267386   0.211   3.442  15.327  0.7066  0.3211  0.7601
15324TIP3    H167387   0.172   3.530  15.327 -0.4205 -0.1527  1.4611
15324TIP3    H267388   0.303   3.457  15.304  0.1877  1.5092 -0.7393
15325TIP3   OH267389   1.295   5.141  12.904  0.7075  0.4018  0.0510
15325TIP3    H167390   1.301   5.172  12.814  1.4761 -0.4337 -0.1956
15325TIP3    H267391   1.291   5.221  12.957 -0.2999  0.8997 -0.7406
15326TIP3   OH267392   1.203   2.471  16.928 -0.0699 -0.3216 -0.0615
15326TIP3    H167393   1.253   2.398  16.966  1.6342  1.3916  1.1822
15326TIP3    H267394   1.147   2.501  17.000  1.8790  1.8216  0.6625
15327TIP3   OH267395   1.810   3.727   0.481  0.4862 -0.0032 -0.3691
15327TIP3    H167396   1.865   3.789   0.529 -0.5623 -0.1958  1.1644
15327TIP3    H267397   1.794   3.769   0.396  1.6642  0.7634 -0.2273
15328TIP3   OH267398   6.546   4.417   3.020 -0.4966 -0.3555 -0.1685
15328TIP3    H167399   6.547   4.410   2.924  0.4151  1.0464 -0.2866
15328TIP3    H267400   6.548   4.511   3.037  2.1577 -0.5663  1.2022
15329TIP3   OH267401   3.363   1.079   1.953 -0.4628 -0.0288 -0.0966
15329TIP3    H167402   3.387   1.078   2.045 -2.0370  1.4274  0.3913
15329TIP3    H267403   3.401   1.161   1.920 -0.0014 -0.4890 -0.7249
15330TIP3   OH267404   5.281   2.605   2.654  0.7845 -0.2057 -0.2105
15330TIP3    H167405   5.340   2.621   2.580  0.4972  1.4531 -0.1334
15330TIP3    H267406   5.339   2.583   2.727  1.1298 -0.9655 -0.7092
15331TIP3   OH267407   2.847   3.431  14.938 -0.1863 -0.1718 -0.4717
15331TIP3    H167408   2.832   3.416  15.031  2.4836 -0.3544  0.0250
15331TIP3    H267409   2.877   3.346  14.904  0.7291  0.3514 -1.0254
15332TIP3   OH267410   4.191   4.064   3.015  0.4441 -0.3826  0.3132
15332TIP3    H167411   4.251   4.095   3.083 -1.3727  1.8881  0.9926
15332TIP3    H267412   4.148   4.143   2.983 -0.9183 -1.7342 -1.3884
15333TIP3   OH267413   4.920   5.778   5.967 -0.4610 -0.2344  1.1298
15333TIP3    H167414   4.834   5.739   5.984 -0.7010  0.1576  0.8214
15333TIP3    H267415   4.932   5.770   5.872  0.4606 -1.5610  1.3249
15334TIP3   OH267416   6.295   0.854  12.196  0.0529  0.1131 -0.3589
15334TIP3    H167417   6.381   0.856  12.153  1.9715 -1.0132  3.0078
15334TIP3    H267418   6.279   0.760  12.210 -0.5301  0.4218  1.1583
15335TIP3   OH267419   3.775   5.340   3.469 -0.1164  0.3757 -0.2415
15335TIP3    H167420   3.831   5.265   3.453  0.8140  0.7223  1.2269
15335TIP3    H267421   3.687   5.303   3.474  0.0797 -0.3241 -1.4468
15336TIP3   OH267422   6.307   5.176   3.366  0.3120 -0.5833  0.4850
15336TIP3    H167423   6.325   5.256   3.417 -1.0457  0.0522  0.0098
15336TIP3    H267424   6.310   5.205   3.275 -5.2290  0.3168  0.2122
15337TIP3   OH267425   6.146   6.469   3.820 -0.2606  0.3804 -0.2917
15337TIP3    H167426   6.122   6.469   3.727 -1.3665  0.9382 -0.0326
15337TIP3    H267427   6.098   6.543   3.857  0.5177  0.4439  0.6474
15338TIP3   OH267428   5.661   1.621   1.276  0.4800  0.2515 -0.2799
15338TIP3    H167429   5.719   1.600   1.349  0.8851 -0.5314 -0.8043
15338TIP3    H267430   5.707   1.588   1.199 -1.3400 -1.8971 -0.5642
15339TIP3   OH267431   2.213   5.622  14.459  0.3951  0.5942  0.2838
15339TIP3    H167432   2.254   5.705  14.436  0.3691  0.1955 -1.4092
15339TIP3    H267433   2.147   5.644  14.525  2.8024  1.3472  2.6027
15340TIP3   OH267434   0.430   5.422  16.827  0.6512 -0.0962  0.3476
15340TIP3    H167435   0.409   5.389  16.914 -0.3443  2.0037  0.9986
15340TIP3    H267436   0.513   5.469  16.838  0.2839  0.5768  0.2910
15341TIP3   OH267437   5.937   3.269  11.484 -0.5368  0.0093 -0.2425
15341TIP3    H167438   5.910   3.322  11.409 -0.1614  0.1569 -0.2721
15341TIP3    H267439   5.866   3.205  11.494 -0.2061 -0.5448 -1.2477
15342TIP3   OH267440   3.400   1.253   3.529  0.1896  0.1695 -0.3061
15342TIP3    H167441   3.411   1.197   3.453 -1.7527  0.8097 -1.1312
15342TIP3    H267442   3.323   1.217   3.574  0.9869  0.1283  1.0647
15343TIP3   OH267443   2.041   1.261  13.688  0.1549 -0.0615  0.3569
15343TIP3    H167444   2.110   1.313  13.729  0.5476 -0.0432 -0.3187
15343TIP3    H267445   2.079   1.231  13.606 -0.7477  0.2168 -0.1750
15344TIP3   OH267446   4.288   5.083  12.811  0.2497  0.0567  0.2483
15344TIP3    H167447   4.362   5.075  12.870  1.5054 -1.3290 -1.4219
15344TIP3    H267448   4.247   4.997  12.810 -0.4754  0.3888 -0.0277
15345TIP3   OH267449   2.389   0.041   4.950 -0.3804 -0.9274 -0.2827
15345TIP3    H167450   2.384   0.129   4.987  0.6564 -1.5374  1.4409
15345TIP3    H267451   2.390   0.055   4.855 -0.9213  0.8635 -0.0601
15346TIP3   OH267452   5.250   1.872   2.300 -0.0003  0.0134  0.4474
15346TIP3    H167453   5.289   1.954   2.268  1.0865 -0.5442  0.2904
15346TIP3    H267454   5.156   1.888   2.297  0.1947  1.7093  1.5780
15347TIP3   OH267455   5.693   4.926   4.304 -0.0735  0.0933  0.0462
15347TIP3    H167456   5.634   5.001   4.299 -1.7553 -1.2609 -1.6404
15347TIP3    H267457   5.776   4.958   4.269 -0.4910  1.3716  0.1685
15348TIP3   OH267458   4.489   2.514  12.753 -0.3720  0.2759  0.4169
15348TIP3    H167459   4.438   2.474  12.823 -0.3721 -1.1721 -0.3636
15348TIP3    H267460   4.580   2.488  12.773 -0.3391  0.1086  0.0601
15349TIP3   OH267461   5.267   5.438  14.763  0.3835  0.5034  0.0800
15349TIP3    H167462   5.262   5.352  14.804  0.3163  1.1544  1.5005
15349TIP3    H267463   5.304   5.421  14.677  0.9190 -0.8838  0.5483
15350TIP3   OH267464   5.621   3.532   5.576 -0.2713 -0.2441 -0.4445
15350TIP3    H167465   5.680   3.463   5.546 -0.4626 -0.1433 -1.0588
15350TIP3    H267466   5.604   3.585   5.499  0.1375  0.6966  0.0970
15351TIP3   OH267467   0.875   0.677   3.907 -0.2109  0.5683  0.3381
15351TIP3    H167468   0.919   0.604   3.953 -1.2640  0.2177  0.8271
15351TIP3    H267469   0.947   0.731   3.874  0.6133 -0.9650 -0.4914
15352TIP3   OH267470   6.361   5.367   1.629 -0.2847 -0.0975 -0.7123
15352TIP3    H167471   6.307   5.445   1.638 -1.5533 -1.0103 -0.1556
15352TIP3    H267472   6.410   5.382   1.548 -2.0292  0.3948 -1.7467
15353TIP3   OH267473   3.970   1.127  16.292 -0.0966 -0.4055  0.6310
15353TIP3    H167474   3.982   1.214  16.330 -0.5695  0.5930 -1.3356
15353TIP3    H267475   4.034   1.123  16.222 -1.2566 -0.8945 -0.4503
15354TIP3   OH267476   5.478   5.942  16.109 -0.6120  0.2850  0.2906
15354TIP3    H167477   5.392   5.984  16.111  0.1921  1.9927  0.5631
15354TIP3    H267478   5.538   6.008  16.143  0.8229 -0.8848  0.1421
15355TIP3   OH267479   0.133   2.757   4.807  0.1311  0.1789  0.1350
15355TIP3    H167480   0.155   2.761   4.900  0.1839  0.0043  0.1304
15355TIP3    H267481   0.042   2.726   4.805 -0.3709  1.5755  0.1811
15356TIP3   OH267482   6.069   0.668  10.959 -0.0063 -0.8185  0.3879
15356TIP3    H167483   6.149   0.697  10.914  0.1898 -0.2222  1.1115
15356TIP3    H267484   6.005   0.736  10.940 -1.2296 -2.5517 -2.4585
15357TIP3   OH267485   0.506   0.259   5.947  0.4611 -0.1110  0.3113
15357TIP3    H167486   0.474   0.210   5.871  0.9294 -1.2003  0.7943
15357TIP3    H267487   0.566   0.323   5.909 -0.9666  0.8388 -0.4312
15358TIP3   OH267488   5.434   2.660  12.629  0.2863  0.2657  0.3506
15358TIP3    H167489   5.524   2.680  12.604  0.9481 -0.4481  2.0483
15358TIP3    H267490   5.405   2.595  12.564  2.0379 -1.7283  1.4141
15359TIP3   OH267491   1.251   4.390  11.432 -0.0023  0.7465  0.7244
15359TIP3    H167492   1.253   4.455  11.362  1.1636 -1.2353 -1.2351
15359TIP3    H267493   1.266   4.440  11.512  1.2795  2.8284 -0.7196
15360TIP3   OH267494   2.900   4.854  15.100  0.0253  0.2055  0.3457
15360TIP3    H167495   2.964   4.832  15.032 -0.5480 -2.3825  0.5263
15360TIP3    H267496   2.837   4.911  15.057  1.2412  0.9907 -0.4467
15361TIP3   OH267497   2.829   3.643   6.712  0.0444  0.0569  0.4686
15361TIP3    H167498   2.835   3.738   6.698 -1.7137  0.4773  2.0473
15361TIP3    H267499   2.919   3.614   6.723  0.7229  1.3015 -1.3105
15362TIP3   OH267500   0.164   3.654  14.898  0.0466 -0.1538  0.2088
15362TIP3    H167501   0.258   3.640  14.893  0.0937  0.3360 -0.4371
15362TIP3    H267502   0.127   3.595  14.833 -0.2281 -1.3797  1.4250
15363TIP3   OH267503   4.860   0.045  14.619 -0.1666  0.6011  0.3080
15363TIP3    H167504   4.954   0.048  14.636  0.5093 -2.1826 -2.0667
15363TIP3    H267505   4.841   0.128  14.575  1.2782  0.9635  0.3054
15364TIP3   OH267506   2.539   6.186  16.977  0.4356 -0.0815  0.2641
15364TIP3    H167507   2.537   6.266  17.030  0.3136  0.6592 -0.8354
15364TIP3    H267508   2.502   6.119  17.034 -0.1141  0.7974  0.9611
15365TIP3   OH267509   0.579   4.380  16.209 -0.3498 -0.2241  0.2984
15365TIP3    H167510   0.487   4.377  16.182 -0.3326 -0.3887  0.2570
15365TIP3    H267511   0.580   4.339  16.295 -0.3032 -0.2853  0.2689
15366TIP3   OH267512   3.526   4.341  17.329  0.4593 -0.1556  0.3486
15366TIP3    H167513   3.453   4.399  17.305  0.0501 -0.7418  0.1632
15366TIP3    H267514   3.524   4.339  17.425  0.6964  0.4138  0.3686
15367TIP3   OH267515   6.178   5.904  15.377 -0.1411 -0.3259  0.1516
15367TIP3    H167516   6.103   5.872  15.428 -1.0207  1.0934 -0.1761
15367TIP3    H267517   6.210   5.980  15.427  0.2156 -0.0965 -0.4120
15368TIP3   OH267518   4.879   5.690  11.574  0.1086 -0.0193  0.5629
15368TIP3    H167519   4.935   5.763  11.548 -0.6747  0.5423  0.3985
15368TIP3    H267520   4.865   5.704  11.668 -0.6945  0.5073  0.3700
15369TIP3   OH267521   5.222   6.750   1.176  0.0342 -0.0483  0.0343
15369TIP3    H167522   5.269   6.718   1.253 -2.8002  0.0017  1.9212
15369TIP3    H267523   5.179   6.673   1.141 -1.2706  0.4657  0.4609
15370TIP3   OH267524   2.013   0.802  14.268  0.1873  0.7039 -0.3936
15370TIP3    H167525   1.974   0.773  14.186  2.2118 -0.1699 -1.1178
15370TIP3    H267526   1.948   0.781  14.335 -0.3649 -1.1443 -1.4639
15371TIP3   OH267527   1.286   1.944  16.969 -0.4610 -0.0112  0.4766
15371TIP3    H167528   1.345   1.880  16.931 -0.0196 -0.2538  1.5517
15371TIP3    H267529   1.228   1.969  16.897  0.3880 -0.4151 -0.3582
15372TIP3   OH267530   3.445   0.519  17.035 -0.1572 -0.0263  0.2298
15372TIP3    H167531   3.393   0.457  17.086  0.7646  0.2350  1.5290
15372TIP3    H267532   3.535   0.485  17.039  0.6039  1.9331  1.9796
15373TIP3   OH267533   3.413   0.251   0.652  0.4719 -0.1049  1.2032
15373TIP3    H167534   3.468   0.328   0.665  2.1772 -0.9064 -0.6418
15373TIP3    H267535   3.440   0.190   0.720 -0.2655  0.5663  2.1240
15374TIP3   OH267536   3.364   5.116  15.260 -0.0963  0.4779  1.2960
15374TIP3    H167537   3.445   5.081  15.297  0.7448  1.3108  0.2974
15374TIP3    H267538   3.382   5.125  15.167 -1.9300 -0.8984  0.7534
15375TIP3   OH267539   6.165   4.098   5.160 -0.8257  0.0411  0.6829
15375TIP3    H167540   6.131   4.057   5.239 -2.5728  0.9175  0.4315
15375TIP3    H267541   6.241   4.045   5.136 -1.3774 -1.3548  1.8912
15376TIP3   OH267542   2.627   3.221  13.679 -0.5145  0.6246 -0.5788
15376TIP3    H167543   2.539   3.197  13.709  0.2205 -0.4807  0.8132
15376TIP3    H267544   2.674   3.138  13.676  0.9341  1.3854  0.2501
15377TIP3   OH267545   1.771   5.223  12.704  0.4550  0.1710 -0.3756
15377TIP3    H167546   1.730   5.294  12.656  1.7150  1.0266 -0.2290
15377TIP3    H267547   1.810   5.265  12.781  0.9128 -0.7248 -0.0988
15378TIP3   OH267548   4.084   1.306  15.412 -0.6173 -0.1165  0.0698
15378TIP3    H167549   4.130   1.361  15.348 -1.5806 -1.2852 -1.7393
15378TIP3    H267550   4.154   1.256  15.454  0.0219  0.3212 -0.4419
15379TIP3   OH267551   6.003   4.641   5.633 -0.2735 -0.0118 -0.2931
15379TIP3    H167552   5.982   4.651   5.540  0.0917  0.8608 -0.2939
15379TIP3    H267553   5.932   4.588   5.668  0.0404 -1.0937 -1.2395
15380TIP3   OH267554   5.852   6.221   1.037  0.3274 -1.5406  0.2185
15380TIP3    H167555   5.910   6.245   0.966  1.4791  1.4683  1.9763
15380TIP3    H267556   5.772   6.271   1.021  0.3833 -1.2791  0.7442
15381TIP3   OH267557   0.332   5.771   4.838 -0.0019 -0.8257  0.7219
15381TIP3    H167558   0.363   5.829   4.768 -0.1748 -0.6591  0.7819
15381TIP3    H267559   0.406   5.765   4.898 -0.0898 -0.4141  0.8748
15382TIP3   OH267560   2.649   4.184   4.032  0.0212  0.2702 -0.3728
15382TIP3    H167561   2.571   4.141   3.997  0.8836  0.0358 -2.1000
15382TIP3    H267562   2.705   4.111   4.061  1.2973  0.1373 -2.9051
15383TIP3   OH267563   3.269   0.389  16.286 -0.3714  0.2485  0.7458
15383TIP3    H167564   3.348   0.417  16.334 -1.1742  0.3422  2.0791
15383TIP3    H267565   3.200   0.388  16.353 -1.5734  0.4682 -0.4530
15384TIP3   OH267566   1.715   3.430  14.451 -0.3423  0.2475  0.1300
15384TIP3    H167567   1.713   3.521  14.480  0.8868  0.0122  1.0166
15384TIP3    H267568   1.637   3.421  14.396 -0.8431  1.6476  0.5660
15385TIP3   OH267569   0.532   3.362   1.077  0.3908 -0.2989 -0.1714
15385TIP3    H167570   0.568   3.310   1.149  0.1765  0.5950  0.5997
15385TIP3    H267571   0.467   3.419   1.119  0.0115 -0.0138 -1.1300
15386TIP3   OH267572   5.199   0.930  14.803 -0.3178 -0.4909  0.3403
15386TIP3    H167573   5.131   0.866  14.781 -2.2883  1.1432  1.3777
15386TIP3    H267574   5.225   0.966  14.718  1.1189 -2.8277 -0.3125
15387TIP3   OH267575   2.339   0.476   3.374  0.5825 -0.2121  0.1969
15387TIP3    H167576   2.309   0.567   3.375  0.3651 -0.2341 -1.3205
15387TIP3    H267577   2.282   0.430   3.435  0.2335  0.5361  0.4429
15388TIP3   OH267578   3.563   4.712   0.928  0.2552 -0.1296 -0.3650
15388TIP3    H167579   3.655   4.690   0.938  0.4178  0.0470 -1.3544
15388TIP3    H267580   3.559   4.807   0.936  0.1802 -0.1226 -0.4812
15389TIP3   OH267581   5.217   2.329   1.438  0.4782 -0.5834  0.0973
15389TIP3    H167582   5.265   2.411   1.449 -0.1896  0.0020 -1.2235
15389TIP3    H267583   5.132   2.345   1.478  0.5691 -0.8596  0.4080
15390TIP3   OH267584   1.683   2.204  13.650  0.1916  0.5621  0.2865
15390TIP3    H167585   1.773   2.221  13.621 -0.6583  2.0558 -1.7164
15390TIP3    H267586   1.634   2.191  13.568 -1.4016 -0.4379  1.3467
15391TIP3   OH267587   3.682   6.303   4.564  0.0725  0.1334  0.1611
15391TIP3    H167588   3.748   6.371   4.547 -0.5736  0.4329 -1.2360
15391TIP3    H267589   3.598   6.345   4.545 -0.5024 -0.4234  1.3484
15392TIP3   OH267590   3.370   4.484  13.484 -0.5920  0.0240 -0.5563
15392TIP3    H167591   3.379   4.579  13.495 -0.7559 -0.0183 -0.0532
15392TIP3    H267592   3.373   4.471  13.389 -1.2814  0.6006 -0.6622
15393TIP3   OH267593   0.152   6.371   4.445  0.3281 -0.2148 -0.3189
15393TIP3    H167594   0.173   6.436   4.377  0.4192 -0.4616 -0.5282
15393TIP3    H267595   0.237   6.335   4.471  0.3051 -0.0287  0.0231
15394TIP3   OH267596   1.441   2.285  15.110  0.3231  0.4828  0.2840
15394TIP3    H167597   1.482   2.234  15.180 -0.7124 -1.8222 -0.6792
15394TIP3    H267598   1.358   2.314  15.147 -1.2553 -2.5819 -0.5023
15395TIP3   OH267599   6.572   5.743   0.738 -0.4003 -0.0812  0.4885
15395TIP3    H167600   6.612   5.723   0.823 -1.3875  0.2543  1.0410
15395TIP3    H267601   6.601   5.832   0.718  2.0218 -1.0574 -0.8330
15396TIP3   OH267602   3.491   1.008   0.726 -0.0231 -0.2616  0.7193
15396TIP3    H167603   3.417   1.069   0.717 -0.2141 -0.6127 -0.1179
15396TIP3    H267604   3.499   0.966   0.641  1.6334  0.3192  0.5322
15397TIP3   OH267605   0.477   4.767  12.880  0.0998  0.6327  0.3682
15397TIP3    H167606   0.438   4.702  12.822 -2.8081  0.8615  1.8724
15397TIP3    H267607   0.532   4.716  12.939  0.9871  0.0759 -0.9011
15398TIP3   OH267608   3.574   4.131   4.298  0.0766 -0.2594  0.6315
15398TIP3    H167609   3.657   4.150   4.344  0.9883 -3.1179  0.4028
15398TIP3    H267610   3.543   4.051   4.339 -1.4599 -0.4209 -0.7650
15399TIP3   OH267611   0.318   0.802  12.151  0.2804 -0.0779 -0.1376
15399TIP3    H167612   0.339   0.864  12.081 -0.1800  1.6448  1.1621
15399TIP3    H267613   0.367   0.723  12.129  1.2989  0.9097 -1.6255
15400TIP3   OH267614   0.917   1.289   3.566 -0.3834 -0.3369  0.1506
15400TIP3    H167615   1.000   1.242   3.575 -0.2427 -0.1052  0.0664
15400TIP3    H267616   0.902   1.294   3.472 -0.5285 -0.4402  0.1682
15401TIP3   OH267617   1.583   5.837  12.704  0.2602  0.5713 -0.3439
15401TIP3    H167618   1.678   5.842  12.715  0.3320 -0.0714 -0.6006
15401TIP3    H267619   1.572   5.783  12.625 -0.3634 -2.2086  1.4943
15402TIP3   OH267620   3.356   0.018  11.375 -0.3022  0.3177 -0.1482
15402TIP3    H167621   3.441   0.060  11.363  0.2441 -0.7868 -0.2606
15402TIP3    H267622   3.313   0.026  11.289  0.8245 -1.5448 -0.9322
15403TIP3   OH267623   1.134   3.035  10.083 -0.0417  1.0560  0.2768
15403TIP3    H167624   1.227   3.029  10.102 -0.2071 -0.1365  0.7470
15403TIP3    H267625   1.090   3.009  10.164 -0.7727  0.2890 -0.3460
15404TIP3   OH267626   1.364   1.412  11.347  0.3921 -0.0485 -0.0029
15404TIP3    H167627   1.378   1.415  11.252 -0.3283  0.6477 -0.0889
15404TIP3    H267628   1.284   1.462  11.362  0.1624 -0.6552  0.9118
15405TIP3   OH267629   0.669   2.423  15.165 -0.6380  0.8182  0.2748
15405TIP3    H167630   0.626   2.350  15.210  1.2541 -1.2041 -0.9394
15405TIP3    H267631   0.622   2.431  15.082  0.5018 -0.6410 -0.5713
15406TIP3   OH267632   4.640   4.178   2.847 -0.0084  0.6019  0.5604
15406TIP3    H167633   4.549   4.156   2.826 -0.2919  1.2420  1.0652
15406TIP3    H267634   4.690   4.100   2.823 -0.8956 -0.3850  1.7939
15407TIP3   OH267635   4.168   2.381   4.790 -0.4309 -0.0004  0.0496
15407TIP3    H167636   4.073   2.369   4.786 -0.5643  0.8059  0.6447
15407TIP3    H267637   4.201   2.298   4.825 -1.1799  0.6855  2.5600
15408TIP3   OH267638   0.313   2.977   0.071 -0.0841  0.3608  0.1062
15408TIP3    H167639   0.276   2.982   0.159 -0.5286 -0.8239  0.0104
15408TIP3    H267640   0.339   2.885   0.061  1.7138  0.8749 -0.3132
15409TIP3   OH267641   5.932   5.216   2.676 -0.2957  0.1822 -0.0625
15409TIP3    H167642   5.949   5.230   2.769  0.3014 -2.0183  0.2249
15409TIP3    H267643   5.919   5.121   2.668 -0.4016  0.3224 -2.2120
15410TIP3   OH267644   5.279   0.140   3.685  0.2174 -0.0494 -0.0883
15410TIP3    H167645   5.312   0.173   3.601  0.7460 -2.2508 -0.8366
15410TIP3    H267646   5.350   0.158   3.747 -1.4838  4.6850  0.8434
15411TIP3   OH267647   4.698   0.092  11.169 -0.1918 -0.1908 -0.2701
15411TIP3    H167648   4.701   0.013  11.224  1.0737  0.5589  0.7929
15411TIP3    H267649   4.636   0.070  11.099  0.5051 -2.3056 -0.2953
15412TIP3   OH267650   5.236   4.926   5.144 -1.1662  0.2942 -0.1528
15412TIP3    H167651   5.216   4.986   5.215  2.7355 -1.2558  2.6303
15412TIP3    H267652   5.173   4.854   5.155  0.9486 -1.2846  3.8736
15413TIP3   OH267653   5.999   3.468  14.696  0.4011  0.2423  0.4613
15413TIP3    H167654   5.978   3.385  14.654 -1.8728  0.4523  1.0466
15413TIP3    H267655   6.090   3.484  14.673  0.5823 -1.8769 -0.5454
15414TIP3   OH267656   1.500   0.587   3.786 -0.3173 -0.1760 -0.7678
15414TIP3    H167657   1.524   0.674   3.755 -0.2428  0.1110  0.0716
15414TIP3    H267658   1.426   0.602   3.845  1.9921 -0.1920  2.3688
15415TIP3   OH267659   1.501   1.371  12.588 -0.2984 -0.6430 -0.1843
15415TIP3    H167660   1.443   1.446  12.604 -1.0468 -0.4330 -3.2561
15415TIP3    H267661   1.442   1.296  12.583  0.3711 -1.3942  2.1056
15416TIP3   OH267662   4.749   3.016   1.798  0.0122 -0.0450  0.0149
15416TIP3    H167663   4.718   3.078   1.864 -0.5839  0.3119 -0.5867
15416TIP3    H267664   4.691   3.030   1.723  1.4882  0.5023 -1.0751
15417TIP3   OH267665   5.890   4.373  17.046  0.3131 -0.0308  0.2864
15417TIP3    H167666   5.919   4.436  16.980  2.4996 -0.1199  1.0854
15417TIP3    H267667   5.861   4.427  17.119 -0.7920  0.0462 -0.1852
15418TIP3   OH267668   0.434   3.308  12.671 -0.2562  0.1006 -0.2879
15418TIP3    H167669   0.400   3.354  12.594 -0.8197  0.3274  0.0903
15418TIP3    H267670   0.366   3.319  12.738  0.5828  0.6195  0.5053
15419TIP3   OH267671   6.511   1.492   2.781  0.3482 -0.0037  0.1721
15419TIP3    H167672   6.461   1.410   2.774  0.7706 -0.2347 -0.1645
15419TIP3    H267673   6.541   1.509   2.692 -1.4100  1.5912 -0.1892
15420TIP3   OH267674   1.823   2.957  14.082 -0.1027 -0.0617  0.1780
15420TIP3    H167675   1.879   3.017  14.031 -1.2484  0.2689 -0.7440
15420TIP3    H267676   1.734   2.984  14.060 -0.6529 -0.0466  2.2437
15421TIP3   OH267677   0.357   6.038  10.744 -0.4574 -0.1559  0.8215
15421TIP3    H167678   0.419   6.061  10.813 -0.3136 -4.1136  2.2746
15421TIP3    H267679   0.410   5.996  10.676 -1.0514  0.2780  0.0814
15422TIP3   OH267680   4.050   5.753   4.209  0.0113  0.4336 -0.4095
15422TIP3    H167681   3.970   5.802   4.191 -0.3616  0.3922  1.0100
15422TIP3    H267682   4.039   5.671   4.161 -0.3702  0.8167 -0.9845
15423TIP3   OH267683   5.256   2.163  11.155 -0.6744  0.1602  0.2178
15423TIP3    H167684   5.306   2.208  11.223 -1.4836  0.8014  0.3974
15423TIP3    H267685   5.321   2.110  11.109  0.0521  0.4677  0.8716
15424TIP3   OH267686   4.278   3.537  10.909 -0.4359 -0.3292 -0.3326
15424TIP3    H167687   4.209   3.492  10.860 -2.3277  1.1388  0.8670
15424TIP3    H267688   4.301   3.613  10.855  0.5273 -0.9958 -0.8898
15425TIP3   OH267689   3.771   3.332   2.071  0.2941  0.0653  1.0139
15425TIP3    H167690   3.738   3.334   2.161 -3.0281  0.0370 -0.0630
15425TIP3    H267691   3.698   3.364   2.018  1.2979 -2.0214 -1.8961
15426TIP3   OH267692   6.330   2.024   1.914  0.0797  0.0431 -0.0607
15426TIP3    H167693   6.286   2.030   1.829 -1.0920  1.3912  0.6104
15426TIP3    H267694   6.286   1.952   1.959 -0.2256  0.2113 -0.0882
15427TIP3   OH267695   4.546   3.201  10.810 -0.4215  0.0762 -0.2603
15427TIP3    H167696   4.544   3.119  10.760  0.1637 -0.0650 -0.0543
15427TIP3    H267697   4.619   3.250  10.773  0.6062 -0.4144  1.0418
15428TIP3   OH267698   2.143   6.156   7.082 -0.4590 -0.4689 -0.0098
15428TIP3    H167699   2.103   6.240   7.061 -1.2088 -0.7797  0.1375
15428TIP3    H267700   2.226   6.156   7.034  0.0282  0.7670  0.7989
15429TIP3   OH267701   4.274   5.237   2.157 -0.5368  0.1526 -0.3666
15429TIP3    H167702   4.233   5.309   2.110 -4.4552 -0.6852  1.4108
15429TIP3    H267703   4.217   5.162   2.142  1.4486 -1.7063  0.7341
15430TIP3   OH267704   6.226   4.326  16.681 -0.3013 -0.4512  0.4957
15430TIP3    H167705   6.224   4.404  16.736 -1.5859 -1.3381  1.7880
15430TIP3    H267706   6.231   4.359  16.592  0.1573  1.0701  1.0599
15431TIP3   OH267707   4.331   6.240   5.173  0.0549  0.0926 -0.3869
15431TIP3    H167708   4.321   6.322   5.125  0.2570  0.5068  0.2640
15431TIP3    H267709   4.416   6.205   5.144  0.4715  0.6578  0.1356
15432TIP3   OH267710   2.312   6.063  17.392 -0.4676 -0.1492 -0.4023
15432TIP3    H167711   2.268   6.071  17.477  0.3087 -1.6240  0.1738
15432TIP3    H267712   2.253   6.008  17.340  0.1197 -1.1824 -0.0096
15433TIP3   OH267713   4.698   4.435   4.960 -0.1003  0.6243 -0.3737
15433TIP3    H167714   4.759   4.387   4.905 -0.8646  1.1853 -1.7456
15433TIP3    H267715   4.614   4.431   4.913 -0.6736  1.4950  0.5263
15434TIP3   OH267716   4.678   3.489  16.688  0.3200 -0.7794 -0.6010
15434TIP3    H167717   4.674   3.472  16.594  1.4971 -0.0189 -0.7969
15434TIP3    H267718   4.589   3.516  16.711  0.2664  0.0365 -1.6974
15435TIP3   OH267719   0.579   4.844   3.041  0.2812 -0.6261 -0.7024
15435TIP3    H167720   0.647   4.902   3.005  1.5235 -1.9450 -0.5929
15435TIP3    H267721   0.557   4.882   3.126  1.1801 -0.3699 -0.5762
15436TIP3   OH267722   3.481   5.158  13.825 -0.3107  0.5231  0.0670
15436TIP3    H167723   3.462   5.189  13.914 -1.5688 -0.2764  0.0979
15436TIP3    H267724   3.447   5.069  13.823 -0.8589  0.7432 -1.4021
15437TIP3   OH267725   0.017   5.859   0.019 -0.2706  0.0188 -0.0522
15437TIP3    H167726   0.048   5.940   0.060  1.2984 -0.9342  0.7715
15437TIP3    H267727  -0.074   5.877  -0.004 -0.3836  1.5440  1.3699
15438TIP3   OH267728   5.196   1.010  11.851 -0.0614 -0.0280 -0.3733
15438TIP3    H167729   5.273   0.968  11.813  0.6247  0.7457  0.1174
15438TIP3    H267730   5.139   0.937  11.876  1.4596 -0.7518  1.2259
15439TIP3   OH267731   6.088   1.000  12.049  0.0411  0.4483  0.5975
15439TIP3    H167732   6.159   0.947  12.085  0.4746  0.1707 -0.6277
15439TIP3    H267733   6.040   1.030  12.126  1.4641  0.6266  1.4649
15440TIP3   OH267734   4.419   4.810   3.235 -0.1720 -0.2349  0.3977
15440TIP3    H167735   4.337   4.809   3.283  0.3158  0.0647  1.2581
15440TIP3    H267736   4.482   4.849   3.295  0.4386  0.2382 -0.5172
15441TIP3   OH267737   5.843   1.065   2.323 -0.2889 -0.3881  0.0517
15441TIP3    H167738   5.932   1.039   2.348 -0.3891 -1.4398 -0.6537
15441TIP3    H267739   5.845   1.161   2.328  0.8722 -0.3917  0.0975
15442TIP3   OH267740   5.400   2.463   3.521 -0.6738  0.8513  0.8893
15442TIP3    H167741   5.417   2.385   3.574 -3.7694 -0.2013  0.5311
15442TIP3    H267742   5.479   2.474   3.469 -0.1465 -2.1489  0.8783
15443TIP3   OH267743   0.409   4.043  17.062  0.2536  0.0340 -0.2294
15443TIP3    H167744   0.446   4.117  17.110  0.7785  1.1915 -2.2744
15443TIP3    H267745   0.484   4.004  17.016 -0.5265  0.5404 -2.0439
15444TIP3   OH267746   3.287   2.946   4.667 -0.4393 -1.0058  0.5016
15444TIP3    H167747   3.285   2.854   4.696 -5.4221 -1.3367 -0.1649
15444TIP3    H267748   3.310   2.995   4.747  1.6473 -2.6598  1.0255
15445TIP3   OH267749   3.955   3.305  13.628 -0.4997 -0.3595 -0.3678
15445TIP3    H167750   4.037   3.313  13.579 -0.2849  0.8537  0.1595
15445TIP3    H267751   3.932   3.395  13.652 -0.7894 -0.8773  1.4292
15446TIP3   OH267752   1.261   4.939   0.284 -0.3381  0.2453  0.6391
15446TIP3    H167753   1.270   5.019   0.232 -1.6066 -1.6046 -2.7763
15446TIP3    H267754   1.344   4.893   0.271 -0.9728 -0.6195 -0.6707
15447TIP3   OH267755   3.634   4.379   3.848 -0.2015  0.2856 -0.1960
15447TIP3    H167756   3.619   4.407   3.758  0.8257  2.4393  0.2335
15447TIP3    H267757   3.622   4.458   3.900  1.5919 -0.3431  1.2841
15448TIP3   OH267758   6.088   2.915   0.053 -0.5036 -0.3434  0.5424
15448TIP3    H167759   6.158   2.850   0.061  0.8393  1.2649  4.5460
15448TIP3    H267760   6.133   2.994   0.023 -0.9212  0.2612  1.4928
15449TIP3   OH267761   0.707   1.322  14.929 -0.3373 -0.3781 -0.1355
15449TIP3    H167762   0.741   1.304  14.841 -3.3969 -1.7722 -1.1598
15449TIP3    H267763   0.706   1.237  14.972 -2.6493 -0.4933 -0.2833
15450TIP3   OH267764   5.001   3.111   3.122  0.5939 -0.0373 -0.4497
15450TIP3    H167765   5.076   3.070   3.165 -0.1125 -1.0138 -0.0981
15450TIP3    H267766   5.033   3.136   3.036  1.5359  0.2785 -0.0142
15451TIP3   OH267767   6.635   4.448   0.480  0.4115  0.0445  0.1257
15451TIP3    H167768   6.686   4.393   0.540 -1.9125 -1.3511  0.9505
15451TIP3    H267769   6.681   4.441   0.397  2.1309 -0.3089  1.0549
15452TIP3   OH267770   0.065   1.833  15.760  0.2274 -1.1551  0.8460
15452TIP3    H167771  -0.026   1.854  15.778  0.3690  1.1255 -0.6854
15452TIP3    H267772   0.070   1.833  15.664  2.0033 -0.3453  0.9068
15453TIP3   OH267773   0.222   2.172  13.225 -0.2088 -0.4015 -0.0711
15453TIP3    H167774   0.311   2.189  13.193 -0.0840  1.2359  1.0433
15453TIP3    H267775   0.166   2.229  13.172 -0.4414 -0.4605  0.1107
15454TIP3   OH267776   4.785   0.881   2.287 -0.4456  0.0053  0.0723
15454TIP3    H167777   4.822   0.804   2.243 -0.6969  0.1403 -0.3843
15454TIP3    H267778   4.857   0.916   2.340 -0.1538 -0.1931 -0.1900
15455TIP3   OH267779   0.330   0.796   0.707  0.0927  0.3085 -0.2479
15455TIP3    H167780   0.248   0.839   0.734 -0.8364 -0.1635 -2.1191
15455TIP3    H267781   0.397   0.836   0.763 -1.5475 -0.3047  2.3676
15456TIP3   OH267782   2.555   3.133   2.657 -0.0622 -0.1628 -0.0820
15456TIP3    H167783   2.580   3.045   2.683 -1.1343 -0.0581  1.4207
15456TIP3    H267784   2.470   3.124   2.614 -0.4794  0.1904  0.6466
15457TIP3   OH267785   5.710   2.773   4.943  0.3771  0.1380  0.3679
15457TIP3    H167786   5.638   2.834   4.962  1.6028  1.7914 -0.0024
15457TIP3    H267787   5.789   2.825   4.960  1.4840 -1.0100 -1.0483
15458TIP3   OH267788   2.574   4.847  15.081 -0.1936  0.1213  0.1355
15458TIP3    H167789   2.630   4.781  15.041 -1.1077 -1.2345  1.0011
15458TIP3    H267790   2.580   4.923  15.022  0.7877 -0.7610 -0.9456
15459TIP3   OH267791   0.409   4.522   2.841  0.3580 -0.3249 -0.2428
15459TIP3    H167792   0.453   4.466   2.904  0.0234  0.1589  0.4316
15459TIP3    H267793   0.477   4.544   2.777  0.9886  0.0723  0.5466
15460TIP3   OH267794   4.968   0.626  13.379  0.1481  0.1473 -0.3236
15460TIP3    H167795   4.883   0.598  13.346 -0.2103  0.1368  0.5709
15460TIP3    H267796   4.959   0.621  13.475  1.5046 -0.9069 -0.2220
15461TIP3   OH267797   4.421   4.392   3.785 -0.0615  0.2056 -0.1398
15461TIP3    H167798   4.356   4.429   3.845  0.3981  0.5920  0.1174
15461TIP3    H267799   4.388   4.414   3.698  0.4579  1.6651  0.0088
15462TIP3   OH267800   6.621   0.902   2.081 -0.1202  0.3717  0.4175
15462TIP3    H167801   6.699   0.881   2.132 -0.6033  0.6261  1.2925
15462TIP3    H267802   6.565   0.825   2.089 -0.1298  0.3471  0.1278
15463TIP3   OH267803   0.457   1.197  16.253  0.5911  0.2472 -0.4225
15463TIP3    H167804   0.402   1.195  16.332  2.1518 -1.1538  0.6901
15463TIP3    H267805   0.394   1.198  16.181 -0.8882 -0.0423  0.8009
15464TIP3   OH267806   4.984   5.762   5.692  0.1486  0.1284  0.5335
15464TIP3    H167807   4.962   5.816   5.616  0.3395 -0.7335 -0.1583
15464TIP3    H267808   5.018   5.681   5.654  1.1970  0.0695  1.5568
15465TIP3   OH267809   0.555   5.130  13.914  0.0363  0.3222 -0.0706
15465TIP3    H167810   0.511   5.163  13.836  1.4575  0.9277 -0.6598
15465TIP3    H267811   0.587   5.043  13.889 -1.2865 -0.3696  0.5518
15466TIP3   OH267812   1.713   0.349   0.424 -0.0987 -0.2268  0.1945
15466TIP3    H167813   1.682   0.396   0.502  0.0191  3.4262 -1.7417
15466TIP3    H267814   1.803   0.326   0.445 -0.5598 -0.8160  1.6978
15467TIP3   OH267815   4.012   4.923   3.230  0.0773 -0.0641  0.6492
15467TIP3    H167816   4.101   4.919   3.195 -0.7174  0.4429 -1.5991
15467TIP3    H267817   3.971   4.995   3.182 -1.9349 -1.1399  0.6769
15468TIP3   OH267818   2.852   0.575  16.616 -0.7805 -0.3148 -0.5772
15468TIP3    H167819   2.831   0.494  16.569 -1.5841 -0.0986 -0.6156
15468TIP3    H267820   2.856   0.642  16.549  1.2038 -0.5160 -0.7163
15469TIP3   OH267821   2.012   2.933  15.916  0.2901  0.8235  0.3128
15469TIP3    H167822   2.022   3.017  15.961  1.9346  0.7099  0.2034
15469TIP3    H267823   1.984   2.873  15.984  0.1972  1.2115  0.6222
15470TIP3   OH267824   4.618   3.228   3.426 -0.1301 -0.3999 -0.1670
15470TIP3    H167825   4.584   3.198   3.511  1.4644 -1.4630  0.1560
15470TIP3    H267826   4.703   3.184   3.418  0.3634  0.7468 -1.7122
15471TIP3   OH267827   1.311   0.437  16.024 -0.2880 -0.2022 -0.1724
15471TIP3    H167828   1.232   0.486  16.000  0.1911  0.8856  0.4134
15471TIP3    H267829   1.286   0.345  16.015 -0.8558  0.1117 -2.4891
15472TIP3   OH267830   3.334   4.033  15.688 -0.1844  0.0655  0.1082
15472TIP3    H167831   3.377   3.980  15.621 -0.0588 -0.6763  0.7687
15472TIP3    H267832   3.276   3.973  15.734  0.6954  0.2379  1.5254
15473TIP3   OH267833   5.312   4.615  15.916 -0.3194  0.1652  0.5706
15473TIP3    H167834   5.271   4.533  15.944 -1.7873  1.0274  1.0132
15473TIP3    H267835   5.258   4.645  15.842 -0.1814  1.0559  0.8252
15474TIP3   OH267836   3.335   2.781  16.044 -0.0619  0.0174 -0.0132
15474TIP3    H167837   3.299   2.869  16.029  0.5251  0.4239  0.8640
15474TIP3    H267838   3.260   2.722  16.034 -0.3929  0.5821 -0.9580
15475TIP3   OH267839   0.816   3.639  12.789  0.3163  0.0239 -0.3349
15475TIP3    H167840   0.763   3.571  12.832  1.7607 -0.6221  0.5020
15475TIP3    H267841   0.829   3.607  12.700  0.7076 -0.6538 -0.0426
15476TIP3   OH267842   4.894   0.006  13.529 -0.4093  0.1450  0.8808
15476TIP3    H167843   4.876   0.053  13.610 -1.1637  0.2016  0.6845
15476TIP3    H267844   4.980   0.040  13.501 -0.1818  0.1832  1.6027
15477TIP3   OH267845   2.924   5.150  15.652 -0.5536  0.5198 -0.6844
15477TIP3    H167846   2.899   5.071  15.604 -1.0228  0.4199 -0.2806
15477TIP3    H267847   2.983   5.118  15.721 -0.4971  0.5593 -0.7143
15478TIP3   OH267848   3.495   2.216   1.527  0.0662  0.4946  0.4958
15478TIP3    H167849   3.573   2.195   1.578 -0.7006 -1.2685  1.0353
15478TIP3    H267850   3.477   2.136   1.477 -1.1283  1.0226  0.0386
15479TIP3   OH267851   4.927   2.794  16.167 -0.0668 -0.1608  0.0076
15479TIP3    H167852   4.906   2.786  16.260  0.4094  0.3302  0.1656
15479TIP3    H267853   4.843   2.811  16.125 -0.0738  1.3757  0.5763
15480TIP3   OH267854   5.841   6.416  16.833 -0.8900 -0.0157 -0.3398
15480TIP3    H167855   5.746   6.424  16.829 -0.7736  1.2826 -0.8566
15480TIP3    H267856   5.857   6.322  16.822 -2.0927 -0.2160 -0.5209
15481TIP3   OH267857   2.903   2.685  15.757 -0.8256 -0.0304 -0.5914
15481TIP3    H167858   2.885   2.634  15.678  1.1207  0.7351 -1.5958
15481TIP3    H267859   2.997   2.671  15.773 -0.6210  1.8771  0.0750
15482TIP3   OH267860   1.502   2.384   1.063 -0.4402 -0.1362 -0.4569
15482TIP3    H167861   1.580   2.331   1.080  0.0223  1.2415  2.2860
15482TIP3    H267862   1.536   2.471   1.042 -1.2131  0.3439  0.2081
15483TIP3   OH267863   3.956   2.775   1.100 -0.0145  0.9457 -0.9552
15483TIP3    H167864   3.969   2.681   1.094 -1.1481  0.7007 -0.0357
15483TIP3    H267865   3.966   2.795   1.193 -0.2913  1.6316 -1.0659
15484TIP3   OH267866   3.919   3.164   1.916 -0.0794 -0.1130 -0.0704
15484TIP3    H167867   3.995   3.134   1.965  1.0864  0.8764 -1.1768
15484TIP3    H267868   3.881   3.234   1.969 -0.3537 -0.7570  0.5874
15485TIP3   OH267869   3.742   0.523  14.125 -0.5505  0.1320  0.0393
15485TIP3    H167870   3.674   0.504  14.189 -0.8523  1.4027  0.1204
15485TIP3    H267871   3.765   0.615  14.141 -1.3749  0.8194 -2.3441
15486TIP3   OH267872   0.269   5.917   4.483  0.4192  0.3350  0.0674
15486TIP3    H167873   0.213   5.845   4.514  1.0352  1.0834  3.2845
15486TIP3    H267874   0.357   5.893   4.512  0.8776  1.6543 -0.1711
15487TIP3   OH267875   0.740   5.757  15.463  0.3475 -0.5835 -0.0125
15487TIP3    H167876   0.648   5.782  15.475  0.9029  1.3307  0.5284
15487TIP3    H267877   0.785   5.797  15.537  2.0312  0.9397 -1.7521
15488TIP3   OH267878   2.594   1.173   1.520  0.0026  0.5881 -0.1536
15488TIP3    H167879   2.558   1.210   1.602 -0.2978  1.9546 -0.8646
15488TIP3    H267880   2.678   1.136   1.546 -0.6044 -0.0682  0.9973
15489TIP3   OH267881   0.388   5.289  13.719 -0.5333  0.8996  0.1370
15489TIP3    H167882   0.422   5.365  13.672  0.2047  0.7964  0.4823
15489TIP3    H267883   0.316   5.324  13.772 -0.8409  1.1650 -0.4462
15490TIP3   OH267884   5.156   0.391   4.894 -0.3086  0.2349  0.6888
15490TIP3    H167885   5.091   0.433   4.951 -2.1628 -0.6646 -0.6670
15490TIP3    H267886   5.168   0.303   4.932  1.2949  0.8850  1.7867
15491TIP3   OH267887   0.544   2.948  12.913  0.2730 -0.9740  0.1625
15491TIP3    H167888   0.609   2.971  12.980 -0.1665 -1.6351  0.8302
15491TIP3    H267889   0.553   3.017  12.847 -1.7460  1.8732  2.5784
15492TIP3   OH267890   0.615   1.450   5.877 -0.3835 -0.4397 -0.1138
15492TIP3    H167891   0.623   1.455   5.972  1.3524 -0.1900 -0.2523
15492TIP3    H267892   0.682   1.509   5.844 -1.5129  0.1163 -1.5070
15493TIP3   OH267893   3.718   5.371   0.782  0.1184  0.0751 -0.2447
15493TIP3    H167894   3.695   5.397   0.693 -0.0530 -0.2261 -0.2897
15493TIP3    H267895   3.659   5.299   0.802  1.1248 -0.8361 -0.4240
15494TIP3   OH267896   2.464   5.026   2.426  0.0160  0.1163 -0.1008
15494TIP3    H167897   2.426   5.104   2.386 -1.7283 -0.9864 -0.6801
15494TIP3    H267898   2.518   4.988   2.357 -2.4906 -1.4397 -1.3265
15495TIP3   OH267899   5.209   4.351  16.825 -0.0554 -0.0076 -0.2777
15495TIP3    H167900   5.266   4.310  16.760 -0.2736 -2.1796  0.8160
15495TIP3    H267901   5.169   4.278  16.871 -2.6135  1.4638 -0.0027
15496TIP3   OH267902   0.727   1.200  12.905  0.8133  0.5055  0.0162
15496TIP3    H167903   0.730   1.222  12.998  0.9480  0.6534 -0.0231
15496TIP3    H267904   0.678   1.118  12.902 -0.2225  1.1166  0.0958
15497TIP3   OH267905   1.896   1.494  12.750  0.2412 -0.2915  0.3764
15497TIP3    H167906   1.893   1.407  12.790  0.2927 -1.2413 -1.5650
15497TIP3    H267907   1.964   1.487  12.683 -0.9303  0.6997 -0.9804
15498TIP3   OH267908   6.217   3.706   0.501 -0.2225 -0.3869  0.0345
15498TIP3    H167909   6.239   3.798   0.512 -0.2777  0.2100 -3.7587
15498TIP3    H267910   6.301   3.662   0.487 -0.3515 -0.5411 -0.2627
15499TIP3   OH267911   5.466   3.650   4.443  0.1742  1.0341 -0.3028
15499TIP3    H167912   5.454   3.742   4.420  1.2800  1.6373  1.3356
15499TIP3    H267913   5.406   3.636   4.517 -0.5622  0.2020 -1.0370
15500TIP3   OH267914   3.168   0.921   1.166  0.2270  0.1960  0.1642
15500TIP3    H167915   3.088   0.900   1.118  0.4516  0.1327 -0.1892
15500TIP3    H267916   3.215   0.981   1.108  0.9364 -0.6045 -0.1138
15501TIP3   OH267917   0.334   0.616  14.662  0.2109  0.2422 -0.2021
15501TIP3    H167918   0.318   0.527  14.630 -1.3107  0.8562 -1.3353
15501TIP3    H267919   0.429   0.628  14.657  0.4654 -1.4294  0.3398
15502TIP3   OH267920   0.882   0.932  14.779  0.0009  0.1694 -0.5026
15502TIP3    H167921   0.805   0.889  14.816  0.1459 -1.5703 -2.0787
15502TIP3    H267922   0.848   1.010  14.735 -0.5746  0.4742  0.4552
15503TIP3   OH267923   5.757   6.583  15.884  0.0912 -0.0224  0.3579
15503TIP3    H167924   5.725   6.625  15.805  0.1377 -1.4828 -0.4701
15503TIP3    H267925   5.738   6.645  15.954  0.0719  1.3098 -0.7877
15504TIP3   OH267926   2.840   4.944  17.357  0.4343  0.2420 -0.5951
15504TIP3    H167927   2.776   4.915  17.293 -0.1176  1.3401 -0.5601
15504TIP3    H267928   2.802   4.921  17.442 -0.3483  1.6614 -0.5317
15505TIP3   OH267929   3.286   3.168   5.641  0.0064  0.4640 -0.3026
15505TIP3    H167930   3.312   3.242   5.587 -0.5778  0.3114 -0.8007
15505TIP3    H267931   3.272   3.205   5.728  0.9503  0.7100 -0.2425
15506TIP3   OH267932   6.734   0.595  12.052 -0.4282  0.5002  0.0330
15506TIP3    H167933   6.748   0.536  11.978 -0.3781  0.6714 -0.0946
15506TIP3    H267934   6.798   0.568  12.117 -0.9866 -0.1599  0.3265
15507TIP3   OH267935   0.827   5.259   4.293  0.0681 -0.1239  0.1096
15507TIP3    H167936   0.848   5.326   4.358 -0.9992  2.7124 -2.2347
15507TIP3    H267937   0.739   5.230   4.315  0.0771  0.1299  0.4801
15508TIP3   OH267938   2.889   6.245   0.623  0.2535  0.3489  0.3161
15508TIP3    H167939   2.862   6.236   0.715 -0.3751  0.9844  0.2031
15508TIP3    H267940   2.828   6.310   0.587 -0.9871 -1.5383 -1.1609
15509TIP3   OH267941   3.027   1.867   3.636 -0.6478  0.2565 -0.3734
15509TIP3    H167942   3.042   1.773   3.631  2.6211  0.7587 -2.7083
15509TIP3    H267943   2.956   1.883   3.574  0.3480 -0.4567 -1.7416
15510TIP3   OH267944   5.521   2.036  16.472 -0.5152 -0.2051  0.1163
15510TIP3    H167945   5.550   1.962  16.417  0.1408 -0.0917  0.3001
15510TIP3    H267946   5.559   2.113  16.430  2.3349 -0.3224  2.1714
15511TIP3   OH267947   5.500   0.101   5.342  0.0875  0.5183 -0.7098
15511TIP3    H167948   5.460   0.175   5.387  1.8416  2.0092 -1.4960
15511TIP3    H267949   5.561   0.140   5.280  2.0478 -1.6114 -0.2571
15512TIP3   OH267950   5.389   3.808   1.023  0.1693 -0.4325  0.6246
15512TIP3    H167951   5.391   3.749   0.948  0.4910  0.0377  0.2574
15512TIP3    H267952   5.476   3.846   1.027  0.4880 -1.2115  1.8704
15513TIP3   OH267953   6.118   1.248   2.216 -0.1835  0.1896  0.4299
15513TIP3    H167954   6.168   1.324   2.187  1.0316  0.1941  2.3824
15513TIP3    H267955   6.184   1.179   2.228 -0.8387 -0.2685  1.5556
15514TIP3   OH267956   3.279   1.108   5.763  0.1580 -0.1233  0.4750
15514TIP3    H167957   3.306   1.139   5.849  0.6131 -1.2707  0.7595
15514TIP3    H267958   3.204   1.051   5.779 -0.2330  0.2537  0.0308
15515TIP3   OH267959   3.106   5.784  16.879  0.3570  0.0336  0.6186
15515TIP3    H167960   3.116   5.869  16.836 -2.2772  0.0457 -0.0864
15515TIP3    H267961   3.116   5.803  16.972 -0.6617  1.2009  0.5035
15516TIP3   OH267962   1.581   4.536   2.093  0.0372 -0.4685 -0.4533
15516TIP3    H167963   1.616   4.577   2.171  0.9283 -0.6665 -0.7348
15516TIP3    H267964   1.491   4.569   2.086 -0.7354 -1.9244  1.7044
15517TIP3   OH267965   4.155   1.764   1.926  0.1619 -1.1050  0.2830
15517TIP3    H167966   4.061   1.783   1.928  0.3873  0.0901  0.3706
15517TIP3    H267967   4.167   1.713   1.846 -0.1021  1.6059 -1.6118
15518TIP3   OH267968   2.483   3.173   4.197 -0.1331 -0.7224 -0.0192
15518TIP3    H167969   2.403   3.139   4.236 -1.5312  1.1271 -1.0967
15518TIP3    H267970   2.474   3.153   4.103  0.9697 -1.0438 -0.0664
15519TIP3   OH267971   5.115   5.995  16.553 -0.3492 -0.1684  0.1186
15519TIP3    H167972   5.196   6.019  16.508  0.5936 -2.6567  0.3318
15519TIP3    H267973   5.046   6.026  16.494  0.8243 -1.6334 -2.2032
15520TIP3   OH267974   3.593   6.680   5.069  0.1007 -0.1632 -0.0406
15520TIP3    H167975   3.640   6.608   5.026  1.1385  0.2497  0.3549
15520TIP3    H267976   3.662   6.731   5.112 -0.7400  0.3760  0.7107
15521TIP3   OH267977   1.096   4.628  14.800 -0.5018  0.0050  0.5350
15521TIP3    H167978   1.030   4.697  14.807  1.6147  2.2880 -0.5027
15521TIP3    H267979   1.127   4.614  14.890 -0.0283  1.4384  0.6137
15522TIP3   OH267980   6.150   2.898   3.321 -0.4415 -0.5850  0.5130
15522TIP3    H167981   6.145   2.993   3.334  0.1770 -0.2392 -1.4158
15522TIP3    H267982   6.059   2.868   3.328 -0.6015  0.0599  1.5086
15523TIP3   OH267983   0.552   3.236  14.640 -0.1851  0.6051  0.2719
15523TIP3    H167984   0.542   3.331  14.634  0.1194  0.5902 -0.7026
15523TIP3    H267985   0.541   3.216  14.733  2.3591  1.8916  0.9332
15524TIP3   OH267986   2.038   1.131  13.270 -0.4698  0.4943  0.0485
15524TIP3    H167987   1.978   1.203  13.285  0.4096  1.5649 -1.2268
15524TIP3    H267988   2.090   1.125  13.350 -1.6205  0.1666  0.7943
15525TIP3   OH267989   1.445   4.572  15.908  0.2661  0.2809 -0.3133
15525TIP3    H167990   1.409   4.660  15.924  0.4388  0.0250  1.7432
15525TIP3    H267991   1.485   4.547  15.991 -0.6447 -2.1710 -0.5295
15526TIP3   OH267992   1.539   1.109  13.670 -0.1312  0.0453  0.6185
15526TIP3    H167993   1.490   1.187  13.646  1.6291  0.4729 -1.9575
15526TIP3    H267994   1.624   1.142  13.700  1.0913 -0.8136 -1.6711
15527TIP3   OH267995   4.437   1.351  15.987  0.8003 -0.4474  0.1561
15527TIP3    H167996   4.527   1.363  15.955  0.9449  0.3549  0.8342
15527TIP3    H267997   4.384   1.406  15.929  0.9658  0.4001  0.7904
15528TIP3   OH267998   1.197   2.223  11.758  0.4255  0.0442 -0.3277
15528TIP3    H167999   1.200   2.147  11.701 -0.7349 -1.7945  1.9117
15528TIP3    H268000   1.143   2.286  11.711  0.8934 -0.7153 -1.9495
15529TIP3   OH268001   5.562   3.250   0.058  0.8810 -0.0060  0.3073
15529TIP3    H168002   5.564   3.163   0.018  0.0685  0.4889 -0.8861
15529TIP3    H268003   5.542   3.309  -0.015  2.0031  1.2602  0.9745
15530TIP3   OH268004   5.144   1.964  11.781  0.3487 -0.5418  0.2801
15530TIP3    H168005   5.058   1.964  11.740  0.0787 -2.0241  0.7941
15530TIP3    H268006   5.199   1.910  11.725 -0.2191 -3.2241  2.1252
15531TIP3   OH268007   2.179   4.605   1.755  0.1405 -0.1032  0.0171
15531TIP3    H168008   2.263   4.622   1.713 -0.3515 -0.7284 -1.2755
15531TIP3    H268009   2.117   4.662   1.709 -0.5614 -1.4068 -0.7064
15532TIP3   OH268010   6.525   1.063   1.754  0.2866  0.0870  0.6516
15532TIP3    H168011   6.451   1.104   1.709  0.3649 -1.0358 -0.5725
15532TIP3    H268012   6.501   1.065   1.846  0.2262  2.6919  0.6475
15533TIP3   OH268013   6.649   3.629  12.468  0.8280 -0.5722 -0.3357
15533TIP3    H168014   6.707   3.554  12.485  1.4099  0.2515  1.6749
15533TIP3    H268015   6.628   3.662  12.555 -1.1069  0.3659 -1.1113
15534TIP3   OH268016   4.032   1.116  17.200  0.5934 -0.5672  0.4777
15534TIP3    H168017   4.017   1.199  17.154  0.3552 -0.4366  0.7917
15534TIP3    H268018   4.126   1.114  17.216  0.6218 -0.4327  0.3284
15535TIP3   OH268019   0.018   3.264   5.957 -0.9076 -0.1833  0.3469
15535TIP3    H168020   0.035   3.192   5.897 -2.7501 -0.0719 -0.3849
15535TIP3    H268021   0.077   3.334   5.929 -0.1529 -0.8915  0.1253
15536TIP3   OH268022   4.621   6.561   4.254 -0.3717 -0.3065  0.0649
15536TIP3    H168023   4.625   6.473   4.218  0.8670 -0.2231 -0.0666
15536TIP3    H268024   4.698   6.605   4.217  0.6344 -0.0342  2.3027
15537TIP3   OH268025   4.404   4.396   4.804 -0.0072 -0.5552 -0.0301
15537TIP3    H168026   4.333   4.428   4.860  0.1794 -1.2457  0.6180
15537TIP3    H268027   4.399   4.450   4.725 -0.7288 -0.0468  0.3557
15538TIP3   OH268028   1.243   4.719   5.006 -0.3462  0.5343  0.6038
15538TIP3    H168029   1.159   4.718   5.053 -0.4698  1.5468  0.4388
15538TIP3    H268030   1.243   4.803   4.959  0.7706  0.5597  0.6197
15539TIP3   OH268031   5.020   1.365   3.384  0.7891  0.2946  0.2362
15539TIP3    H168032   5.099   1.352   3.331  1.6543 -0.6513  1.7000
15539TIP3    H268033   5.052   1.375   3.473 -0.7989 -2.4526  1.2621
15540TIP3   OH268034   1.755   1.786  16.710 -0.4661  0.0825 -0.3690
15540TIP3    H168035   1.788   1.773  16.799  1.9614  1.7540 -0.9158
15540TIP3    H268036   1.744   1.697  16.675  0.9363 -0.5831  0.7922
15541TIP3   OH268037   5.979   3.021   4.358  0.8060 -0.4260 -0.6572
15541TIP3    H168038   5.977   3.106   4.403  1.9577 -1.2282  1.0216
15541TIP3    H268039   5.925   3.034   4.281  0.0171  1.5039  0.1461
15542TIP3   OH268040   5.322   0.857   6.507  0.2460  0.1064 -0.2432
15542TIP3    H168041   5.262   0.807   6.563  2.6508 -1.2484  1.2917
15542TIP3    H268042   5.399   0.872   6.562  2.6108 -0.9399 -3.0080
15543TIP3   OH268043   0.778   2.512  15.861  0.1023  0.4622  0.4867
15543TIP3    H168044   0.718   2.438  15.864  0.2790  0.2728 -0.4276
15543TIP3    H268045   0.735   2.579  15.915  0.1180 -0.4130  1.6234
15544TIP3   OH268046   4.847   6.228   2.640 -0.6025 -0.2881 -0.6247
15544TIP3    H168047   4.882   6.241   2.729 -0.3064  0.5351 -0.8494
15544TIP3    H268048   4.755   6.255   2.648 -1.2570 -2.4870 -0.0259
15545TIP3   OH268049   3.133   0.261   1.707 -0.2455  0.2713  0.0127
15545TIP3    H168050   3.083   0.300   1.634 -0.2435 -1.0729 -0.7308
15545TIP3    H268051   3.205   0.215   1.664  1.4557  1.8448  1.0516
15546TIP3   OH268052   1.230   2.754  16.750  0.4435  0.4995  0.1467
15546TIP3    H168053   1.263   2.703  16.676 -0.6714 -2.2374  1.4061
15546TIP3    H268054   1.136   2.736  16.752 -0.0419  2.7647  0.6178
15547TIP3   OH268055   4.158   6.508  14.042  0.2188 -0.1419  0.4844
15547TIP3    H168056   4.237   6.474  14.000  1.3908  1.9995  0.8019
15547TIP3    H268057   4.091   6.442  14.025  2.1997 -2.3400  0.7229
15548TIP3   OH268058   3.332   3.663  13.005  0.0927  0.0727  0.0798
15548TIP3    H168059   3.383   3.638  12.929  0.4637  1.3591 -0.1295
15548TIP3    H268060   3.393   3.658  13.079  0.3875  1.0491 -0.0809
15549TIP3   OH268061   2.572   0.910  11.693 -0.2784 -0.0479 -0.4680
15549TIP3    H168062   2.502   0.857  11.731 -1.1105  0.0387 -1.8024
15549TIP3    H268063   2.604   0.858  11.619  1.1488 -0.1222  0.1774
15550TIP3   OH268064   6.704   1.067   4.047 -0.0010 -0.3913  0.2478
15550TIP3    H168065   6.771   1.128   4.016  0.8256 -1.0013  0.8084
15550TIP3    H268066   6.735   0.981   4.018 -1.1825 -0.5655 -0.5865
15551TIP3   OH268067   3.015   1.515  12.512  0.1351 -0.0083 -0.5474
15551TIP3    H168068   3.050   1.459  12.443  1.6071  0.9859 -0.6530
15551TIP3    H268069   3.065   1.596  12.505  1.7870 -0.5508  2.9134
15552TIP3   OH268070   0.919   4.551   2.542 -0.6242 -0.2618  0.1712
15552TIP3    H168071   0.905   4.640   2.508  0.8157 -0.3136 -0.6482
15552TIP3    H268072   0.974   4.564   2.620  0.4814 -0.4683 -0.5472
15553TIP3   OH268073   2.924   1.650   3.325  0.6492 -0.3214  0.0253
15553TIP3    H168074   2.880   1.600   3.256  1.2823 -1.4120  0.3771
15553TIP3    H268075   2.894   1.740   3.313 -1.2007 -0.9130 -0.1133
15554TIP3   OH268076   0.975   1.811  12.316 -0.2468  0.2787 -0.0779
15554TIP3    H168077   0.984   1.901  12.284  1.8042 -0.0021 -0.4122
15554TIP3    H268078   1.044   1.802  12.381 -2.3096 -0.1728  2.2253
15555TIP3   OH268079   2.440   4.642  15.221  1.1724 -0.1486  0.1844
15555TIP3    H168080   2.347   4.653  15.243  1.2278  0.3764  0.1723
15555TIP3    H268081   2.456   4.708  15.154  1.4629 -0.4965 -0.0829
15556TIP3   OH268082   1.482   5.912  13.504  0.4533 -0.3358  0.0513
15556TIP3    H168083   1.395   5.926  13.541  0.5368 -0.6588  0.3749
15556TIP3    H268084   1.531   5.992  13.528  0.6855 -0.7913  1.1801
15557TIP3   OH268085   3.414   5.016   6.592  0.1380  0.3305  0.2249
15557TIP3    H168086   3.449   5.048   6.675 -0.4856 -0.2083  0.7067
15557TIP3    H268087   3.470   4.942   6.569 -0.5964 -0.4691  0.9438
15558TIP3   OH268088   1.900   1.865  15.558 -0.3988 -0.2558 -0.1637
15558TIP3    H168089   1.930   1.872  15.468 -1.2899  1.1502 -0.3799
15558TIP3    H268090   1.873   1.774  15.567 -0.0669 -0.4766 -1.2370
15559TIP3   OH268091   4.358   0.702  12.112 -0.4327  0.2308 -0.2054
15559TIP3    H168092   4.425   0.745  12.165 -0.4485 -0.1314  0.1171
15559TIP3    H268093   4.309   0.773  12.072  0.8487  0.5127 -1.3722
15560TIP3   OH268094   6.426   1.782   0.424  0.5947 -0.0778  0.2241
15560TIP3    H168095   6.391   1.790   0.336 -1.5963  3.5856  1.1887
15560TIP3    H268096   6.367   1.723   0.469 -0.3193  0.6764  0.0432
15561TIP3   OH268097   5.914   5.688   5.104  0.7062 -0.2117 -0.3746
15561TIP3    H168098   5.940   5.746   5.176  2.5333  0.4871 -1.5279
15561TIP3    H268099   5.990   5.633   5.089  0.7406  0.3288 -2.4000
15562TIP3   OH268100   5.899   6.643  16.708  0.1327 -0.0213 -0.0227
15562TIP3    H168101   5.941   6.602  16.784 -0.9993  0.0284  0.6586
15562TIP3    H268102   5.916   6.584  16.635  1.0779 -0.1670  0.3037
15563TIP3   OH268103   2.679   5.557  14.690  0.5241 -0.0411  0.4231
15563TIP3    H168104   2.667   5.483  14.632  1.1892  0.0620  0.1365
15563TIP3    H268105   2.597   5.606  14.685  0.2533 -0.5147  0.2614
15564TIP3   OH268106   2.785   1.580   5.208 -0.6936 -0.7103 -0.1508
15564TIP3    H168107   2.750   1.618   5.127 -1.0723 -1.1593 -0.2034
15564TIP3    H268108   2.857   1.638   5.233 -0.0406 -1.0145 -1.2469
15565TIP3   OH268109   0.216   0.158  16.405  0.0872  0.4471  0.1054
15565TIP3    H168110   0.245   0.070  16.429 -0.4075  0.4327  0.6826
15565TIP3    H268111   0.145   0.177  16.466 -0.4506  0.8667 -0.6436
15566TIP3   OH268112   1.961   1.180   0.899 -0.2003  0.2094  0.0331
15566TIP3    H168113   1.934   1.125   0.973 -3.4554  2.1178  0.4869
15566TIP3    H268114   2.012   1.250   0.939 -1.6245  1.0227  0.5029
15567TIP3   OH268115   5.837   4.222   3.828  0.3083 -0.0770  0.3307
15567TIP3    H168116   5.870   4.155   3.769  0.2693  0.4396 -0.2868
15567TIP3    H268117   5.863   4.305   3.788 -0.3885  0.3007  0.6352
15568TIP3   OH268118   6.506   2.652   4.346  0.5059  0.0816 -0.2612
15568TIP3    H168119   6.598   2.629   4.358  0.4047  0.4112  1.5090
15568TIP3    H268120   6.468   2.645   4.434 -1.0970  0.2435 -0.8959
15569TIP3   OH268121   4.493   0.117  14.998 -0.2648  0.0499  0.2051
15569TIP3    H168122   4.523   0.208  15.007 -0.0004 -0.1592  1.7063
15569TIP3    H268123   4.553   0.079  14.934  1.0462  0.3519  1.2037
15570TIP3   OH268124   1.343   6.276   5.275 -0.1893 -0.7622 -0.6015
15570TIP3    H168125   1.302   6.281   5.362  0.1347 -1.1540 -0.4237
15570TIP3    H268126   1.322   6.188   5.244 -2.4246  0.1869 -1.9892
15571TIP3   OH268127   0.898   3.161   0.564 -0.1291 -0.0069 -0.1734
15571TIP3    H168128   0.848   3.203   0.495  0.3206  0.3845 -0.2670
15571TIP3    H268129   0.952   3.095   0.519  0.1355  0.2218 -0.1930
15572TIP3   OH268130   4.322   0.822   2.230 -0.1439 -0.7619 -0.2345
15572TIP3    H168131   4.317   0.914   2.201 -1.1907 -1.0654 -1.0865
15572TIP3    H268132   4.413   0.810   2.254 -0.0020  0.5384 -0.0027
15573TIP3   OH268133   0.906   5.262  16.308 -0.0349 -0.1099  0.1118
15573TIP3    H168134   0.942   5.305  16.386 -0.3752  0.1501  0.1255
15573TIP3    H268135   0.828   5.313  16.286  0.7319  0.5838 -1.1346
15574TIP3   OH268136   0.811   2.193   0.043 -0.4835 -0.0636 -0.0001
15574TIP3    H168137   0.726   2.237   0.042 -0.6937 -0.4499  0.5574
15574TIP3    H268138   0.795   2.109   0.086  0.2035 -0.0861  0.2333
15575TIP3   OH268139   1.669   2.602   4.221 -0.1627  0.2084  0.1642
15575TIP3    H168140   1.733   2.617   4.291 -1.7695  0.3171  1.7006
15575TIP3    H268141   1.592   2.652   4.249 -1.5691 -1.4241 -0.6132
15576TIP3   OH268142   5.048   4.945   3.566  0.5151  0.1841 -0.3543
15576TIP3    H168143   5.062   5.029   3.609  0.0443  0.9714 -1.6632
15576TIP3    H268144   5.021   4.968   3.477 -1.0675 -1.3334 -0.3144
15577TIP3   OH268145   6.078   4.224   4.948  0.0555  0.0664 -0.3188
15577TIP3    H168146   6.101   4.155   5.010  0.2706 -0.6252 -1.1495
15577TIP3    H268147   5.985   4.241   4.964  0.3742  0.7046  0.9492
15578TIP3   OH268148   1.548   2.959  14.749  0.0685 -0.1947  0.4593
15578TIP3    H168149   1.615   2.999  14.694 -1.1598  3.0225  1.0784
15578TIP3    H268150   1.467   2.968  14.698 -0.1711 -3.0871  0.1488
15579TIP3   OH268151   3.189   4.532  12.802  0.4012  0.4387  0.0106
15579TIP3    H168152   3.100   4.555  12.777  0.0491 -1.8283 -1.0384
15579TIP3    H268153   3.208   4.589  12.877 -1.4878  1.7548 -0.4267
15580TIP3   OH268154   5.776   4.136  12.821  0.0975  0.3589  0.3243
15580TIP3    H168155   5.817   4.133  12.735 -0.6656 -0.7524 -0.0055
15580TIP3    H268156   5.704   4.074  12.817  0.0618  0.2576  1.7712
15581TIP3   OH268157   6.218   6.283  14.652  0.1303 -0.6223  0.1752
15581TIP3    H168158   6.244   6.197  14.618 -0.0219 -0.5061 -0.2480
15581TIP3    H268159   6.154   6.315  14.588 -0.8330 -0.7725  1.0305
15582TIP3   OH268160   6.205   0.910   1.216 -0.6037 -0.7591 -0.1555
15582TIP3    H168161   6.239   0.985   1.264 -1.7333 -0.8607  0.8561
15582TIP3    H268162   6.263   0.838   1.239  0.9993 -0.0598 -1.7970
15583TIP3   OH268163   2.924   3.165  16.047  0.1892  0.3241 -0.3007
15583TIP3    H168164   2.911   3.111  16.125 -0.7611  0.5470 -0.3008
15583TIP3    H268165   2.919   3.255  16.079  1.4288  0.4273 -0.3586
15584TIP3   OH268166   2.006   2.800   1.606  0.4432 -0.1308  0.4349
15584TIP3    H168167   1.913   2.819   1.610  0.3299 -0.5671 -0.0998
15584TIP3    H268168   2.031   2.784   1.697 -0.2762 -1.2585  0.4506
15585TIP3   OH268169   3.055   5.479   0.701  0.2951 -0.6850  0.4217
15585TIP3    H168170   2.987   5.461   0.766  1.5533 -2.5259  1.3363
15585TIP3    H268171   3.109   5.399   0.701  0.9688 -0.3089 -2.1160
15586TIP3   OH268172   5.273   0.685   5.466 -0.1175  0.6160 -0.2473
15586TIP3    H168173   5.333   0.751   5.500  1.3142  0.3906 -2.1717
15586TIP3    H268174   5.330   0.614   5.434 -1.4365 -0.0328 -1.2847
15587TIP3   OH268175   0.795   2.450  13.208  0.2236 -0.1627 -0.4605
15587TIP3    H168176   0.886   2.472  13.228  0.6393 -0.1590 -2.1916
15587TIP3    H268177   0.774   2.503  13.131 -1.1375 -0.4241 -0.2980
15588TIP3   OH268178   2.578   0.548   5.712  0.4636  0.5887 -0.2663
15588TIP3    H168179   2.598   0.641   5.715  1.2593  0.6225 -3.4502
15588TIP3    H268180   2.551   0.532   5.621 -0.7082 -2.0884  0.4555
15589TIP3   OH268181   6.420   4.708   5.763  0.1085 -0.3543  0.4333
15589TIP3    H168182   6.445   4.776   5.826 -0.0971 -0.2034  0.3534
15589TIP3    H268183   6.490   4.643   5.769  2.4388  1.6100 -2.1681
15590TIP3   OH268184   4.991   4.158  14.109 -0.1824  0.4692  0.1964
15590TIP3    H168185   5.007   4.080  14.162 -0.4888  0.3208  0.0698
15590TIP3    H268186   4.899   4.179  14.125  0.2296  1.5867  1.2893
15591TIP3   OH268187   4.719   1.908  11.931  0.3032 -0.4784  0.4014
15591TIP3    H168188   4.635   1.901  11.886 -0.8192  0.0372  2.2873
15591TIP3    H268189   4.715   1.842  12.000 -0.3019  2.1165  3.0444
15592TIP3   OH268190   6.145   1.296   0.910 -0.3188 -0.0296  0.1249
15592TIP3    H168191   6.149   1.208   0.872  2.9969  0.6963 -1.5554
15592TIP3    H268192   6.169   1.284   1.002 -0.1190 -0.8883 -0.0340
15593TIP3   OH268193   5.671   3.600  15.827 -0.1113 -0.1155  0.7857
15593TIP3    H168194   5.652   3.611  15.920 -0.3734  1.1862  0.6021
15593TIP3    H268195   5.603   3.651  15.783 -0.1108 -0.8890 -0.1351
15594TIP3   OH268196   6.700   3.977  13.842 -0.2571 -0.0757 -0.3393
15594TIP3    H168197   6.767   3.914  13.865 -1.1831 -1.3144 -0.8879
15594TIP3    H268198   6.709   4.047  13.906 -0.9241 -2.0252  2.0370
15595TIP3   OH268199   5.279   2.203  11.833  0.3752  0.3756  0.0172
15595TIP3    H168200   5.240   2.115  11.836  0.6367  0.2713  0.6107
15595TIP3    H268201   5.317   2.214  11.920  3.6928 -0.4583 -1.1678
15596TIP3   OH268202   5.274   6.280   4.670 -0.1713  0.5939  0.3615
15596TIP3    H168203   5.224   6.246   4.745  0.5742  1.9050  1.4962
15596TIP3    H268204   5.209   6.320   4.613 -0.6696  0.1980  0.6464
15597TIP3   OH268205   6.315   1.158  13.620  0.0840 -0.1425 -0.3579
15597TIP3    H168206   6.335   1.143  13.528 -0.6638 -2.1893 -0.2339
15597TIP3    H268207   6.333   1.074  13.663 -1.5365  0.1448  1.0027
15598TIP3   OH268208   0.762   0.058   1.670 -0.1466  0.5771 -0.1166
15598TIP3    H168209   0.756   0.033   1.578 -1.1016 -0.1215  0.1160
15598TIP3    H268210   0.852   0.089   1.681  1.5554 -3.6738 -0.2593
15599TIP3   OH268211   4.766   2.710  16.711 -0.5665 -0.4659 -0.5615
15599TIP3    H168212   4.841   2.720  16.770 -0.5426  0.3020 -0.7097
15599TIP3    H268213   4.764   2.617  16.690 -0.2669 -0.6656  0.2471
15600TIP3   OH268214   4.584   2.661  17.397  0.0001 -0.2494  0.1935
15600TIP3    H168215   4.589   2.565  17.399 -2.3889 -0.4578 -0.4060
15600TIP3    H268216   4.663   2.688  17.352  0.3974 -1.9874 -0.2313
15601TIP3   OH268217   1.555   0.980  14.422  0.2044  0.5050 -0.1266
15601TIP3    H168218   1.636   0.984  14.372 -0.9287 -4.3694 -2.9893
15601TIP3    H268219   1.583   0.981  14.514  3.3155  0.5565 -0.9868
15602TIP3   OH268220   2.163   2.040  11.203  0.9311  0.1517 -0.0903
15602TIP3    H168221   2.141   1.989  11.281  1.3284  1.0498  0.6375
15602TIP3    H268222   2.194   1.975  11.140 -2.5716 -1.0480 -0.7828
15603TIP3   OH268223   6.526   4.335  15.976  0.0103 -0.0881  0.1830
15603TIP3    H168224   6.616   4.359  15.956  0.8414 -2.6785  0.4100
15603TIP3    H268225   6.534   4.264  16.040 -2.1644 -0.7093 -0.1577
15604TIP3   OH268226   3.133   5.573   3.958 -0.3851  0.3905 -0.1829
15604TIP3    H168227   3.138   5.576   4.053  0.4250  1.1580 -0.2446
15604TIP3    H268228   3.208   5.522   3.931 -1.9442 -1.9762 -0.3196
15605TIP3   OH268229   0.906   5.294   4.620  0.2557  0.5455 -0.3651
15605TIP3    H168230   0.832   5.339   4.662  0.9637  2.7353 -1.3218
15605TIP3    H268231   0.969   5.279   4.690 -0.3180  0.3129  0.1105
15606TIP3   OH268232   2.239   1.853   4.361 -0.4445  0.2933  0.0132
15606TIP3    H168233   2.215   1.829   4.272 -1.3264  1.0740  0.0237
15606TIP3    H268234   2.268   1.771   4.401 -0.3466 -0.1233 -0.8941
15607TIP3   OH268235   2.792   4.769   0.762  0.6294 -0.4161  0.6974
15607TIP3    H168236   2.827   4.711   0.694 -1.5632 -1.1789  0.1492
15607TIP3    H268237   2.828   4.855   0.740  1.8148 -1.0668 -0.0388
15608TIP3   OH268238   6.673   2.623   4.991  0.5492  0.0666 -0.0702
15608TIP3    H168239   6.742   2.647   5.052  1.8639  1.7829 -2.0843
15608TIP3    H268240   6.684   2.529   4.977  1.3514 -0.0043  0.9455
15609TIP3   OH268241   2.575   4.608  13.060  0.0674  0.4481 -0.5090
15609TIP3    H168242   2.609   4.534  13.009 -0.3403 -0.4987  0.5394
15609TIP3    H268243   2.480   4.606  13.044 -0.0974 -0.0306  0.4837
15610TIP3   OH268244   5.902   6.220  12.488  0.6918  0.3826 -0.1223
15610TIP3    H168245   5.840   6.152  12.461  0.6754  0.5465 -0.5101
15610TIP3    H268246   5.973   6.213  12.424  1.2144  0.0062  0.4842
15611TIP3   OH268247   0.814   6.299  17.320  0.0760  0.5223  0.4336
15611TIP3    H168248   0.736   6.305  17.265  0.8066 -0.0300 -0.7042
15611TIP3    H268249   0.882   6.347  17.272  1.2522 -1.5914 -0.1558
15612TIP3   OH268250   4.753   4.536  13.444  0.2771 -0.2450 -0.2590
15612TIP3    H168251   4.747   4.626  13.411 -0.4517 -0.2298 -0.1007
15612TIP3    H268252   4.828   4.499  13.397  0.3357  0.3137 -0.6271
15613TIP3   OH268253   0.688   3.017  12.515  0.0371 -0.9062 -0.0062
15613TIP3    H168254   0.651   2.929  12.508 -1.2468 -0.3841  0.0064
15613TIP3    H268255   0.699   3.046  12.424 -3.4520  0.4691 -0.1322
15614TIP3   OH268256   0.300   1.617  15.333 -0.2233  0.1319  0.4919
15614TIP3    H168257   0.333   1.542  15.283 -0.0949 -0.2996  1.2152
15614TIP3    H268258   0.290   1.686  15.267 -0.2032 -0.4666 -0.1616
15615TIP3   OH268259   5.277   4.261   0.749 -0.0884  0.3331  0.1885
15615TIP3    H168260   5.336   4.337   0.752 -0.8821  1.0265 -0.9477
15615TIP3    H268261   5.224   4.269   0.829  0.0573  0.7855  0.2430
15616TIP3   OH268262   1.814   5.220  11.781  0.4522  0.5338 -0.2075
15616TIP3    H168263   1.875   5.273  11.832 -1.4464  1.6010  1.0955
15616TIP3    H268264   1.777   5.282  11.717  0.3925  0.0204 -0.6812
15617TIP3   OH268265   5.130   4.131  12.940  0.6432  0.5106 -0.0442
15617TIP3    H168266   5.035   4.124  12.949  0.5584  2.1257  0.7301
15617TIP3    H268267   5.142   4.198  12.873  1.2055  1.3521  0.8725
15618TIP3   OH268268   1.359   5.446   0.031 -0.0230 -0.3619  0.8791
15618TIP3    H168269   1.413   5.377  -0.009  1.9451  0.8678  1.2614
15618TIP3    H268270   1.389   5.449   0.122  0.8955  1.8530  0.5442
15619TIP3   OH268271   1.665   5.936  16.755 -0.2645  0.5260 -0.1358
15619TIP3    H168272   1.595   5.989  16.793 -0.7836 -1.0453  1.2262
15619TIP3    H268273   1.654   5.944  16.661 -0.5023  2.5587  0.0154
15620TIP3   OH268274   6.569   6.750  13.975 -0.1212 -0.1141 -0.0984
15620TIP3    H168275   6.539   6.811  13.908 -0.6261 -0.8862 -0.5842
15620TIP3    H268276   6.587   6.805  14.051 -0.6418  0.6309 -0.5062
15621TIP3   OH268277   5.940   6.205  13.173  0.2351 -0.4951  0.3071
15621TIP3    H168278   6.019   6.251  13.147  0.0892 -0.7730 -0.6647
15621TIP3    H268279   5.960   6.170  13.260  1.6789 -1.6832 -0.4495
15622TIP3   OH268280   5.951   5.710   4.054  0.0790  0.3447 -0.3386
15622TIP3    H168281   5.927   5.748   4.138 -0.0064  1.0396 -0.6697
15622TIP3    H268282   5.907   5.765   3.989 -0.1782 -0.4286 -0.8232
15623TIP3   OH268283   3.748   1.358  15.873 -0.3410  0.0123 -1.0759
15623TIP3    H168284   3.702   1.282  15.837  0.2538 -1.1525  0.5057
15623TIP3    H268285   3.810   1.321  15.936 -0.8933  1.8712  0.6782
15624TIP3   OH268286   6.300   3.969  15.719  0.2059 -0.8290  0.5152
15624TIP3    H168287   6.228   3.969  15.656  1.2314 -2.2919 -0.7266
15624TIP3    H268288   6.275   3.904  15.785  0.1196 -0.8845  0.4275
15625TIP3   OH268289   1.805   0.386   1.165  0.3839 -0.5146  0.1044
15625TIP3    H168290   1.886   0.427   1.195  0.7254 -0.2944 -1.0611
15625TIP3    H268291   1.799   0.410   1.073  0.1594 -2.3943 -0.4123
15626TIP3   OH268292   0.410   1.537  17.133 -0.1402 -0.6172  0.0201
15626TIP3    H168293   0.371   1.623  17.149 -0.3541 -0.8127  0.6032
15626TIP3    H268294   0.408   1.526  17.038  0.7240  0.4041 -0.1302
15627TIP3   OH268295   1.150   5.528  10.822  0.2838  0.0342 -0.1092
15627TIP3    H168296   1.105   5.597  10.870  0.7234  0.1030  0.2133
15627TIP3    H268297   1.080   5.474  10.786 -0.1531 -1.4341  2.6123
15628TIP3   OH268298   3.174   3.844  15.821  0.7406 -0.4174 -0.5322
15628TIP3    H168299   3.201   3.835  15.912 -0.8730 -2.1197 -0.1495
15628TIP3    H268300   3.196   3.760  15.781 -1.4637 -0.9138 -0.8396
15629TIP3   OH268301   1.568   6.179  15.968 -0.5670 -0.3612  0.2476
15629TIP3    H168302   1.608   6.212  15.887 -0.6821 -1.4142 -0.2532
15629TIP3    H268303   1.642   6.152  16.022 -0.4714  0.6925  0.6631
15630TIP3   OH268304   3.234   4.885   6.436 -0.2895 -0.5307 -0.0008
15630TIP3    H168305   3.287   4.949   6.483  0.2435 -0.6655 -0.4112
15630TIP3    H268306   3.293   4.810   6.424 -0.2519 -0.2992 -1.3387
15631TIP3   OH268307   6.604   5.606   3.726  0.0139 -0.0182  0.2847
15631TIP3    H168308   6.582   5.557   3.805  1.4110 -1.1845 -0.0066
15631TIP3    H268309   6.520   5.635   3.692 -0.7330 -0.8536  1.3355
15632TIP3   OH268310   2.708   2.391   5.232 -0.3223 -0.1707  0.0975
15632TIP3    H168311   2.705   2.449   5.156 -1.5162  0.2290  0.4226
15632TIP3    H268312   2.683   2.446   5.306  2.0875 -0.2230  1.0494
15633TIP3   OH268313   5.642   3.314  12.544  0.5721  0.5045 -0.3316
15633TIP3    H168314   5.575   3.382  12.553  0.7095  0.9767 -2.2628
15633TIP3    H268315   5.724   3.362  12.534  0.5874  0.1656 -2.3928
15634TIP3   OH268316   5.801   4.563  14.754  0.5164  0.2716 -0.3562
15634TIP3    H168317   5.895   4.580  14.749  0.4972  0.3592 -0.4245
15634TIP3    H268318   5.789   4.514  14.835  0.7866 -0.7976 -0.9293
15635TIP3   OH268319   2.537   3.748  12.253 -0.4294  0.4639  0.1680
15635TIP3    H168320   2.473   3.765  12.323  0.2349  0.3859  0.8053
15635TIP3    H268321   2.603   3.816  12.264  0.6804 -0.6863  0.8298
15636TIP3   OH268322   5.100   3.393  17.337 -0.7086 -0.3218  0.0166
15636TIP3    H168323   5.039   3.333  17.381 -2.4886  2.3508  1.4512
15636TIP3    H268324   5.165   3.414  17.404 -1.8424  1.6122  0.5813
15637TIP3   OH268325   2.253   5.111  14.961  0.2267 -0.2740  0.3389
15637TIP3    H168326   2.271   5.091  15.053  1.6894 -1.7136 -0.2059
15637TIP3    H268327   2.228   5.203  14.960  1.0247 -0.0127  2.0831
15638TIP3   OH268328   0.892   1.551  14.811  0.1405  0.0322  0.8595
15638TIP3    H168329   0.934   1.607  14.746 -0.4748 -0.4537  0.0365
15638TIP3    H268330   0.965   1.502  14.850  0.5036  0.2960  0.5173
15639TIP3   OH268331   2.578   1.443   4.970 -0.3300 -0.1996 -0.3893
15639TIP3    H168332   2.615   1.362   5.005 -1.8195 -0.7822 -0.0906
15639TIP3    H268333   2.651   1.486   4.927  0.9918 -0.6786  1.2582
15640TIP3   OH268334   2.836   0.060   6.166  0.6063 -0.2028  0.5593
15640TIP3    H168335   2.931   0.057   6.157  0.5969  0.3362  0.2518
15640TIP3    H268336   2.821   0.090   6.256  0.7465  1.4440  0.0611
15641TIP3   OH268337   4.882   0.484  14.822 -0.1061 -0.2824  0.0558
15641TIP3    H168338   4.823   0.443  14.759  0.3161  0.6952 -1.0253
15641TIP3    H268339   4.939   0.413  14.852 -1.3153 -1.0761  0.5395
15642TIP3   OH268340   1.689   1.761  12.214 -0.0877  0.3832  0.8082
15642TIP3    H168341   1.629   1.803  12.276 -1.0529 -0.4026  0.4425
15642TIP3    H268342   1.662   1.794  12.128  1.4059  1.6585  0.7953
15643TIP3   OH268343   3.889   1.676  14.222  0.1578 -0.3307 -0.3167
15643TIP3    H168344   3.809   1.678  14.169  0.0372 -1.6274 -0.2141
15643TIP3    H268345   3.862   1.715  14.306 -0.0832  0.1975 -0.6342
15644TIP3   OH268346   5.714   3.632   0.634 -0.2170 -0.0063 -0.1406
15644TIP3    H168347   5.808   3.647   0.649 -0.2786 -0.3707  0.6506
15644TIP3    H268348   5.694   3.553   0.683 -0.7589 -0.4402 -1.0269
15645TIP3   OH268349   0.433   0.419   0.754 -0.0334  0.2682  0.2156
15645TIP3    H168350   0.430   0.499   0.807 -1.5392  0.9387 -0.8106
15645TIP3    H268351   0.370   0.434   0.684 -1.7251 -2.5115  0.9511
15646TIP3   OH268352   2.765   5.963  11.861  0.0167 -0.1677  0.0345
15646TIP3    H168353   2.705   5.955  11.936  0.4975 -0.3610  0.4026
15646TIP3    H268354   2.713   6.007  11.794 -0.0979  0.9557  0.8354
15647TIP3   OH268355   1.927   3.153  11.674  1.0152 -0.7177  0.7914
15647TIP3    H168356   1.857   3.088  11.677 -0.3018  0.6505  0.7878
15647TIP3    H268357   1.937   3.182  11.764  0.4793  0.2004  0.5678
15648TIP3   OH268358   4.898   5.092   0.345 -0.5397 -0.2250  0.3555
15648TIP3    H168359   4.857   5.064   0.427  0.9260 -1.0395  0.8316
15648TIP3    H268360   4.989   5.066   0.353 -0.2358  0.2177 -1.3046
15649TIP3   OH268361   3.179   3.164  11.785  0.1287  0.3137  0.6074
15649TIP3    H168362   3.172   3.074  11.817  1.6359  0.8489  2.6812
15649TIP3    H268363   3.155   3.158  11.692  0.1613 -2.2090  0.6785
15650TIP3   OH268364   5.168   4.032   3.817  0.1200  0.2109 -0.4935
15650TIP3    H168365   5.183   4.096   3.886  0.8077  1.5574 -1.8410
15650TIP3    H268366   5.087   4.062   3.774  0.1025 -0.1834 -0.7409
15651TIP3   OH268367   5.009   5.104   3.823 -0.4887  0.3225 -0.0292
15651TIP3    H168368   5.082   5.064   3.869 -0.5720 -1.7752 -1.5968
15651TIP3    H268369   5.048   5.145   3.747 -0.5234  2.6341  1.1009
15652TIP3   OH268370   6.629   4.303  16.267  0.3859  0.3998  0.2965
15652TIP3    H168371   6.609   4.394  16.287 -2.1076  0.8320 -3.1643
15652TIP3    H268372   6.553   4.254  16.298  0.7656 -0.2003  0.3027
15653TIP3   OH268373   3.761   0.528   3.759  0.5920 -0.4145 -0.1782
15653TIP3    H168374   3.678   0.483   3.743  0.6925 -0.6658  0.0027
15653TIP3    H268375   3.742   0.620   3.739 -0.0180 -0.2913  0.8381
15654TIP3   OH268376   3.265   6.686  12.256 -0.2210 -0.4817 -0.3112
15654TIP3    H168377   3.308   6.630  12.192 -0.9214  0.1638 -1.3733
15654TIP3    H268378   3.175   6.695  12.224  0.0316  1.7406 -0.5457
15655TIP3   OH268379   6.205   2.594   0.321  0.6436 -0.0041  0.4850
15655TIP3    H168380   6.268   2.524   0.338 -0.6649 -1.2863  0.2657
15655TIP3    H268381   6.120   2.553   0.335 -0.1713  1.4845  0.0647
15656TIP3   OH268382   2.417   3.244   0.479 -0.0140 -0.2158 -0.5272
15656TIP3    H168383   2.331   3.228   0.518  0.1729 -1.3097 -0.5266
15656TIP3    H268384   2.455   3.315   0.531 -0.6320 -0.1994 -0.0910
15657TIP3   OH268385   5.794   5.620   1.396 -0.0794 -0.4125 -0.2967
15657TIP3    H168386   5.847   5.571   1.460 -1.2714  0.0812  1.1383
15657TIP3    H268387   5.708   5.579   1.399 -0.4131  0.2086 -0.9110
15658TIP3   OH268388   1.171   6.509   3.048  0.0813  0.1780 -0.3885
15658TIP3    H168389   1.261   6.487   3.072  0.5409  1.5819 -0.7441
15658TIP3    H268390   1.118   6.436   3.081  1.0682  0.4222  1.8302
15659TIP3   OH268391   0.935   0.413  15.911  0.3493 -0.1253  0.5958
15659TIP3    H168392   0.996   0.343  15.888 -0.4999 -1.3350  1.8933
15659TIP3    H268393   0.992   0.482  15.947  1.0697 -0.7428  0.6746
15660TIP3   OH268394   1.960   4.766   6.046 -0.3151  0.6853 -0.1883
15660TIP3    H168395   1.982   4.751   6.138  0.5244  3.1005  0.0951
15660TIP3    H268396   1.969   4.861   6.035  1.1340  0.3278 -3.1396
15661TIP3   OH268397   1.828   5.442   5.299  0.2681 -0.4616  0.4452
15661TIP3    H168398   1.896   5.501   5.332  0.2301  0.0631 -0.3697
15661TIP3    H268399   1.867   5.355   5.303  1.4592 -0.0399 -1.1198
15662TIP3   OH268400   0.192   2.236   3.236  0.4968 -0.5573 -0.0512
15662TIP3    H168401   0.123   2.208   3.296  1.3486 -1.1122  0.6952
15662TIP3    H268402   0.172   2.328   3.218 -0.1369 -0.5669  0.5716
15663TIP3   OH268403   6.269   0.235  11.947  0.4804  0.3392  0.2386
15663TIP3    H168404   6.246   0.202  11.860  1.3127 -0.6717  0.3875
15663TIP3    H268405   6.328   0.169  11.983 -0.1026  0.5876  1.7157
15664TIP3   OH268406   6.264   6.678   4.917 -0.3978  0.5068  0.1417
15664TIP3    H168407   6.195   6.723   4.966 -0.9677 -0.8210  0.6365
15664TIP3    H268408   6.345   6.721   4.944 -0.8046  0.5025  1.4567
15665TIP3   OH268409   2.253   1.021   1.606 -0.1846 -0.3785 -0.1492
15665TIP3    H168410   2.180   1.076   1.577  0.3794 -0.5878 -2.1126
15665TIP3    H268411   2.258   0.951   1.541  3.5231  1.1830 -1.8905
15666TIP3   OH268412   2.381   2.133   0.053  0.3554  0.3373 -0.8736
15666TIP3    H168413   2.325   2.183  -0.007 -1.1284  0.2777  0.3992
15666TIP3    H268414   2.405   2.195   0.122 -0.7994 -0.4392  0.2671
15667TIP3   OH268415   3.729   5.393   1.585  0.4470  0.4887  0.1611
15667TIP3    H168416   3.724   5.443   1.667 -0.4668 -1.0606  1.1019
15667TIP3    H268417   3.782   5.317   1.607  2.3664  1.2684 -1.4195
15668TIP3   OH268418   3.176   0.270  10.936 -0.1581 -0.1879  0.0147
15668TIP3    H168419   3.092   0.307  10.964  0.4773  2.0988 -0.8881
15668TIP3    H268420   3.192   0.307  10.850  1.4298 -1.2022 -0.1751
15669TIP3   OH268421   4.647   4.286   1.593 -0.0232  0.0018 -0.5744
15669TIP3    H168422   4.615   4.252   1.510  1.1491 -1.4182 -0.4759
15669TIP3    H268423   4.610   4.227   1.659 -1.0517  1.1860 -0.0185
15670TIP3   OH268424   1.394   1.385   5.986  0.1104 -1.1119 -0.0154
15670TIP3    H168425   1.334   1.447   5.946  1.2341  1.5589  2.1310
15670TIP3    H268426   1.349   1.353   6.064  0.7856 -0.4297  0.6666
15671TIP3   OH268427   5.044   1.871  14.401 -0.2429 -0.3457 -0.1648
15671TIP3    H168428   5.091   1.954  14.406  1.4048 -1.2900  0.8135
15671TIP3    H268429   4.964   1.891  14.353 -1.0534  2.3444  2.0846
15672TIP3   OH268430   3.543   1.767  16.830  0.1260  0.4545  0.5405
15672TIP3    H168431   3.449   1.769  16.851  0.0239 -0.0037  0.1485
15672TIP3    H268432   3.561   1.854  16.793 -0.4448  0.1130 -0.5968
15673TIP3   OH268433   3.919   5.238  16.380 -1.2813  0.5530  0.0709
15673TIP3    H168434   3.890   5.326  16.403 -1.5226  0.1168  1.5044
15673TIP3    H268435   3.957   5.248  16.293  1.1701  2.6133  1.2709
15674TIP3   OH268436   2.878   5.421  14.861 -0.4730  0.3537 -0.1956
15674TIP3    H168437   2.856   5.453  14.949  0.0688 -0.2581  0.1754
15674TIP3    H268438   2.794   5.415  14.816 -0.8168  0.1666  0.4630
15675TIP3   OH268439   1.919   4.098   6.538  0.4155 -0.1987  0.3846
15675TIP3    H168440   1.937   4.183   6.578  0.1462  1.6246 -2.9892
15675TIP3    H268441   1.847   4.062   6.590 -0.5726  2.4018  0.9802
15676TIP3   OH268442   3.294   1.063   3.338  0.1130 -0.3212 -0.6903
15676TIP3    H168443   3.344   0.990   3.302  1.7511 -0.6731  2.0671
15676TIP3    H268444   3.235   1.023   3.402 -0.7444  0.5544 -0.8951
15677TIP3   OH268445   2.558   1.983  16.025 -0.4100  0.0649  0.3386
15677TIP3    H168446   2.583   2.072  16.048  1.3164  0.3372 -2.1387
15677TIP3    H268447   2.466   1.989  15.999 -1.4429  0.3183  3.6073
15678TIP3   OH268448   2.690   4.273  15.550  0.0273  0.4865 -0.3004
15678TIP3    H168449   2.661   4.267  15.460 -0.9056 -2.5453  0.1024
15678TIP3    H268450   2.780   4.239  15.549 -0.2000 -0.1274  0.0022
15679TIP3   OH268451   3.942   5.373  17.145 -0.5354  0.2163 -0.2628
15679TIP3    H168452   3.998   5.380  17.067 -0.7457 -0.8385 -0.5326
15679TIP3    H268453   3.876   5.441  17.134 -0.2918  0.3727 -0.7790
15680TIP3   OH268454   5.193   0.308  17.134 -0.2244 -0.3797 -0.6262
15680TIP3    H168455   5.262   0.264  17.085  1.2141  1.4587 -0.3879
15680TIP3    H268456   5.144   0.357  17.068 -1.2148 -1.5022 -0.7644
15681TIP3   OH268457   2.563   0.882  10.967  0.6449  0.5273 -0.3552
15681TIP3    H168458   2.594   0.856  10.880 -0.1076  2.3382 -1.2458
15681TIP3    H268459   2.573   0.978  10.967  1.4629  0.4938  1.9224
15682TIP3   OH268460   0.059   2.162  16.861  0.1672 -0.1964  0.6893
15682TIP3    H168461  -0.014   2.155  16.923  0.1162 -1.1475  0.5455
15682TIP3    H268462   0.096   2.248  16.878  0.9858 -0.9125  2.9807
15683TIP3   OH268463   5.414   1.557   4.838  0.3772  0.2307 -0.0569
15683TIP3    H168464   5.477   1.488   4.817 -1.6553 -1.3543 -1.3382
15683TIP3    H268465   5.428   1.575   4.931  1.2554 -1.6493  0.2171
15684TIP3   OH268466   3.807   2.842  13.282 -0.2670  0.2989 -0.5608
15684TIP3    H168467   3.764   2.848  13.367  0.2082 -0.3352 -0.2650
15684TIP3    H268468   3.738   2.817  13.222 -0.0517 -2.4335  0.1990
15685TIP3   OH268469   3.145   0.445  11.876  0.4054 -0.7898  0.4457
15685TIP3    H168470   3.065   0.478  11.918  1.2403 -0.2676  1.7098
15685TIP3    H268471   3.163   0.508  11.807  0.2415 -0.3761  0.7733
15686TIP3   OH268472   3.235   3.121  14.902  0.1143 -0.0554  0.2837
15686TIP3    H168473   3.255   3.145  14.811  1.3443  0.4830  0.6794
15686TIP3    H268474   3.224   3.204  14.947  0.1979 -0.3082  0.7756
15687TIP3   OH268475   0.827   1.944   1.536  0.1612  0.7716 -0.2031
15687TIP3    H168476   0.757   1.929   1.473  0.6523  0.9923 -0.8130
15687TIP3    H268477   0.893   1.878   1.513  0.2787  0.7526  0.1850
15688TIP3   OH268478   3.852   5.956   5.789  0.2698 -0.3907 -0.5971
15688TIP3    H168479   3.803   6.032   5.820 -0.5183 -1.0363 -0.2378
15688TIP3    H268480   3.808   5.929   5.708 -1.2704 -2.1670  0.7396
15689TIP3   OH268481   5.856   1.165  10.699 -1.1591  0.8102 -1.0446
15689TIP3    H168482   5.786   1.197  10.756 -1.0410  1.4388 -1.2422
15689TIP3    H268483   5.811   1.114  10.631 -1.5229  1.8876 -1.6425
15690TIP3   OH268484   6.741   0.076  16.199  0.2121 -0.1738 -0.1203
15690TIP3    H168485   6.814   0.103  16.254  1.4335 -0.1565 -1.6681
15690TIP3    H268486   6.747   0.133  16.122 -0.6198 -1.0534 -0.8709
15691TIP3   OH268487   0.713   1.709  12.707  0.4823 -0.4739  0.1224
15691TIP3    H168488   0.622   1.680  12.706  0.8991 -1.8472 -0.0708
15691TIP3    H268489   0.727   1.746  12.619  0.2523 -0.7307 -0.0231
15692TIP3   OH268490   1.421   0.396  13.244 -0.1809 -0.0836 -0.1349
15692TIP3    H168491   1.505   0.399  13.289  0.8721  1.1104 -2.0630
15692TIP3    H268492   1.356   0.399  13.314  1.3647 -1.0137  1.3930
15693TIP3   OH268493   6.087   4.259  15.650  1.0502 -0.9837  0.2083
15693TIP3    H168494   6.155   4.301  15.704  1.3531 -0.6924 -0.3855
15693TIP3    H268495   6.079   4.317  15.574 -0.3404 -0.6490  0.5767
15694TIP3   OH268496   2.925   0.526  14.685 -0.0513  0.2454  0.1994
15694TIP3    H168497   2.918   0.619  14.662 -0.3717 -0.3135 -2.1669
15694TIP3    H268498   2.835   0.494  14.681  0.2715 -0.5713 -0.9492
15695TIP3   OH268499   4.190   6.136   3.967 -0.4858 -0.1112  0.0350
15695TIP3    H168500   4.185   6.110   4.058 -1.2708 -2.2226 -0.5634
15695TIP3    H268501   4.108   6.105   3.929  0.6889 -1.1115 -1.8203
15696TIP3   OH268502   6.525   2.013   0.045  0.2990  0.0844  0.2565
15696TIP3    H168503   6.619   1.996   0.049  0.6136  1.2369 -1.4128
15696TIP3    H268504   6.485   1.931   0.072  1.7724 -1.3742 -1.6808
15697TIP3   OH268505   4.967   2.896  13.053  0.3122  0.3705  0.7574
15697TIP3    H168506   4.921   2.844  12.987 -1.1067  2.1543  0.2623
15697TIP3    H268507   5.041   2.935  13.007  1.0764 -0.7651  1.0009
15698TIP3   OH268508   1.730   3.735  13.864 -0.1128  0.1726  0.0516
15698TIP3    H168509   1.814   3.726  13.909  0.1369 -1.0910 -0.6300
15698TIP3    H268510   1.745   3.801  13.797  0.3970 -0.1498 -0.1619
15699TIP3   OH268511   4.750   0.997   3.199  0.0795 -0.0954  0.1580
15699TIP3    H168512   4.713   0.909   3.190  0.6820 -0.3398 -0.0189
15699TIP3    H268513   4.696   1.039   3.265 -1.5660  0.1315 -1.2435
15700TIP3   OH268514   1.113   2.939  11.008 -0.3663 -0.3121  0.4872
15700TIP3    H168515   1.196   2.986  11.016 -0.8071  0.7844 -0.9551
15700TIP3    H268516   1.134   2.849  11.035  1.1586  0.0561  0.6376
15701TIP3   OH268517   6.095   4.954  13.210  0.1777  0.2724  0.3685
15701TIP3    H168518   6.139   5.022  13.260  0.2159  0.9838 -0.5984
15701TIP3    H268519   6.090   4.879  13.269  0.7728  0.8844  1.2055
15702TIP3   OH268520   3.620   4.937  13.287 -0.2299  0.2343  0.0515
15702TIP3    H168521   3.626   5.023  13.329  1.3485  0.3056 -0.2347
15702TIP3    H268522   3.711   4.910  13.276 -0.6041 -2.8115  2.7609
15703TIP3   OH268523   6.640   0.296  14.863 -0.3680 -0.0346  0.5301
15703TIP3    H168524   6.589   0.372  14.834  0.5213 -0.8303 -3.7766
15703TIP3    H268525   6.575   0.226  14.872 -0.6683  0.1642 -0.0204
15704TIP3   OH268526   5.122   1.818  16.053  0.0211 -0.1640 -1.3745
15704TIP3    H168527   5.077   1.770  15.984 -0.6726  0.2554 -1.2169
15704TIP3    H268528   5.130   1.907  16.019 -0.2458  0.0216 -0.9478
15705TIP3   OH268529   5.565   0.917   6.639  0.6085  0.4922  0.8379
15705TIP3    H168530   5.555   1.010   6.659  1.4279  0.6486  0.5626
15705TIP3    H268531   5.626   0.915   6.565  0.6769 -0.2736  0.9092
15706TIP3   OH268532   0.742   5.278  14.418 -0.5198 -0.7418 -0.5222
15706TIP3    H168533   0.666   5.320  14.458 -0.4929 -2.5007  1.6003
15706TIP3    H268534   0.711   5.250  14.332 -1.3658  1.0365 -0.8452
15707TIP3   OH268535   2.274   1.432  13.216 -0.3742  0.0761  0.3355
15707TIP3    H168536   2.261   1.527  13.224  0.7206  0.4853 -1.9861
15707TIP3    H268537   2.239   1.410  13.130 -0.9185 -1.7390  0.9691
15708TIP3   OH268538   4.736   2.234   1.461 -0.5077 -0.0576 -0.2140
15708TIP3    H168539   4.808   2.177   1.437 -0.8107 -1.6210  2.2496
15708TIP3    H268540   4.681   2.181   1.519 -1.0648  2.5415  1.8312
15709TIP3   OH268541   2.968   1.923   0.998  0.5421 -0.2981 -0.1694
15709TIP3    H168542   3.040   1.983   1.017 -0.6487  1.0839  0.1788
15709TIP3    H268543   2.958   1.927   0.903 -0.5598  1.3741 -0.0303
15710TIP3   OH268544   3.715   5.029  15.939  0.6218 -0.0764  0.4103
15710TIP3    H168545   3.779   4.987  15.997 -0.6930 -2.3236  0.3444
15710TIP3    H268546   3.731   4.989  15.854 -1.3730 -1.3803  0.5831
15711TIP3   OH268547   3.009   2.592   0.639 -0.3888 -0.8439  0.4932
15711TIP3    H168548   2.985   2.631   0.723 -0.2627 -0.4859  0.3650
15711TIP3    H268549   3.083   2.536   0.659 -0.3766 -0.7806  0.6284
15712TIP3   OH268550   0.890   1.123  13.874 -0.2573  0.1743  0.2824
15712TIP3    H168551   0.811   1.080  13.841 -0.0990 -0.3278  0.5657
15712TIP3    H268552   0.874   1.137  13.967  0.0136  0.0183  0.3539
15713TIP3   OH268553   3.815   0.205   3.983  0.0019 -0.3280  0.2689
15713TIP3    H168554   3.791   0.195   4.075  0.2615  0.5246  0.4402
15713TIP3    H268555   3.739   0.174   3.934 -1.1246  1.4676  0.7965
15714TIP3   OH268556   3.791   6.604  14.876  1.3183 -0.4699  0.2477
15714TIP3    H168557   3.758   6.573  14.960  2.1305  0.9638  1.1219
15714TIP3    H268558   3.880   6.569  14.870  1.1567 -0.8212 -0.1637
15715TIP3   OH268559   1.999   0.058   4.636 -0.4384  0.0902 -0.0539
15715TIP3    H168560   2.042  -0.013   4.685  0.0011  0.7338  0.5080
15715TIP3    H268561   1.967   0.117   4.703 -1.6096 -0.0141 -0.4907
15716TIP3   OH268562   6.107   2.118  13.561  0.0519  0.0774 -0.1021
15716TIP3    H168563   6.165   2.101  13.487  1.7172 -0.4305  1.2645
15716TIP3    H268564   6.079   2.031  13.589 -0.8821  0.2883 -0.3252
15717TIP3   OH268565   2.267   2.539  13.985 -0.2504 -0.5885  0.3664
15717TIP3    H168566   2.223   2.561  14.067 -1.6810  0.2722 -0.5721
15717TIP3    H268567   2.256   2.618  13.931 -0.2906 -1.5160 -1.0238
15718TIP3   OH268568   5.483   6.487   4.369  0.0478 -0.1681 -0.4924
15718TIP3    H168569   5.542   6.443   4.429 -1.2749  0.0436  1.0102
15718TIP3    H268570   5.459   6.569   4.413  0.2936  0.7771 -2.0151
15719TIP3   OH268571   0.165   6.590  15.966 -0.1857 -0.8494 -0.1111
15719TIP3    H168572   0.240   6.573  16.023  0.2334 -0.2585 -0.4660
15719TIP3    H268573   0.191   6.667  15.916 -2.1426  1.1117  1.7165
15720TIP3   OH268574   2.289   0.553  12.652  0.0826  0.0779  0.1983
15720TIP3    H168575   2.200   0.547  12.617  0.8764  1.7613 -2.4617
15720TIP3    H268576   2.341   0.585  12.578  3.1443 -1.9176  1.3260
15721TIP3   OH268577   5.808   4.051   3.458  0.5638 -0.2701 -0.4434
15721TIP3    H168578   5.848   4.132   3.426  0.9255 -0.1492  0.2794
15721TIP3    H268579   5.726   4.044   3.410  1.0150 -0.0310 -1.2761
15722TIP3   OH268580   2.975   0.505   3.627  0.4596 -0.3329  0.5276
15722TIP3    H168581   3.068   0.522   3.612  0.2388  0.6010  0.1366
15722TIP3    H268582   2.951   0.439   3.562 -0.1542  2.6248 -2.4673
15723TIP3   OH268583   6.320   1.331  12.466  0.2720  0.4970  0.6833
15723TIP3    H168584   6.362   1.396  12.409 -0.2148 -0.6737 -1.0785
15723TIP3    H268585   6.365   1.249  12.447 -1.4485 -0.3851  0.2317
15724TIP3   OH268586   0.046   1.443   6.089  0.3475 -0.2964 -0.0434
15724TIP3    H168587   0.073   1.440   6.181  1.0333 -0.6039 -0.2412
15724TIP3    H268588   0.000   1.360   6.075 -1.2988  0.4918  0.4531
15725TIP3   OH268589   4.349   5.561   1.142 -0.3672 -0.1091 -0.7794
15725TIP3    H168590   4.345   5.652   1.172 -2.1010  0.1319 -1.5837
15725TIP3    H268591   4.377   5.568   1.051 -1.2085 -0.3052 -1.0601
15726TIP3   OH268592   6.386   5.344  11.850  0.4352  0.2641  0.3821
15726TIP3    H168593   6.395   5.438  11.838  0.5058  0.1014 -0.9777
15726TIP3    H268594   6.298   5.323  11.819  1.7385 -0.6268 -3.2608
15727TIP3   OH268595   1.783   2.506  12.338  0.1893  0.3806  0.2629
15727TIP3    H168596   1.790   2.422  12.384 -1.1871 -0.2157 -0.5549
15727TIP3    H268597   1.813   2.487  12.249 -0.2748  0.7128  0.0320
15728TIP3   OH268598   6.746   4.431  14.155 -0.0016 -0.0088  0.7358
15728TIP3    H168599   6.755   4.475  14.240  0.9495  0.7134  0.2866
15728TIP3    H268600   6.834   4.435  14.117  0.5050 -3.5304  1.2224
15729TIP3   OH268601   5.703   1.457   2.220 -0.3035 -0.2583  0.4524
15729TIP3    H168602   5.740   1.470   2.133 -0.2446  1.9867  0.7436
15729TIP3    H268603   5.775   1.422   2.272 -0.0540 -0.6629 -0.1549
15730TIP3   OH268604   5.351   5.880  15.284 -0.1051  0.4579  0.3100
15730TIP3    H168605   5.356   5.881  15.189  1.0687 -1.4980  0.3130
15730TIP3    H268606   5.441   5.894  15.314 -0.0466 -1.2612  1.0614
15731TIP3   OH268607   2.117   5.736   1.588 -0.1566  0.3930 -0.0056
15731TIP3    H168608   2.180   5.702   1.652 -0.0347  2.1738  0.8895
15731TIP3    H268609   2.135   5.830   1.585 -1.7508  0.6972 -0.8993
15732TIP3   OH268610   4.471   1.374  13.735  0.3390 -0.0256  0.2076
15732TIP3    H168611   4.556   1.406  13.706  1.0386 -1.5240  0.4947
15732TIP3    H268612   4.408   1.418  13.678  1.2261  1.6773  0.4766
15733TIP3   OH268613   3.009   0.043   0.662 -0.0301  0.2476  0.2777
15733TIP3    H168614   3.030   0.130   0.627 -0.1295 -0.5715 -1.9688
15733TIP3    H268615   3.056   0.039   0.746  2.1155  1.5038 -0.7646
15734TIP3   OH268616   3.470   4.008   2.700  0.2853 -0.3296  0.4171
15734TIP3    H168617   3.447   3.977   2.612 -0.6110  1.2031  0.0798
15734TIP3    H268618   3.531   3.942   2.733  1.3531 -0.4941 -1.6985
15735TIP3   OH268619   2.117   5.224  12.098  0.1092 -1.0793 -0.3997
15735TIP3    H168620   2.064   5.211  12.020  0.2503 -1.3645 -0.4500
15735TIP3    H268621   2.205   5.193  12.073  1.6768  3.7087 -1.9410
15736TIP3   OH268622   1.056   6.351  15.464  0.0769 -0.1277  0.0614
15736TIP3    H168623   0.971   6.376  15.427  0.4592 -0.8823 -1.4096
15736TIP3    H268624   1.038   6.269  15.510 -0.0923 -0.0568  0.1209
15737TIP3   OH268625   0.713   0.527  13.377 -0.1742  0.0223  0.2021
15737TIP3    H168626   0.804   0.556  13.371  0.2584 -0.6621  2.5219
15737TIP3    H268627   0.717   0.432  13.362 -0.0828 -0.4236  2.5458
15738TIP3   OH268628   1.171   0.206   3.725  0.9254  0.2279 -0.1911
15738TIP3    H168629   1.217   0.128   3.757  0.5834  0.1196  0.0389
15738TIP3    H268630   1.241   0.263   3.693  1.2785  0.3187  0.6967
15739TIP3   OH268631   0.804   1.613   1.801 -0.9279  0.1220  0.4650
15739TIP3    H168632   0.823   1.675   1.872 -2.1923  0.5464  0.4690
15739TIP3    H268633   0.855   1.644   1.727 -0.9825  0.7510  0.6826
15740TIP3   OH268634   2.892   4.897   5.729 -0.1038  1.0197 -0.0428
15740TIP3    H168635   2.965   4.941   5.773  0.1598  0.0579  0.5229
15740TIP3    H268636   2.916   4.804   5.731 -2.2342  0.4371  1.9149
15741TIP3   OH268637   5.058   0.671   5.320 -0.0409 -0.1525 -0.4399
15741TIP3    H168638   5.126   0.687   5.385  0.4214 -0.5381 -0.8220
15741TIP3    H268639   5.096   0.606   5.261 -1.9326 -3.0188  1.2345
15742TIP3   OH268640   5.732   0.084   4.504  0.3735 -0.0179  0.2297
15742TIP3    H168641   5.695   0.143   4.570  3.2563  1.8594  0.3520
15742TIP3    H268642   5.794   0.029   4.553 -0.3417 -1.3918 -0.3383
15743TIP3   OH268643   2.686   3.481   6.912 -0.7290 -0.5674 -0.5675
15743TIP3    H168644   2.719   3.394   6.890 -0.7932 -0.4480 -1.1351
15743TIP3    H268645   2.716   3.538   6.841  0.0986  0.0632  0.2578
15744TIP3   OH268646   3.072   6.448   1.036  0.4951 -0.0886  0.6522
15744TIP3    H168647   3.124   6.521   1.001 -2.7229  1.5145 -1.1901
15744TIP3    H268648   2.989   6.488   1.061 -0.5290 -2.7860  1.9199
15745TIP3   OH268649   2.567   4.372  14.534  0.6547  0.4873 -0.4789
15745TIP3    H168650   2.612   4.392  14.616 -0.1268 -0.1404  0.1230
15745TIP3    H268651   2.483   4.416  14.541 -0.1608 -1.0464 -0.1145
15746TIP3   OH268652   2.838   3.787  10.857  0.4987 -0.0062 -0.1213
15746TIP3    H168653   2.743   3.794  10.844  0.4369  1.0470  0.7060
15746TIP3    H268654   2.850   3.705  10.904  0.4221 -2.1599 -3.5103
15747TIP3   OH268655   3.070   6.487   5.089  0.9662  0.4684  0.0100
15747TIP3    H168656   2.982   6.516   5.068  0.8681 -0.0380 -0.2730
15747TIP3    H268657   3.066   6.391   5.086  1.2782  0.4113  0.9846
15748TIP3   OH268658   6.207   5.712   1.317  0.1810 -0.1440  0.4488
15748TIP3    H168659   6.300   5.726   1.337  0.5179  0.4592 -1.3539
15748TIP3    H268660   6.206   5.690   1.224 -1.6475  2.4171 -0.2602
15749TIP3   OH268661   6.175   3.015   3.781  0.5575  0.1470 -0.8099
15749TIP3    H168662   6.150   2.963   3.858 -0.9524 -0.9672 -1.9811
15749TIP3    H268663   6.155   3.105   3.807  2.2308  0.1038  0.8794
15750TIP3   OH268664   0.372   2.101   3.062  0.4614  1.1493  0.0359
15750TIP3    H168665   0.352   2.120   2.970  1.4699 -0.4221 -0.5438
15750TIP3    H268666   0.296   2.134   3.110 -0.5694  1.0598 -1.4612
15751TIP3   OH268667   5.417   3.829   1.687  0.3994 -0.0409  0.8574
15751TIP3    H168668   5.504   3.868   1.699 -0.2530  1.7402  0.0268
15751TIP3    H268669   5.407   3.823   1.592 -0.3858 -0.2510  0.9462
15752TIP3   OH268670   6.631   2.934  12.580 -0.0532  0.0741 -0.2397
15752TIP3    H168671   6.538   2.936  12.557  0.0327 -1.2257 -0.8017
15752TIP3    H268672   6.663   2.851  12.543  0.9867 -0.2288  1.2466
15753TIP3   OH268673   3.533   4.552  12.223 -0.1027  0.5565 -0.4593
15753TIP3    H168674   3.548   4.646  12.214  0.5665  0.5276  0.2578
15753TIP3    H268675   3.457   4.545  12.282  2.3545  0.6670  3.0171
15754TIP3   OH268676   0.916   4.053   5.875  0.2698 -0.2362 -0.0463
15754TIP3    H168677   0.967   4.020   5.950  0.7488  0.0785 -0.2240
15754TIP3    H268678   0.931   3.988   5.806 -1.7192 -1.5524  0.6842
15755TIP3   OH268679   2.642   4.661  15.398  0.0133 -0.1775 -0.2804
15755TIP3    H168680   2.719   4.660  15.343  0.2353  1.2830 -0.0451
15755TIP3    H268681   2.571   4.628  15.342  0.1672  1.5335 -1.5723
15756TIP3   OH268682   0.808   0.621   5.230 -0.2877 -0.3168 -0.1306
15756TIP3    H168683   0.754   0.601   5.154 -0.6636 -1.4114  0.4005
15756TIP3    H268684   0.880   0.558   5.226  0.5580  0.6333 -0.4142
15757TIP3   OH268685   0.268   4.998   2.150  0.1697  0.3453  0.7491
15757TIP3    H168686   0.263   5.091   2.167  0.9240  0.4340  0.5433
15757TIP3    H268687   0.185   4.963   2.180  0.3405  0.9026  1.9336
15758TIP3   OH268688   1.427   4.238  14.250 -0.7194  0.2791  0.0866
15758TIP3    H168689   1.457   4.190  14.327 -2.3290 -1.9521 -0.5912
15758TIP3    H268690   1.505   4.246  14.195 -0.4608 -2.0085  0.0418
15759TIP3   OH268691   2.940   5.739   3.846  0.4317 -0.2797 -0.1017
15759TIP3    H168692   2.858   5.695   3.868  0.5788 -2.1680 -2.7883
15759TIP3    H268693   3.007   5.685   3.889  0.3536  1.0942  1.8489
15760TIP3   OH268694   5.493   1.394  16.862 -0.3941  0.3736 -0.5057
15760TIP3    H168695   5.527   1.315  16.818  1.5371  0.2270  1.0876
15760TIP3    H268696   5.433   1.360  16.928 -0.3377  0.3064 -0.4879
15761TIP3   OH268697   4.696   4.894  13.958 -0.0800  0.4390 -0.2463
15761TIP3    H168698   4.656   4.966  13.907  0.6619  0.8231 -0.2952
15761TIP3    H268699   4.722   4.935  14.040  0.6011  0.2856 -0.3865
15762TIP3   OH268700   3.154   2.754   3.863  0.3231 -0.3156 -0.3661
15762TIP3    H168701   3.088   2.820   3.885  0.3954 -0.0280 -0.9993
15762TIP3    H268702   3.224   2.770   3.926 -0.9400 -1.8028  1.5410
15763TIP3   OH268703   5.683   6.068  17.162 -0.0386 -0.0209 -0.0706
15763TIP3    H168704   5.742   6.139  17.187  0.3841 -0.4565  0.1951
15763TIP3    H268705   5.653   6.031  17.246 -3.5306  2.4357 -0.0516
15764TIP3   OH268706   1.669   6.060  11.205  0.6377  0.2359  0.2292
15764TIP3    H168707   1.603   6.086  11.140  1.2783  1.7243  0.1262
15764TIP3    H268708   1.698   5.974  11.177 -0.5836 -0.0368 -0.2633
15765TIP3   OH268709   0.183   2.379   3.580 -0.5108  0.6735  0.1106
15765TIP3    H168710   0.107   2.401   3.526 -0.9650  0.1779  0.5469
15765TIP3    H268711   0.190   2.284   3.573  0.8582  0.8198 -0.9840
15766TIP3   OH268712   0.458   3.817   2.554  0.3479 -0.9920  0.2531
15766TIP3    H168713   0.451   3.907   2.586 -0.8945 -0.0556 -2.3951
15766TIP3    H268714   0.411   3.765   2.619 -1.0124  0.6116  0.6143
15767TIP3   OH268715   4.047   1.605   5.656  0.3610  0.2157 -0.3039
15767TIP3    H168716   4.055   1.544   5.729 -0.8244 -0.0783 -0.3986
15767TIP3    H268717   4.088   1.559   5.582  1.0508  0.2821  0.0255
15768TIP3   OH268718   4.002   5.809  10.641 -1.0836 -0.4087 -0.1254
15768TIP3    H168719   3.933   5.867  10.608 -0.5993  0.5584  0.4925
15768TIP3    H268720   4.081   5.863  10.638 -1.1978  0.2927  3.8176
15769TIP3   OH268721   5.155   5.437   0.621 -0.5573  0.5219 -0.0996
15769TIP3    H168722   5.157   5.475   0.533 -1.0655  0.1057 -0.2987
15769TIP3    H268723   5.223   5.484   0.669 -0.4021  0.8853 -0.6612
15770TIP3   OH268724   3.387   1.638  10.604 -0.0513  0.0833 -0.1094
15770TIP3    H168725   3.368   1.682  10.687  0.0308 -0.7748  0.3743
15770TIP3    H268726   3.476   1.605  10.614  0.0401  0.1568 -0.6321
15771TIP3   OH268727   5.769   4.676   1.112 -0.4255  0.4301 -0.3434
15771TIP3    H168728   5.720   4.623   1.174  0.0799  1.7150  1.2272
15771TIP3    H268729   5.711   4.751   1.094  0.1483  0.9789  0.0280
15772TIP3   OH268730   4.760   3.589   4.457 -0.2227 -0.6092 -0.4216
15772TIP3    H168731   4.722   3.649   4.392 -0.0418 -2.6614 -2.5310
15772TIP3    H268732   4.834   3.638   4.493 -0.8214  0.8988 -1.1324
15773TIP3   OH268733   4.378   6.277   2.908 -0.4020 -0.2465 -0.5341
15773TIP3    H168734   4.319   6.254   2.980  0.6090 -3.1420 -0.5318
15773TIP3    H268735   4.351   6.219   2.836  0.6217  0.4045 -1.4670
15774TIP3   OH268736   0.051   0.160  16.817  0.1599 -0.1037  0.0261
15774TIP3    H168737   0.131   0.163  16.869  0.5145 -0.9617 -0.4475
15774TIP3    H268738  -0.012   0.212  16.867  1.3471  1.6703 -0.2154
15775TIP3   OH268739   0.162   6.496  12.352  0.4293 -0.4574 -0.8715
15775TIP3    H168740   0.117   6.465  12.431 -1.2607 -0.9882 -1.9766
15775TIP3    H268741   0.153   6.591  12.356  2.4760 -0.2564  0.7260
15776TIP3   OH268742   0.943   0.670  12.575  0.3347 -0.2345  0.1598
15776TIP3    H168743   0.874   0.619  12.618  0.3706  0.0608  0.5652
15776TIP3    H268744   0.902   0.753  12.553  0.0960 -0.6411 -1.0578
15777TIP3   OH268745   0.668   6.445   3.358 -0.3170 -0.8391  0.0338
15777TIP3    H168746   0.641   6.355   3.343 -1.0065 -1.2233  2.9532
15777TIP3    H268747   0.708   6.444   3.445 -0.3995  1.6711  0.1759
15778TIP3   OH268748   5.019   6.121   4.794 -0.1533 -0.4315 -0.1581
15778TIP3    H168749   5.089   6.125   4.859 -1.4480  0.2636  1.2557
15778TIP3    H268750   4.991   6.029   4.795  0.8506 -0.7624 -0.8926
15779TIP3   OH268751   1.136   4.700   1.419  0.3083 -0.3095  0.2815
15779TIP3    H168752   1.107   4.733   1.334  2.7025  2.1572  0.2568
15779TIP3    H268753   1.065   4.723   1.479 -0.4492 -0.0304 -0.6937
15780TIP3   OH268754   3.212   1.558  13.440 -0.3839 -0.4288  0.6636
15780TIP3    H168755   3.295   1.606  13.436 -1.0904  0.9053  1.3322
15780TIP3    H268756   3.211   1.506  13.361 -0.0871  1.5479 -0.7162
15781TIP3   OH268757   3.896   0.195   3.675 -0.3088 -0.4198  0.0019
15781TIP3    H168758   3.922   0.259   3.741 -1.5272 -1.1666  1.2584
15781TIP3    H268759   3.894   0.244   3.593  0.6262  0.6740  0.6133
15782TIP3   OH268760   0.577   4.653  16.120 -0.1426 -0.1517  0.2957
15782TIP3    H168761   0.624   4.571  16.137 -1.4907 -1.2688 -1.0566
15782TIP3    H268762   0.512   4.658  16.190 -0.4129 -0.5397  0.0780
15783TIP3   OH268763   4.406   5.504  14.269 -0.3328  0.4442 -0.2624
15783TIP3    H168764   4.370   5.586  14.233  0.7867  1.5668  1.0441
15783TIP3    H268765   4.415   5.522  14.362  1.3370 -0.6502 -0.1899
15784TIP3   OH268766   4.184   5.040  11.346  1.0293 -0.6855  0.7584
15784TIP3    H168767   4.166   4.947  11.334  1.2822 -0.6177 -0.2138
15784TIP3    H268768   4.145   5.082  11.270  1.0387 -0.0040  1.1196
15785TIP3   OH268769   2.680   5.876   5.282 -0.1052  0.1470 -0.3279
15785TIP3    H168770   2.731   5.904   5.206  0.9696 -0.8059  0.0132
15785TIP3    H268771   2.707   5.935   5.352  0.6794 -0.4694 -0.1028
15786TIP3   OH268772   1.794   6.312  11.270 -0.2077 -0.0493 -0.2811
15786TIP3    H168773   1.801   6.370  11.194 -0.7196 -0.3919 -0.5976
15786TIP3    H268774   1.738   6.240  11.240 -1.7103  0.5735  0.8639
15787TIP3   OH268775   2.272   3.343   0.852  0.1387  0.1623 -0.1306
15787TIP3    H168776   2.222   3.416   0.890 -0.5605 -0.2123 -0.3025
15787TIP3    H268777   2.264   3.273   0.916  1.4056  0.4476  0.3618
15788TIP3   OH268778   0.705   5.239  14.102  0.5508  0.0918  0.0747
15788TIP3    H168779   0.671   5.165  14.052 -0.1541 -0.6913  1.6320
15788TIP3    H268780   0.795   5.214  14.125  0.7268  0.2667 -0.4009
15789TIP3   OH268781   6.754   5.189  13.217  0.0666  0.6216  0.0864
15789TIP3    H168782   6.790   5.277  13.228  1.5925  0.3621 -2.0653
15789TIP3    H268783   6.778   5.143  13.297  2.1826  1.2933 -0.0925
15790TIP3   OH268784   4.857   5.992   4.159 -0.4897 -0.2965  0.1666
15790TIP3    H168785   4.770   5.969   4.125 -1.2365  1.5307  0.6926
15790TIP3    H268786   4.914   5.921   4.130 -1.8172 -0.6636 -1.7372
15791TIP3   OH268787   2.290   1.446  15.647 -0.2106  0.1496  0.7620
15791TIP3    H168788   2.226   1.375  15.655  1.3518 -1.2338  1.4961
15791TIP3    H268789   2.352   1.415  15.581 -0.4126  1.6189 -0.1762
15792TIP3   OH268790   4.204   5.420   1.965  0.7922 -0.3146  0.3937
15792TIP3    H168791   4.205   5.390   1.874  0.3372 -0.9601  0.5909
15792TIP3    H268792   4.118   5.392   1.998  0.0892  1.7287  0.4215
15793TIP3   OH268793   5.760   2.556   3.028 -0.2872  0.3985  0.7791
15793TIP3    H168794   5.811   2.495   3.082 -0.3130  0.2892  0.6798
15793TIP3    H268795   5.689   2.503   2.991  0.7174  0.0662 -0.7597
15794TIP3   OH268796   5.375   5.657   5.394 -0.3462  0.5568  0.2422
15794TIP3    H168797   5.395   5.749   5.412  1.9530  0.2242 -0.2709
15794TIP3    H268798   5.449   5.627   5.341 -0.4210 -1.8957  1.4234
15795TIP3   OH268799   3.273   2.480   0.366  0.1833 -0.0442 -0.5160
15795TIP3    H168800   3.250   2.568   0.395  0.1287 -0.1808 -0.1402
15795TIP3    H268801   3.223   2.467   0.285 -0.2478  0.0550 -0.2665
15796TIP3   OH268802   6.360   1.322  15.684  0.2564  0.5020  0.8494
15796TIP3    H168803   6.329   1.362  15.766  1.0921  1.0759  0.9019
15796TIP3    H268804   6.453   1.345  15.680  0.0984  1.0014 -0.5644
15797TIP3   OH268805   2.856   3.900   3.874  0.0192 -0.4249  0.4276
15797TIP3    H168806   2.781   3.840   3.881  0.6194 -1.1335  0.9288
15797TIP3    H268807   2.822   3.974   3.824 -0.7568 -1.1658 -0.1827
15798TIP3   OH268808   1.562   5.322   5.903 -0.8239  0.1441  0.2348
15798TIP3    H168809   1.529   5.232   5.905  1.7227 -1.0793 -3.2928
15798TIP3    H268810   1.657   5.313   5.914 -0.7332  2.8117  2.9587
15799TIP3   OH268811   5.213   0.293   2.980  0.4726 -0.6909 -0.3992
15799TIP3    H168812   5.279   0.303   3.048  0.1248  2.6408 -0.4082
15799TIP3    H268813   5.247   0.223   2.924  2.5241 -1.0470  1.1663
15800TIP3   OH268814   4.382   2.819  17.305  0.7115  0.1324  0.2812
15800TIP3    H168815   4.449   2.760  17.339 -1.0274 -0.6887  2.6158
15800TIP3    H268816   4.346   2.774  17.229  0.2176 -1.3187  1.3308
15801TIP3   OH268817   4.203   4.670   1.221 -0.1103 -0.9070 -0.1347
15801TIP3    H168818   4.193   4.694   1.129  0.8382  1.2526  0.2695
15801TIP3    H268819   4.298   4.665   1.235 -0.2122 -0.3184  0.9098
15802TIP3   OH268820   0.776   1.196   4.262  0.1044 -0.1160  0.4890
15802TIP3    H168821   0.723   1.226   4.189  1.1736 -1.0076 -0.7070
15802TIP3    H268822   0.748   1.250   4.336 -1.8527 -0.0093 -0.2715
15803TIP3   OH268823   5.015   3.086   5.368  0.5857  0.1786 -0.0753
15803TIP3    H168824   4.938   3.102   5.421  1.0102  0.6542  0.4068
15803TIP3    H268825   5.089   3.098   5.428  1.0253 -0.5949 -0.4427
15804TIP3   OH268826   4.506   3.566  17.123  0.6441  0.1262  0.4505
15804TIP3    H168827   4.445   3.635  17.147 -2.7501 -2.0501 -1.2358
15804TIP3    H268828   4.537   3.531  17.206 -1.4965  0.4688  1.4529
15805TIP3   OH268829   0.878   2.906   2.376  0.2044  0.9690  0.3998
15805TIP3    H168830   0.902   2.961   2.451 -1.2152  0.8895  0.9525
15805TIP3    H268831   0.786   2.885   2.391  0.5896 -1.2170 -0.0045
15806TIP3   OH268832   0.601   0.294  15.573  0.5983 -0.4346 -0.3098
15806TIP3    H168833   0.507   0.278  15.569  0.6936 -0.7833 -1.7946
15806TIP3    H268834   0.629   0.295  15.482  1.8923  0.5910  0.0649
15807TIP3   OH268835   3.073   4.120   5.880  1.2818  0.3731  0.4702
15807TIP3    H168836   3.096   4.201   5.835 -2.1744  1.4670  0.3803
15807TIP3    H268837   3.070   4.054   5.810  0.7364  0.9802 -0.0987
15808TIP3   OH268838   5.370   4.249  15.103 -0.3659 -0.3687  0.1991
15808TIP3    H168839   5.359   4.199  15.184 -0.0242  0.9863  1.1152
15808TIP3    H268840   5.285   4.242  15.059 -0.4879 -1.2906  0.5587
15809TIP3   OH268841   1.374   1.509   1.744  0.5416 -0.4431 -0.3330
15809TIP3    H168842   1.319   1.467   1.678 -0.6187 -1.5561  1.2493
15809TIP3    H268843   1.312   1.536   1.812  1.6882  0.6594  0.3170
15810TIP3   OH268844   5.919   1.327   6.341 -0.4780  0.3368  0.1868
15810TIP3    H168845   6.003   1.334   6.295 -1.1892 -0.6139 -1.3217
15810TIP3    H268846   5.913   1.235   6.367 -0.8391  0.5096  0.7460
15811TIP3   OH268847   6.689   0.827   2.475  0.4900  0.5468 -0.6117
15811TIP3    H168848   6.692   0.799   2.384 -0.2173 -0.8492 -0.2304
15811TIP3    H268849   6.641   0.758   2.520  1.2926  0.9439  0.9245
15812TIP3   OH268850   3.570   6.014  11.568 -0.1087  0.2902 -0.1674
15812TIP3    H168851   3.520   6.036  11.489 -0.5718  1.6939  0.4914
15812TIP3    H268852   3.575   6.096  11.617  0.7735 -0.3999  0.9392
15813TIP3   OH268853   3.804   6.473  17.340 -0.0593  0.3031 -0.1126
15813TIP3    H168854   3.876   6.433  17.389 -1.3015 -0.1516  1.4005
15813TIP3    H268855   3.803   6.564  17.370 -0.0122  0.3482 -0.2489
15814TIP3   OH268856   1.880   1.089  17.000 -0.1509  0.0718 -0.1751
15814TIP3    H168857   1.810   1.155  16.998  0.3774  0.9153  3.1058
15814TIP3    H268858   1.839   1.011  17.035  0.1528  0.0241  0.0830
15815TIP3   OH268859   0.244   5.361   6.401  0.1043 -0.0671 -0.2582
15815TIP3    H168860   0.210   5.392   6.317 -1.2014 -0.1497  0.2189
15815TIP3    H268861   0.196   5.411   6.466  0.5758 -0.5277  0.4611
15816TIP3   OH268862   1.670   6.562  12.274  0.1457  0.4191  0.4228
15816TIP3    H168863   1.667   6.606  12.359  2.5737 -0.0476  0.8320
15816TIP3    H268864   1.645   6.471  12.293  0.2100  0.4266  0.5437
15817TIP3   OH268865   4.297   5.625  13.591 -0.1262 -0.3556  0.0909
15817TIP3    H168866   4.341   5.616  13.507 -0.9246  3.7407 -1.0231
15817TIP3    H268867   4.206   5.644  13.569 -0.6414 -0.4109  1.9416
15818TIP3   OH268868   3.507   6.287  16.003  0.3531 -0.0583  0.3829
15818TIP3    H168869   3.581   6.306  15.945  0.3596  2.7305  1.1222
15818TIP3    H268870   3.512   6.355  16.071 -3.9456  1.5631 -0.5791
15819TIP3   OH268871   5.470   6.671   3.383  0.0155 -0.1338  0.1773
15819TIP3    H168872   5.397   6.676   3.322 -0.2978  0.6957  0.5967
15819TIP3    H268873   5.442   6.608   3.449  0.0811 -0.5372 -0.1812
15820TIP3   OH268874   2.897   6.271   1.795 -0.0717 -0.5199 -0.0278
15820TIP3    H168875   2.950   6.193   1.780  0.5086 -0.3333  0.9314
15820TIP3    H268876   2.959   6.336   1.828 -0.6342  0.1903 -0.3320
15821TIP3   OH268877   0.231   4.840  10.658  0.7118  0.3644 -0.4687
15821TIP3    H168878   0.294   4.881  10.599  1.7319  0.8481  0.9035
15821TIP3    H268879   0.278   4.833  10.741 -0.1448 -1.6954 -0.1052
15822TIP3   OH268880   2.388   0.594   3.074  0.4331  0.1596  0.3218
15822TIP3    H168881   2.469   0.607   3.123 -1.3533 -1.4526  4.1997
15822TIP3    H268882   2.328   0.555   3.138 -2.9002 -0.3188 -2.7676
15823TIP3   OH268883   0.140   4.306   1.799  0.6568  0.6157 -0.0833
15823TIP3    H168884   0.114   4.215   1.793 -0.0671  0.7731  0.4782
15823TIP3    H268885   0.128   4.328   1.892 -0.3246  1.6052 -0.4217
15824TIP3   OH268886   1.596   6.748  13.797 -0.6277 -0.0940  0.1850
15824TIP3    H168887   1.541   6.692  13.851 -1.4993 -0.5205 -1.0883
15824TIP3    H268888   1.535   6.812  13.759  0.0755  0.6328  0.2572
15825TIP3   OH268889   2.798   1.340  12.860  0.3194 -0.5272 -0.5279
15825TIP3    H168890   2.751   1.349  12.943 -1.6882  1.3763 -1.7448
15825TIP3    H268891   2.864   1.409  12.862  0.2743 -0.4852 -0.4841
15826TIP3   OH268892   1.380   2.487   0.491 -0.3339 -0.1676  0.0888
15826TIP3    H168893   1.443   2.521   0.427  1.5455 -1.1641  1.3399
15826TIP3    H268894   1.415   2.513   0.576 -0.0113 -3.1595  0.9936
15827TIP3   OH268895   2.368   6.174   2.933 -0.1909  0.2773 -0.1340
15827TIP3    H168896   2.273   6.177   2.945 -0.3583 -1.5371 -0.7729
15827TIP3    H268897   2.382   6.221   2.850 -0.6834 -0.4297 -0.6376
15828TIP3   OH268898   3.052   6.653  14.756  0.0245 -0.3560  0.3580
15828TIP3    H168899   3.139   6.688  14.778 -0.3980  0.8280  0.1688
15828TIP3    H268900   3.046   6.572  14.807  0.9292 -0.0535  0.9670
15829TIP3   OH268901   1.110   2.725   3.077 -0.4429  0.0537  0.2689
15829TIP3    H168902   1.092   2.657   3.012  1.1703  0.2657 -0.4600
15829TIP3    H268903   1.072   2.691   3.158 -2.3023 -0.3263 -0.7093
15830TIP3   OH268904   4.307   4.008  12.322 -0.2328 -0.2095  0.1628
15830TIP3    H168905   4.332   3.917  12.340 -0.2383 -0.3182 -0.3647
15830TIP3    H268906   4.343   4.026  12.235  0.2078  0.4589  0.4714
15831TIP3   OH268907   6.570   0.202   1.539 -0.0498  0.4008 -0.4061
15831TIP3    H168908   6.636   0.150   1.493 -0.3050  1.1287 -1.6337
15831TIP3    H268909   6.509   0.137   1.574  0.8916 -0.2399  0.0923
15832TIP3   OH268910   6.164   1.411   4.650  0.6624 -0.0571 -0.1050
15832TIP3    H168911   6.182   1.408   4.744 -1.6000 -2.8912  0.3697
15832TIP3    H268912   6.191   1.499   4.623 -2.8750  2.7245  4.1095
15833TIP3   OH268913   6.704   3.624  13.629 -0.1611 -0.3439  0.3393
15833TIP3    H168914   6.612   3.649  13.637 -0.2307 -0.1514 -0.9198
15833TIP3    H268915   6.705   3.558  13.560  0.7304  0.1625 -0.1456
15834TIP3   OH268916   5.245   6.407  16.416 -0.6656  0.2094 -0.3353
15834TIP3    H168917   5.158   6.369  16.403 -0.5843  0.1123 -0.6044
15834TIP3    H268918   5.285   6.404  16.330 -0.0730 -0.5467 -0.0457
15835TIP3   OH268919   4.066   3.200  12.637 -0.2317  0.4825  0.1132
15835TIP3    H168920   4.013   3.252  12.577 -1.5899  0.6968  1.4029
15835TIP3    H268921   4.031   3.111  12.629  1.1504  0.0200 -1.0771
15836TIP3   OH268922   4.322   5.535   6.685  0.2981 -0.1346 -0.1676
15836TIP3    H168923   4.387   5.549   6.616  1.2381 -1.8929  0.3237
15836TIP3    H268924   4.254   5.483   6.643  0.6961 -0.8965  0.1208
15837TIP3   OH268925   6.529   0.449   1.219  0.2545  0.3392 -0.9814
15837TIP3    H168926   6.442   0.471   1.252  0.1885  0.8837 -1.5009
15837TIP3    H268927   6.568   0.534   1.196  1.7943  0.3548  1.3157
15838TIP3   OH268928   5.408   6.202  16.880  0.7566 -0.1979 -0.0726
15838TIP3    H168929   5.346   6.179  16.950  0.7541 -0.4388 -0.1542
15838TIP3    H268930   5.381   6.148  16.806 -1.1040  2.1551 -1.2357
15839TIP3   OH268931   1.618   1.576   5.369  0.1054 -0.7867  0.2775
15839TIP3    H168932   1.532   1.591   5.330  0.5034 -0.2853 -0.4103
15839TIP3    H268933   1.679   1.581   5.296  0.7442 -0.9451  0.7941
15840TIP3   OH268934   2.181   1.493  10.455  0.1630 -0.5544  0.4811
15840TIP3    H168935   2.229   1.473  10.535  0.3181 -0.7506  0.3416
15840TIP3    H268936   2.092   1.513  10.484  0.1508 -0.8904  0.6768
15841TIP3   OH268937   5.301   6.365   5.719 -0.0656 -0.3129 -0.2552
15841TIP3    H168938   5.346   6.354   5.804 -1.6068 -2.3145  0.3731
15841TIP3    H268939   5.231   6.427   5.737 -1.0464 -1.5276  0.2586
15842TIP3   OH268940   1.011   3.108   1.953 -0.6635  0.1890 -0.1287
15842TIP3    H168941   0.970   3.094   2.039 -0.4788  0.3298 -0.0168
15842TIP3    H268942   1.011   3.202   1.941  1.3472  0.3525  0.7415
15843TIP3   OH268943   6.324   6.479  16.817 -0.3437  0.6071  0.1148
15843TIP3    H168944   6.408   6.442  16.788 -1.6786  0.1892 -3.7752
15843TIP3    H268945   6.272   6.402  16.842 -0.0853  0.7536  1.1596
15844TIP3   OH268946   4.823   4.380   6.284  0.2510  0.0690 -0.7722
15844TIP3    H168947   4.913   4.379   6.316 -0.5729 -0.3772  1.7156
15844TIP3    H268948   4.783   4.457   6.326 -0.1620  1.2630 -3.1443
15845TIP3   OH268949   1.320   3.462   6.427 -0.0981 -0.2823  0.2134
15845TIP3    H168950   1.273   3.519   6.487 -0.2480 -0.7246  0.5184
15845TIP3    H268951   1.369   3.522   6.370  0.3759  0.1292  1.0361
15846TIP3   OH268952   3.968   2.038  15.542 -0.5425 -0.8207  0.6462
15846TIP3    H168953   3.921   2.119  15.562 -2.7907 -2.1474  1.0090
15846TIP3    H268954   3.947   2.020  15.450 -1.7669 -2.0212  1.1286
15847TIP3   OH268955   0.447   4.572   5.432  0.4991  0.0286  0.2490
15847TIP3    H168956   0.445   4.625   5.352  0.6541 -0.6790 -0.2305
15847TIP3    H268957   0.383   4.502   5.416  2.2424 -1.5119 -0.2453
15848TIP3   OH268958   0.629   6.081  14.799 -0.5903  0.0453  0.4507
15848TIP3    H168959   0.612   5.991  14.826  1.5748 -0.6093 -0.1670
15848TIP3    H268960   0.713   6.077  14.753  0.2123  2.5810  1.5040
15849TIP3   OH268961   1.849   1.106  13.800  0.2698 -0.3365  0.7208
15849TIP3    H168962   1.877   1.113  13.892 -1.0397  1.7613  1.0325
15849TIP3    H268963   1.908   1.163  13.752 -0.7807  0.8215  0.7453
15850TIP3   OH268964   1.949   0.512  14.524  0.3912 -0.0912  1.0500
15850TIP3    H168965   1.934   0.466  14.441  0.1593 -0.8414  1.4961
15850TIP3    H268966   2.042   0.536  14.522 -0.0765  1.8294 -0.3672
15851TIP3   OH268967   0.495   2.155  14.069 -0.0731 -1.4313 -0.0050
15851TIP3    H168968   0.476   2.088  14.135 -0.4233  0.1893  1.6235
15851TIP3    H268969   0.410   2.178  14.033 -0.4215  0.4204  1.8261
15852TIP3   OH268970   0.284   3.219  16.188  0.1219 -0.2490  0.3306
15852TIP3    H168971   0.208   3.234  16.245  0.1280 -2.6638  1.0719
15852TIP3    H268972   0.247   3.180  16.109  0.5976 -2.0103  0.9404
15853TIP3   OH268973   1.072   4.388  13.505  0.5438  0.7264  0.1327
15853TIP3    H168974   1.001   4.433  13.460 -0.0031  0.5910  0.8506
15853TIP3    H268975   1.151   4.437  13.480  0.0054  1.8589  0.6061
15854TIP3   OH268976   6.020   5.462   3.410 -0.3239 -0.5244 -0.1524
15854TIP3    H168977   5.983   5.429   3.493  0.4708 -0.6501  0.1636
15854TIP3    H268978   5.995   5.396   3.346 -0.5617 -0.6554  0.0675
15855TIP3   OH268979   2.036   0.118  14.410  0.1759 -0.5597  0.2429
15855TIP3    H168980   2.069   0.068  14.485 -0.9057 -0.8029  0.5883
15855TIP3    H268981   1.961   0.167  14.445  0.2872  0.1287 -0.4464
15856TIP3   OH268982   6.460   3.490  11.745  0.2771 -0.0240 -0.1952
15856TIP3    H168983   6.542   3.523  11.709  0.2111  0.9342  0.4915
15856TIP3    H268984   6.454   3.400  11.713  1.1717  0.1672 -0.9437
15857TIP3   OH268985   3.355   1.355   2.516 -0.0982 -0.8237 -0.0731
15857TIP3    H168986   3.318   1.301   2.586  1.1413  0.0062  1.2875
15857TIP3    H268987   3.347   1.445   2.549 -0.1345 -0.3578 -1.3205
15858TIP3   OH268988   0.416   3.314  11.386 -0.1404  0.1848 -0.3745
15858TIP3    H168989   0.454   3.402  11.387 -0.5171  0.3479 -0.2057
15858TIP3    H268990   0.422   3.284  11.477  0.1882 -0.0552 -0.4706
15859TIP3   OH268991   5.965   2.772  16.946 -0.1216 -0.4236  0.2249
15859TIP3    H168992   6.002   2.692  16.982  0.7730 -0.0533  0.1536
15859TIP3    H268993   5.891   2.743  16.892  2.5093 -1.6653 -3.1236
15860TIP3   OH268994   4.114   0.097   3.481  0.5526  0.2608 -0.2852
15860TIP3    H168995   4.045   0.162   3.491 -0.2626 -0.2856 -1.9617
15860TIP3    H268996   4.089   0.026   3.539  1.5162  1.4271  1.6599
15861TIP3   OH268997   4.304   1.113  14.881 -0.0770  0.1422 -0.1786
15861TIP3    H168998   4.248   1.108  14.958 -0.6884  1.9689 -0.4580
15861TIP3    H268999   4.372   1.176  14.905  1.9571 -2.0499  0.1667
15862TIP3   OH269000   1.549   2.240   1.971 -0.4858  0.2017  0.0848
15862TIP3    H169001   1.576   2.164   1.920  0.9279  1.5428 -1.2441
15862TIP3    H269002   1.514   2.203   2.052  0.4990 -1.8353 -0.3662
15863TIP3   OH269003   1.930   5.094  16.098 -0.0775 -0.4445 -0.5012
15863TIP3    H169004   2.006   5.054  16.139 -0.3164  0.6060  1.0498
15863TIP3    H269005   1.956   5.107  16.006  1.1013 -1.3081 -0.3044
15864TIP3   OH269006   2.843   0.862   5.436 -0.2856  0.4172 -0.4902
15864TIP3    H169007   2.792   0.914   5.498  0.5966 -0.0734  0.6926
15864TIP3    H269008   2.895   0.927   5.389  0.8699  0.6547  1.0343
15865TIP3   OH269009   2.347   5.779   2.542  0.3527 -0.0308 -0.2952
15865TIP3    H169010   2.426   5.808   2.495 -0.1121  0.6835 -0.6523
15865TIP3    H269011   2.374   5.773   2.633  1.1455 -0.9740 -0.5665
15866TIP3   OH269012   2.057   1.140   2.278 -0.0563 -0.2365 -0.0157
15866TIP3    H169013   2.137   1.092   2.260 -0.1043 -0.2961 -0.0661
15866TIP3    H269014   2.084   1.232   2.276 -0.5632 -0.0437 -3.0579
15867TIP3   OH269015   5.006   3.480  15.780 -0.1509  0.9590 -0.0653
15867TIP3    H169016   4.998   3.405  15.721  0.9200  0.8282 -0.0550
15867TIP3    H269017   5.088   3.466  15.826 -1.0121  1.0087  1.5485
15868TIP3   OH269018   4.639   3.302   1.170 -0.7333  0.0313  0.6701
15868TIP3    H169019   4.669   3.374   1.114 -0.9197  0.4557  1.0984
15868TIP3    H269020   4.573   3.257   1.118 -0.0565 -0.3168  0.0927
15869TIP3   OH269021   3.347   5.687  14.358  0.1902 -0.3739 -0.2505
15869TIP3    H169022   3.321   5.748  14.289  1.3073 -1.0731 -1.3353
15869TIP3    H269023   3.364   5.742  14.434 -1.9467  0.3317 -0.2353
15870TIP3   OH269024   3.771   1.334   1.563 -0.0108 -0.1609 -0.0787
15870TIP3    H169025   3.732   1.309   1.479 -1.5968 -0.9990  0.8746
15870TIP3    H269026   3.835   1.265   1.581 -2.6156 -2.4120  1.3351
15871TIP3   OH269027   5.744   3.969   4.864  0.0119 -0.2083  0.5606
15871TIP3    H169028   5.732   3.896   4.802 -0.3171 -1.7003  2.2896
15871TIP3    H269029   5.837   3.992   4.856  0.0844 -0.7124 -0.1321
15872TIP3   OH269030   0.395   2.399   4.016 -0.8690 -0.0225 -0.6189
15872TIP3    H169031   0.345   2.349   3.952  0.7546  0.6313 -2.4961
15872TIP3    H269032   0.435   2.469   3.965  2.0733 -0.5963  0.7122
15873TIP3   OH269033   5.295   2.073   2.634  0.3365 -0.5971  0.1938
15873TIP3    H169034   5.261   2.071   2.724 -0.0470 -1.9942  0.0406
15873TIP3    H269035   5.216   2.076   2.579  0.5745  1.3989 -0.1163
15874TIP3   OH269036   1.188   6.524  12.337 -0.3572 -0.3496  0.0745
15874TIP3    H169037   1.200   6.433  12.362 -1.3519 -0.3474  0.6233
15874TIP3    H269038   1.274   6.564  12.348  0.1414 -1.2791 -0.4365
15875TIP3   OH269039   0.571   1.626   4.472  0.1722 -0.2861  0.5545
15875TIP3    H169040   0.624   1.682   4.529 -2.5038  2.4668  0.6267
15875TIP3    H269041   0.488   1.616   4.518 -0.5196 -1.7721 -0.8964
15876TIP3   OH269042   3.785   1.996   3.962  0.0463 -0.0829 -0.0128
15876TIP3    H169043   3.710   1.953   3.922 -0.0724  0.9625 -0.9581
15876TIP3    H269044   3.748   2.049   4.032  0.0386 -0.3857  0.2179
15877TIP3   OH269045   0.076   1.103  14.856  0.2057  0.5768  0.2412
15877TIP3    H169046   0.099   1.144  14.773 -1.0798 -1.1839 -1.0674
15877TIP3    H269047  -0.017   1.122  14.868  0.4456  1.0648  1.4465
15878TIP3   OH269048   2.963   2.089  13.222 -0.0934 -0.0743  0.1921
15878TIP3    H169049   3.041   2.034  13.220 -0.5490 -0.7205 -0.6015
15878TIP3    H269050   2.914   2.065  13.143 -0.0161  1.9148 -0.5258
15879TIP3   OH269051   6.181   1.406   4.924  0.3254  0.1780  0.2612
15879TIP3    H169052   6.265   1.405   4.971  0.2787 -0.6043  0.3502
15879TIP3    H269053   6.123   1.459   4.980  0.2384 -0.8299  1.1649
15880TIP3   OH269054   0.999   4.287  16.318  0.1599 -0.1293  0.3036
15880TIP3    H169055   0.936   4.357  16.334  0.2546 -0.3863  1.9688
15880TIP3    H269056   1.063   4.326  16.259 -1.1415  0.3695 -0.8260
15881TIP3   OH269057   0.604   1.275   2.402 -0.3851 -0.2100 -0.0275
15881TIP3    H169058   0.569   1.261   2.490 -0.2103 -1.0068 -0.0833
15881TIP3    H269059   0.533   1.250   2.343 -0.6601  0.7377 -0.1249
15882TIP3   OH269060   6.600   2.208   2.356  0.0927 -0.1929  0.6054
15882TIP3    H169061   6.608   2.304   2.354  2.2904 -0.3147  1.3847
15882TIP3    H269062   6.524   2.190   2.300 -1.3496  2.0696  1.6603
15883TIP3   OH269063   0.134   5.451  16.521 -0.3610  0.2473  0.2603
15883TIP3    H169064   0.056   5.507  16.524 -1.2137 -0.8984  0.1545
15883TIP3    H269065   0.169   5.465  16.433 -0.9136  0.1586  0.0207
15884TIP3   OH269066   2.216   4.099   0.416 -0.6477  0.4229 -0.1803
15884TIP3    H169067   2.174   4.020   0.383 -0.5071 -0.1271  0.8941
15884TIP3    H269068   2.226   4.082   0.510  1.9652  0.5249 -0.3714
15885TIP3   OH269069   4.489   1.653  11.916 -0.0894 -0.3468 -0.6055
15885TIP3    H169070   4.534   1.652  12.000  0.6826  0.3958 -0.9963
15885TIP3    H269071   4.500   1.564  11.882 -2.0435 -1.2501  0.8898
15886TIP3   OH269072   6.706   0.525   1.870 -0.0312  0.4490  0.3186
15886TIP3    H169073   6.618   0.534   1.907 -0.2439  0.1978 -0.1096
15886TIP3    H269074   6.742   0.446   1.911  0.6672  1.5093  1.7934
15887TIP3   OH269075   0.430   1.899  12.920  0.2140 -0.0355 -0.4077
15887TIP3    H169076   0.499   1.834  12.933 -0.4577 -0.5056  0.9885
15887TIP3    H269077   0.365   1.879  12.987  0.0718  2.1974  0.2199
15888TIP3   OH269078   1.583   5.886   0.176 -0.0640 -0.2508  0.0065
15888TIP3    H169079   1.576   5.935   0.094 -1.5436 -0.1265  0.1857
15888TIP3    H269080   1.498   5.898   0.219  0.2275 -1.3982  0.9529
15889TIP3   OH269081   3.966   2.660   6.307 -0.3195 -0.0147 -0.5973
15889TIP3    H169082   3.991   2.568   6.299  2.9915  0.8007 -1.1008
15889TIP3    H269083   4.018   2.693   6.381  0.6797  2.0182 -2.1033
15890TIP3   OH269084   6.599   3.608   1.327 -0.5108 -0.8069 -0.2768
15890TIP3    H169085   6.684   3.648   1.309 -1.3801  2.9646  2.6674
15890TIP3    H269086   6.618   3.534   1.385  0.8027 -1.0402 -0.9719
15891TIP3   OH269087   3.370   5.691  12.496 -0.2030 -0.6674 -0.7552
15891TIP3    H169088   3.284   5.659  12.524 -0.1854 -0.6343 -0.6629
15891TIP3    H269089   3.432   5.646  12.552 -0.1982 -0.2140 -0.3865
15892TIP3   OH269090   0.363   1.392   3.845  0.7141  0.2340  0.2017
15892TIP3    H169091   0.373   1.418   3.753 -1.4104  2.6324  0.5201
15892TIP3    H269092   0.393   1.468   3.895 -2.1993  0.7932  1.3218
15893TIP3   OH269093   0.938   6.718   5.528 -0.6283 -0.0978 -0.9258
15893TIP3    H169094   1.023   6.728   5.486 -1.0407  0.9641 -1.5325
15893TIP3    H269095   0.928   6.623   5.538  1.5082 -0.1946  1.0490
15894TIP3   OH269096   2.587   0.273   0.673  0.0503 -0.0492  0.2912
15894TIP3    H169097   2.543   0.269   0.588  0.1793 -0.3998  0.2399
15894TIP3    H269098   2.536   0.338   0.723  0.0251  0.2213 -0.0784
15895TIP3   OH269099   4.594   5.000   4.568  0.0193 -0.0386  0.3934
15895TIP3    H169100   4.576   4.927   4.508 -1.2128  0.6273 -0.0866
15895TIP3    H269101   4.678   4.978   4.608 -0.2286 -1.6233  0.1098
15896TIP3   OH269102   4.386   5.159   1.595  0.3211 -0.1713  0.3347
15896TIP3    H169103   4.321   5.226   1.616  0.9178  0.3109  0.6677
15896TIP3    H269104   4.461   5.207   1.560  0.3103 -0.7656 -0.5555
15897TIP3   OH269105   4.099   0.785   3.645 -0.3290 -0.5773  0.3703
15897TIP3    H169106   4.186   0.823   3.630 -0.3468 -1.2005 -1.4468
15897TIP3    H269107   4.070   0.826   3.727  1.3943  0.1243  0.6858
15898TIP3   OH269108   5.026   0.633   4.462  0.0986  0.8247 -0.4537
15898TIP3    H169109   5.110   0.675   4.481  0.0941  0.9546 -0.7243
15898TIP3    H269110   5.029   0.551   4.512  0.2123  1.0227 -0.1291
15899TIP3   OH269111   3.420   1.956   1.425  0.4180  0.1560  0.5119
15899TIP3    H169112   3.330   1.979   1.447  0.5684  1.2728  0.0787
15899TIP3    H269113   3.435   1.871   1.465  0.1007  1.2459  3.1268
15900TIP3   OH269114   1.903   3.952   0.690  0.1114  0.0954 -0.0686
15900TIP3    H169115   1.936   4.018   0.628  0.0581 -0.4354 -0.6761
15900TIP3    H269116   1.973   3.887   0.696 -0.3483 -0.4493 -0.4777
15901TIP3   OH269117   3.240   6.658  11.605 -0.3042 -0.2755  0.1546
15901TIP3    H169118   3.247   6.568  11.573  0.0587  0.3288 -1.6038
15901TIP3    H269119   3.271   6.712  11.532 -1.7265  1.3435  0.6619
15902TIP3   OH269120   2.048   4.829   0.450  0.4076 -0.2915 -0.1723
15902TIP3    H169121   1.979   4.773   0.487  1.8505 -1.9184  0.1883
15902TIP3    H269122   2.001   4.899   0.405 -1.4632  0.5811  2.9008
15903TIP3   OH269123   3.319   3.102   0.553  0.8776  0.3235 -0.3474
15903TIP3    H169124   3.388   3.036   0.561 -0.3617 -0.9110  0.6023
15903TIP3    H269125   3.295   3.123   0.643  1.0368  1.8675 -0.6435
15904TIP3   OH269126   2.853   0.921   3.229  0.0266  0.0140  0.5027
15904TIP3    H169127   2.924   0.980   3.203  0.2419  0.0190  1.1025
15904TIP3    H269128   2.894   0.859   3.288 -0.3572 -0.3137  0.4248
15905TIP3   OH269129   6.144   2.823  13.707 -0.3130 -0.4111  0.1192
15905TIP3    H169130   6.083   2.829  13.633 -2.9034  3.2047  2.2146
15905TIP3    H269131   6.091   2.787  13.779  1.1736 -0.7570  1.0808
15906TIP3   OH269132   0.975   1.644  16.439 -0.3710  0.1022 -0.3381
15906TIP3    H169133   0.904   1.612  16.494  0.6890 -0.1456  0.9395
15906TIP3    H269134   0.967   1.739  16.443 -0.3297  0.0840  0.2140
15907TIP3   OH269135   5.088   1.838   3.083  0.4344 -0.4640 -0.4993
15907TIP3    H169136   4.995   1.824   3.063  0.3671  1.9466 -2.2846
15907TIP3    H269137   5.134   1.787   3.017  0.4950 -2.7221  1.1746
15908TIP3   OH269138   3.052   1.039   2.273  0.3473 -0.6399 -0.1296
15908TIP3    H169139   3.083   1.029   2.363 -2.2180 -0.1709  0.9045
15908TIP3    H269140   3.106   1.109   2.236  0.6079  0.0753  1.5097
15909TIP3   OH269141   4.926   6.560   3.919  0.3376  0.3198 -0.0890
15909TIP3    H169142   4.904   6.592   4.006  1.3301  0.7531  0.0110
15909TIP3    H269143   4.941   6.639   3.867  1.4180  0.0463 -0.2096
15910TIP3   OH269144   3.217   2.152  13.813 -0.1362 -0.2481 -0.4927
15910TIP3    H169145   3.262   2.074  13.779  0.9301  0.8125 -1.6122
15910TIP3    H269146   3.167   2.185  13.738 -3.1654 -1.5554  0.7882
15911TIP3   OH269147   3.995   4.920   0.413  0.1909  0.4629 -0.4089
15911TIP3    H169148   3.907   4.897   0.383 -0.0141  0.8756 -0.1356
15911TIP3    H269149   4.038   4.836   0.426 -1.0969  0.0709  2.2110
15912TIP3   OH269150   3.575   4.941   2.564 -0.0028  0.9479  0.1310
15912TIP3    H169151   3.498   4.885   2.554 -0.8490  2.1024 -0.0133
15912TIP3    H269152   3.570   4.972   2.655 -0.3459  1.9042 -0.1997
15913TIP3   OH269153   3.823   2.400   0.029 -0.1599 -0.1998 -0.1244
15913TIP3    H169154   3.827   2.420  -0.064  1.1988  0.8148  0.1133
15913TIP3    H269155   3.761   2.327   0.036 -2.1393  1.2587 -1.5247
15914TIP3   OH269156   0.718   5.800   0.205 -0.3847 -0.0573  0.1145
15914TIP3    H169157   0.714   5.849   0.123  2.8431 -0.3920 -0.3588
15914TIP3    H269158   0.802   5.823   0.243 -0.0154 -2.9736  1.3546
15915TIP3   OH269159   6.690   1.450   0.122  0.2883  0.4917 -0.5889
15915TIP3    H169160   6.640   1.461   0.202  0.2469 -0.8585 -0.4010
15915TIP3    H269161   6.627   1.463   0.052 -1.2662 -4.1192 -0.4010
15916TIP3   OH269162   3.775   4.559  15.623 -0.2436  0.3174 -0.6434
15916TIP3    H169163   3.871   4.563  15.617 -0.2092 -0.4670 -0.6764
15916TIP3    H269164   3.748   4.509  15.546 -0.6496  0.1585 -0.4005
15917TIP3   OH269165   0.084   5.902  10.850  0.5736 -0.4818 -0.2946
15917TIP3    H169166   0.167   5.931  10.811 -0.0481 -0.8654 -1.9891
15917TIP3    H269167   0.049   5.838  10.788 -0.7016 -0.8006  0.7032
15918TIP3   OH269168   6.351   0.919   3.278 -0.0562  0.2300  0.4513
15918TIP3    H169169   6.424   0.963   3.235 -1.4561  0.8349 -1.4741
15918TIP3    H269170   6.291   0.897   3.207 -2.6251  1.4392  2.0837
15919TIP3   OH269171   0.225   4.871  12.606  0.3513  0.6845 -0.1779
15919TIP3    H169172   0.252   4.792  12.558 -0.7132  0.5656 -0.6195
15919TIP3    H269173   0.276   4.942  12.567  1.4517  0.2052  0.3434
15920TIP3   OH269174   3.382   2.147   3.392  0.8244 -0.0722 -0.3335
15920TIP3    H169175   3.474   2.125   3.406  1.2907  1.5630 -0.5325
15920TIP3    H269176   3.384   2.217   3.327 -0.4972  0.6018  0.2984
15921TIP3   OH269177   0.491   5.463   5.726  0.1551 -0.0897  0.2325
15921TIP3    H169178   0.416   5.490   5.673 -0.0573  0.2299  0.6948
15921TIP3    H269179   0.459   5.388   5.777  1.1443 -2.2654 -2.1165
15922TIP3   OH269180   5.666   3.440   3.450  0.1789  0.3428 -0.0991
15922TIP3    H169181   5.738   3.501   3.465 -1.1920  2.2615 -0.8572
15922TIP3    H269182   5.596   3.471   3.507 -0.9347  0.2137 -1.3376
15923TIP3   OH269183   3.378   6.270  11.811 -0.0452  0.0698  0.0647
15923TIP3    H169184   3.327   6.196  11.776 -1.8075  1.3126 -0.1460
15923TIP3    H269185   3.449   6.282  11.749 -1.2424  0.1717 -1.3200
15924TIP3   OH269186   2.932   0.527   1.072  1.0423 -0.9786 -0.1992
15924TIP3    H169187   2.931   0.467   0.998 -1.5667  0.1366 -1.2181
15924TIP3    H269188   2.958   0.611   1.035 -0.1870 -0.4347  0.1058
15925TIP3   OH269189   1.256   1.075  13.396 -0.3029  0.2888  0.3117
15925TIP3    H169190   1.203   0.998  13.373 -0.6092  0.4307  0.5399
15925TIP3    H269191   1.227   1.099  13.484 -0.8959  1.2469 -0.1279
15926TIP3   OH269192   0.282   3.944   4.673 -0.6426 -0.0497 -0.0168
15926TIP3    H169193   0.212   3.959   4.610  0.5178  1.5227 -0.9941
15926TIP3    H269194   0.305   4.031   4.706  2.3621 -0.1628 -1.4498
15927TIP3   OH269195   3.662   4.218   6.012 -0.2293 -0.3222  0.5076
15927TIP3    H169196   3.639   4.309   5.993 -0.2856 -0.2272  1.0038
15927TIP3    H269197   3.581   4.169   5.999  0.2856 -0.6715 -1.9205
15928TIP3   OH269198   1.255   0.703  17.346 -0.0406 -0.4818 -0.0604
15928TIP3    H169199   1.331   0.665  17.302 -0.4241 -2.6520  0.9951
15928TIP3    H269200   1.188   0.710  17.278  0.7021  0.3313 -0.7341
15929TIP3   OH269201   3.563   4.120  13.553 -0.4125  0.1741  0.2787
15929TIP3    H169202   3.657   4.113  13.574 -0.6225 -0.8415  0.9866
15929TIP3    H269203   3.529   4.184  13.615 -0.4479 -0.5624  1.0491
15930TIP3   OH269204   3.697   1.744  13.499  0.3474 -0.2416  0.4334
15930TIP3    H169205   3.643   1.673  13.466  0.7692  0.6872 -2.5556
15930TIP3    H269206   3.634   1.809  13.530 -0.2346 -0.1223 -0.9180
15931TIP3   OH269207   0.360   1.515   2.298 -0.3261 -0.3651  0.7695
15931TIP3    H169208   0.331   1.603   2.320  0.3920 -0.2277  1.2076
15931TIP3    H269209   0.451   1.526   2.270 -1.2531 -0.4687 -2.7008
15932TIP3   OH269210   5.307   3.908   0.440  0.0883 -0.3428 -0.0834
15932TIP3    H169211   5.342   3.928   0.353 -0.0605  0.3997  0.0225
15932TIP3    H269212   5.269   3.990   0.470 -0.0807 -0.6598  0.5850
15933TIP3   OH269213   3.548   1.482   1.152 -0.2818  0.1382 -0.3038
15933TIP3    H169214   3.478   1.542   1.127  0.3054  1.5062  1.1175
15933TIP3    H269215   3.569   1.506   1.242 -0.4057 -2.6524  0.5579
15934TIP3   OH269216   1.081   2.467  12.983 -0.1849  0.2148  0.7862
15934TIP3    H169217   1.102   2.550  13.025 -0.8200  0.6012  0.3559
15934TIP3    H269218   1.166   2.425  12.969  0.1779  0.9687  0.6545
15935TIP3   OH269219   2.579   0.081  14.733 -0.1189  0.5063  0.3115
15935TIP3    H169220   2.649   0.079  14.668  0.1794  2.7224  0.4856
15935TIP3    H269221   2.498   0.087  14.681  0.0429  1.0646  0.1153
15936TIP3   OH269222   5.719   0.682  12.225 -0.3477  0.5163 -0.4558
15936TIP3    H169223   5.673   0.666  12.143 -0.0114  0.0204 -0.5532
15936TIP3    H269224   5.656   0.730  12.279 -0.7962  0.2974 -0.7791
15937TIP3   OH269225   6.253   5.463  12.164  0.4044  0.3056  0.5123
15937TIP3    H169226   6.277   5.419  12.246  1.4054  0.5323  0.3522
15937TIP3    H269227   6.158   5.474  12.170  0.2311 -1.1723  0.9075
15938TIP3   OH269228   2.909   0.885   4.034 -0.3241  0.3179 -0.3790
15938TIP3    H169229   2.949   0.942   3.969 -2.1220  0.0710 -1.7819
15938TIP3    H269230   2.931   0.796   4.005 -0.8575  0.2135 -0.4706
15939TIP3   OH269231   6.450   1.176  12.907  0.1015 -0.1805 -0.4743
15939TIP3    H169232   6.462   1.095  12.957 -2.3928  0.1191  0.7647
15939TIP3    H269233   6.467   1.150  12.817  5.1722 -0.6517  0.3087
15940TIP3   OH269234   2.628   0.078  15.635 -0.2330 -0.1618  0.1374
15940TIP3    H169235   2.604   0.067  15.543 -2.0313 -1.0132  0.6799
15940TIP3    H269236   2.703   0.020  15.648 -0.3186 -0.4545 -0.6584
15941TIP3   OH269237   6.568   5.908  11.755  0.0595 -0.3801  0.0253
15941TIP3    H169238   6.605   5.986  11.798 -0.4199 -0.3310  0.3607
15941TIP3    H269239   6.645   5.858  11.727  0.3812 -0.1294  0.4324
15942TIP3   OH269240   3.193   0.443  12.280  0.0115 -0.1015  0.6801
15942TIP3    H169241   3.178   0.524  12.231  0.6532 -1.2207 -1.5444
15942TIP3    H269242   3.109   0.398  12.277 -0.1634  0.1743  1.3288
15943TIP3   OH269243   4.278   5.982  12.720 -0.0709 -0.3409  0.1005
15943TIP3    H169244   4.254   6.074  12.716 -0.4476 -0.1686  3.3451
15943TIP3    H269245   4.357   5.980  12.775  0.8765 -1.8611 -1.2186
15944TIP3   OH269246   1.503   2.187  14.269  0.3150  0.6456  0.4858
15944TIP3    H169247   1.587   2.198  14.225  0.7395  0.4545  1.2452
15944TIP3    H269248   1.438   2.197  14.199  0.9777  0.4365 -0.1692
15945TIP3   OH269249   3.188   6.324  15.492 -0.1804 -0.1257  0.5071
15945TIP3    H169250   3.092   6.321  15.493 -0.1706 -0.7753  1.1781
15945TIP3    H269251   3.210   6.383  15.564 -0.0869  1.5705 -0.8666
15946TIP3   OH269252   2.520   2.734   1.381 -0.3582 -0.0563  0.3062
15946TIP3    H169253   2.461   2.680   1.434 -0.7298  0.4792  0.4503
15946TIP3    H269254   2.603   2.686   1.380 -1.5158 -2.2692 -2.2339
15947TIP3   OH269255   5.536   3.016  14.287  0.3557 -0.5658  0.1268
15947TIP3    H169256   5.626   3.039  14.310  0.5434 -0.7366 -0.4179
15947TIP3    H269257   5.500   2.979  14.368  0.7648 -0.4685  0.3590
15948TIP3   OH269258   3.448   3.040   1.777  0.4345 -0.3691 -0.0573
15948TIP3    H169259   3.454   2.986   1.699  0.9095  0.7778 -0.8464
15948TIP3    H269260   3.536   3.038   1.815  0.7069  0.5847 -0.6134
15949TIP3   OH269261   4.978   1.417  15.251 -0.3749 -0.2900 -0.0499
15949TIP3    H169262   5.066   1.451  15.263 -0.1886 -0.6902 -0.2911
15949TIP3    H269263   4.932   1.485  15.201  0.3639 -0.9558 -1.6697
15950TIP3   OH269264   2.740   3.953  15.541 -0.1465 -0.6152 -0.0762
15950TIP3    H169265   2.671   3.967  15.606  0.8938  1.0978  0.7196
15950TIP3    H269266   2.698   3.974  15.457 -1.3247 -2.2440  0.0688
15951TIP3   OH269267   4.033   2.068  14.128 -0.0688  0.7417  0.1929
15951TIP3    H169268   4.052   2.147  14.077 -0.1272  1.0186  0.5950
15951TIP3    H269269   3.938   2.060  14.124 -0.0607  0.6810  0.1343
15952TIP3   OH269270   1.288   6.305  13.036  0.1563  0.4002 -0.4167
15952TIP3    H169271   1.321   6.321  12.948 -0.9839  0.2438 -0.8993
15952TIP3    H269272   1.227   6.376  13.052  0.2109  0.3169  0.1695
15953TIP3   OH269273   1.203   0.278   1.607  0.0905  0.3707  0.1614
15953TIP3    H169274   1.231   0.360   1.647 -1.6170  1.5984 -0.9979
15953TIP3    H269275   1.224   0.288   1.514 -2.2998  0.5572 -0.4109
15954TIP3   OH269276   5.952   2.328   2.994 -0.2455  0.3420  0.3022
15954TIP3    H169277   6.038   2.369   2.998 -0.3122  0.4640  0.5095
15954TIP3    H269278   5.940   2.308   2.901  0.9362 -1.7173  0.5467
15955TIP3   OH269279   6.480   4.129   5.070 -0.1431 -0.5293  0.7627
15955TIP3    H169280   6.508   4.213   5.034 -0.0582 -0.4121  1.0966
15955TIP3    H269281   6.425   4.152   5.145 -0.8920 -0.7579  0.3033
15956TIP3   OH269282   3.655   1.219   2.671 -0.2951  0.5308  0.5390
15956TIP3    H169283   3.729   1.278   2.680  2.0338 -2.4970  4.0050
15956TIP3    H269284   3.584   1.261   2.720  0.9625  0.9484  2.0625
15957TIP3   OH269285   4.791   0.135  12.597  0.1005  0.3445 -0.3608
15957TIP3    H169286   4.816   0.226  12.610 -0.4661  0.3674  0.7244
15957TIP3    H269287   4.806   0.094  12.683 -2.2640  0.0664 -0.0233
15958TIP3   OH269288   2.471   2.402  14.907  0.1462 -0.2815 -0.2395
15958TIP3    H169289   2.379   2.408  14.883  0.2933  4.8785 -0.4981
15958TIP3    H269290   2.519   2.430  14.829  1.7285 -0.0282  0.7703
15959TIP3   OH269291   4.691   0.625  13.236  0.1031  0.3371 -0.6004
15959TIP3    H169292   4.701   0.637  13.142  2.4277  1.2628 -0.2936
15959TIP3    H269293   4.662   0.711  13.268  0.2545  0.2999 -0.3629
15960TIP3   OH269294   2.630   5.952   3.134 -0.3476 -0.0635  0.5869
15960TIP3    H169295   2.560   6.006   3.171  0.1640  2.3981 -1.6828
15960TIP3    H269296   2.711   5.996   3.163  0.2371 -1.6240  1.4285
15961TIP3   OH269297   2.366   1.583  16.123  0.5961 -0.0979  0.7539
15961TIP3    H169298   2.378   1.677  16.108  0.1351  0.1422  1.7574
15961TIP3    H269299   2.275   1.566  16.099  1.1225 -0.6379 -0.9667
15962TIP3   OH269300   0.254   0.934   1.978 -0.4489  0.2453 -0.2792
15962TIP3    H169301   0.225   0.846   1.954  0.4798 -0.0202 -0.4823
15962TIP3    H269302   0.186   0.993   1.945 -0.3227 -0.2820 -1.5085
15963TIP3   OH269303   3.582   0.245  14.368  1.0025 -0.1882  0.9001
15963TIP3    H169304   3.491   0.270  14.380  0.7313 -0.4961 -0.4165
15963TIP3    H269305   3.584   0.151  14.388  0.6888 -0.5473 -0.6850
15964TIP3   OH269306   6.253   1.383  14.211  0.1116  0.2017 -0.4613
15964TIP3    H169307   6.238   1.477  14.221 -1.6823 -0.1711  0.9569
15964TIP3    H269308   6.210   1.360  14.129 -0.4924  0.4367 -0.2155
15965TIP3   OH269309   4.468   2.935   1.835 -0.0199 -0.3286 -0.0130
15965TIP3    H169310   4.506   3.022   1.833  0.4878 -0.5342 -1.9762
15965TIP3    H269311   4.516   2.889   1.903  2.8306 -0.3361 -1.8583
15966TIP3   OH269312   3.802   3.797  10.874 -0.2656  0.2845 -0.7630
15966TIP3    H169313   3.872   3.740  10.844 -0.1271  0.0607 -0.0274
15966TIP3    H269314   3.726   3.772  10.821 -0.2740 -0.7635 -0.2780
15967TIP3   OH269315   5.396   6.573  17.177  0.3950 -0.2457  0.0319
15967TIP3    H169316   5.465   6.507  17.184 -0.4198 -1.1563 -0.2606
15967TIP3    H269317   5.421   6.626  17.101  1.6191  0.4874  0.9150
15968TIP3   OH269318   3.159   1.274   1.853  0.3248  0.4164  0.1797
15968TIP3    H169319   3.185   1.191   1.814  0.4304  0.9482 -0.9216
15968TIP3    H269320   3.069   1.259   1.883 -0.4337  0.4794 -1.8854
15969TIP3   OH269321   4.030   4.185   4.091 -0.0564  0.3633  0.1058
15969TIP3    H169322   3.969   4.111   4.093  1.7535 -1.2221 -0.7445
15969TIP3    H269323   4.065   4.185   4.002  0.8730  1.5244  0.4451
15970TIP3   OH269324   4.518   1.484  17.303  0.2656 -0.1262  0.2837
15970TIP3    H169325   4.604   1.442  17.306  0.3798  0.1259  0.6503
15970TIP3    H269326   4.479   1.454  17.221  0.8686  0.0868 -0.0830
15971TIP3   OH269327   4.053   2.952  15.472  0.1495 -0.4126  0.4956
15971TIP3    H169328   4.035   3.022  15.409 -0.1690 -0.9911 -0.0674
15971TIP3    H269329   4.122   2.900  15.432  2.2039  0.9844  2.0297
15972TIP3   OH269330   0.045   0.844   3.261  0.9666  0.0227 -0.0155
15972TIP3    H169331   0.120   0.896   3.291  0.5631  0.2941  0.5399
15972TIP3    H269332   0.058   0.758   3.301 -0.9003  1.0828  3.2122
15973TIP3   OH269333   4.813   4.672   5.090 -0.6448  1.0102 -0.6079
15973TIP3    H169334   4.806   4.721   5.008  0.0555 -0.0979 -1.3701
15973TIP3    H269335   4.806   4.580   5.063 -2.7912  0.6651  0.8666
15974TIP3   OH269336   0.808   5.282  13.218 -0.3049  0.1505 -0.3243
15974TIP3    H169337   0.735   5.297  13.158  0.7935  0.2169 -1.6766
15974TIP3    H269338   0.817   5.187  13.222 -2.4839 -0.1072  2.4282
15975TIP3   OH269339   2.822   3.247   2.607 -0.3077 -0.3643 -0.4119
15975TIP3    H169340   2.727   3.237   2.617 -1.0581  4.1506 -0.7802
15975TIP3    H269341   2.844   3.321   2.664  2.9952 -1.0557 -0.5953
15976TIP3   OH269342   2.739   1.744   5.764  0.4985  0.3307 -0.4804
15976TIP3    H169343   2.731   1.724   5.857  1.8359 -0.8311 -0.5835
15976TIP3    H269344   2.812   1.805   5.759  0.4568  0.3572 -0.7780
15977TIP3   OH269345   6.141   1.786   4.875  0.0389  0.5302 -0.2510
15977TIP3    H169346   6.154   1.821   4.963  0.6276 -1.4494  0.5040
15977TIP3    H269347   6.228   1.757   4.848  0.2142  2.5721 -2.2197
15978TIP3   OH269348   1.451   4.915  13.254  0.3960 -0.1915  0.0627
15978TIP3    H169349   1.522   4.899  13.191  1.5329  3.7782  0.0883
15978TIP3    H269350   1.381   4.955  13.202 -0.0301 -0.0137  0.7608
15979TIP3   OH269351   2.940   5.491  15.888 -0.6710  0.3358  0.3179
15979TIP3    H169352   2.863   5.507  15.942 -1.7647 -0.9680 -0.7686
15979TIP3    H269353   2.905   5.474  15.801  0.8430 -0.4471 -0.1755
15980TIP3   OH269354   1.306   1.671   1.135 -0.1454  0.4166  0.1198
15980TIP3    H169355   1.326   1.710   1.220 -2.2574 -0.5931  1.1617
15980TIP3    H269356   1.280   1.581   1.156 -0.6829  0.1417 -1.5927
15981TIP3   OH269357   0.773   1.148  14.131 -0.0425  0.4004 -0.3362
15981TIP3    H169358   0.684   1.124  14.159  0.0806  0.1304 -0.1791
15981TIP3    H269359   0.795   1.226  14.182  0.2031 -0.1187  0.3544
15982TIP3   OH269360   5.687   4.592   4.812 -0.0332 -0.7729  0.3629
15982TIP3    H169361   5.623   4.581   4.741 -1.8886  0.5749  1.7229
15982TIP3    H269362   5.743   4.515   4.805 -0.7189 -1.1416 -1.9755
15983TIP3   OH269363   3.007   4.923  13.353 -0.0119  0.4892 -0.2954
15983TIP3    H169364   3.022   4.848  13.295 -1.5727  0.2235 -0.3961
15983TIP3    H269365   3.011   4.999  13.296  0.6058  0.4053 -0.3665
15984TIP3   OH269366   4.553   0.242  16.551  0.6155 -0.7408  1.1717
15984TIP3    H169367   4.460   0.249  16.532  0.9447  2.7063  0.1976
15984TIP3    H269368   4.564   0.283  16.636  1.4108  0.7109  0.4183
15985TIP3   OH269369   4.580   0.458   0.509 -0.0296  0.4874 -0.6546
15985TIP3    H169370   4.543   0.371   0.496 -1.5240  0.8372  0.8939
15985TIP3    H269371   4.591   0.493   0.421 -1.1740 -0.5614 -1.2405
15986TIP3   OH269372   0.831   2.717  12.951  0.4996  0.1259  0.6142
15986TIP3    H169373   0.740   2.745  12.965  0.6872  1.5746 -0.7440
15986TIP3    H269374   0.826   2.656  12.878  0.4850 -0.7993  1.3785
15987TIP3   OH269375   3.935   1.571   4.992  0.2418  0.2533  0.4445
15987TIP3    H169376   3.840   1.571   4.975  0.3822 -0.2322 -0.3677
15987TIP3    H269377   3.942   1.584   5.087 -0.6072  1.5607  0.3580
15988TIP3   OH269378   4.300   6.256   0.366  0.1874 -0.3644  0.2469
15988TIP3    H169379   4.263   6.308   0.437  1.4407 -0.0152  0.6794
15988TIP3    H269380   4.370   6.205   0.408  1.3509  0.2890 -0.8176
15989TIP3   OH269381   5.561   0.385  12.416  0.5489  0.6438 -0.5468
15989TIP3    H169382   5.620   0.453  12.383  0.5206  0.0450 -1.9217
15989TIP3    H269383   5.500   0.370  12.343 -0.5755  0.4304  0.4183
15990TIP3   OH269384   2.063   4.071   5.757 -0.1729 -0.2973  0.2557
15990TIP3    H169385   2.085   4.161   5.734 -0.9231  0.0084  0.7034
15990TIP3    H269386   1.999   4.079   5.827 -1.4400 -1.1638 -0.7641
15991TIP3   OH269387   5.979   2.457   5.404  0.1957  0.1235  0.3593
15991TIP3    H169388   5.984   2.552   5.417 -1.4545  0.4904 -1.3284
15991TIP3    H269389   6.050   2.439   5.342  1.3725 -0.0136  1.6776
15992TIP3   OH269390   5.963   3.938  15.346 -0.1191 -0.1790  0.4231
15992TIP3    H169391   6.049   3.899  15.331 -0.1197 -0.7401  1.7369
15992TIP3    H269392   5.933   3.964  15.259 -0.1967 -3.2791 -0.5672
15993TIP3   OH269393   1.912   4.426   4.027  0.1663 -0.2105  0.0648
15993TIP3    H169394   1.841   4.489   4.039  0.4075  0.3286 -1.1274
15993TIP3    H269395   1.961   4.430   4.109 -0.3903  0.4384  0.3800
15994TIP3   OH269396   3.917   0.607  15.251  0.3651 -0.0402  0.2453
15994TIP3    H169397   3.825   0.634  15.254  0.8873  1.8117  1.0435
15994TIP3    H269398   3.930   0.576  15.161 -1.2537 -1.2748  0.3906
15995TIP3   OH269399   1.431   6.008   5.208  0.1834 -0.1561  1.1748
15995TIP3    H169400   1.350   5.958   5.215  0.4141 -0.9029 -0.8404
15995TIP3    H269401   1.492   5.950   5.162  1.1450  1.2095  0.6386
15996TIP3   OH269402   1.101   1.162  17.187  0.6036 -0.1928  0.2506
15996TIP3    H169403   1.168   1.156  17.119  1.2697  0.1938  0.8610
15996TIP3    H269404   1.020   1.183  17.140  1.2974  1.2935 -0.3019
15997TIP3   OH269405   6.440   3.695  16.714  0.1812  0.0776 -0.3006
15997TIP3    H169406   6.509   3.752  16.749  0.6689  0.1678 -1.3711
15997TIP3    H269407   6.474   3.606  16.728  0.4822  0.1196 -0.7334
15998TIP3   OH269408   5.022   2.389   5.407  0.6971 -0.5349 -0.2501
15998TIP3    H169409   5.017   2.470   5.355  0.2865 -1.4145 -1.6567
15998TIP3    H269410   4.966   2.406   5.483  0.4549  0.4352 -0.6243
15999TIP3   OH269411   5.689   6.150  16.604  0.4990 -0.0792 -0.0931
15999TIP3    H169412   5.758   6.148  16.537 -0.7468 -1.8243 -1.4046
15999TIP3    H269413   5.614   6.190  16.561 -1.2012 -3.6154 -0.8036
16000TIP3   OH269414   1.764   0.033   0.224  0.0519 -0.4292 -0.3248
16000TIP3    H169415   1.768   0.017   0.318  0.4716  1.6045  0.0494
16000TIP3    H269416   1.850   0.069   0.202  0.6634 -2.6862 -1.9028
16001TIP3   OH269417   5.551   2.375   3.134 -0.0645  0.2165  0.6667
16001TIP3    H169418   5.458   2.364   3.156 -0.9110  0.3847 -2.3701
16001TIP3    H269419   5.578   2.289   3.102  0.0322  0.7849 -0.8768
16002TIP3   OH269420   2.206   2.968   0.302  0.3642 -0.1696 -0.0084
16002TIP3    H169421   2.297   2.986   0.281  0.1009  1.0049 -0.1902
16002TIP3    H269422   2.157   3.036   0.257 -0.4993  0.0189  1.1820
16003TIP3   OH269423   3.949   6.126  12.501 -0.0902 -0.0931  0.3885
16003TIP3    H169424   3.935   6.220  12.501  0.0282 -0.0743 -0.0367
16003TIP3    H269425   3.860   6.089  12.507 -0.3017  0.0346 -1.5561
16004TIP3   OH269426   4.354   3.739  17.264 -0.1086  0.3236  0.3851
16004TIP3    H169427   4.397   3.737  17.350 -0.2493 -0.5912  0.4419
16004TIP3    H269428   4.260   3.737  17.284 -0.1313 -1.2433  0.1929
16005TIP3   OH269429   5.812   2.039  11.727 -0.0137 -0.4784 -0.0570
16005TIP3    H169430   5.857   2.121  11.750 -0.3936  0.3920 -2.1884
16005TIP3    H269431   5.826   1.982  11.803  1.4072  1.0899  0.9346
16006TIP3   OH269432   0.800   6.345  16.008 -0.0662  0.4482  0.1523
16006TIP3    H169433   0.817   6.303  15.923  1.9499  2.1508 -0.3957
16006TIP3    H269434   0.882   6.335  16.057 -0.0711  2.1966  0.6117
16007TIP3   OH269435   3.816   3.637  15.854  0.5475  0.3783  0.1434
16007TIP3    H169436   3.888   3.672  15.800  0.0556  1.0777 -0.0656
16007TIP3    H269437   3.789   3.557  15.808  1.7358 -0.3679  0.6752
16008TIP3   OH269438   1.928   0.859   5.887  0.4481  0.4103  0.1878
16008TIP3    H169439   1.931   0.854   5.983  1.2426  2.5466  0.3492
16008TIP3    H269440   1.943   0.770   5.857  3.9189  0.1773  2.0722
16009TIP3   OH269441   6.169   1.746   3.604  0.1803  1.0194 -0.0108
16009TIP3    H169442   6.100   1.781   3.661 -1.1078 -2.5367  0.9203
16009TIP3    H269443   6.124   1.729   3.521  0.0003 -0.8147  0.4276
16010TIP3   OH269444   2.148   4.094   3.240  0.0786 -0.1317 -0.5386
16010TIP3    H169445   2.086   4.138   3.181 -1.6271 -1.6991 -0.0216
16010TIP3    H269446   2.165   4.159   3.308 -0.2651  0.6622 -1.1865
16011TIP3   OH269447   2.432   2.790   3.974  0.3193  0.5650  0.2005
16011TIP3    H169448   2.420   2.746   4.058  0.3434  1.5837  0.7556
16011TIP3    H269449   2.407   2.725   3.909 -1.2069  0.2438  1.0481
16012TIP3   OH269450   2.513   4.119  15.133 -0.0811 -0.2944  0.6141
16012TIP3    H169451   2.553   4.043  15.089 -0.6257 -1.6955  2.3967
16012TIP3    H269452   2.424   4.123  15.097 -0.0275 -0.4621  0.4589
16013TIP3   OH269453   3.227   0.521   4.492 -0.2429  0.3760 -0.1010
16013TIP3    H169454   3.194   0.435   4.469  2.1446 -1.3107  2.2504
16013TIP3    H269455   3.195   0.537   4.581  1.8729  0.4164  0.7135
16014TIP3   OH269456   2.686   0.319  12.093 -0.7971  0.3386  0.2116
16014TIP3    H169457   2.661   0.249  12.153 -0.1662  0.1682  0.2884
16014TIP3    H269458   2.631   0.306  12.016  1.0154 -1.8127 -0.8439
16015TIP3   OH269459   2.732   1.845  12.173  0.1873 -0.0792 -0.5229
16015TIP3    H169460   2.775   1.763  12.201 -1.2470 -1.3509 -1.8607
16015TIP3    H269461   2.770   1.864  12.088 -1.3559 -0.8522 -1.4152
16016TIP3   OH269462   5.909   4.334   0.827 -0.6584 -0.2828  0.2151
16016TIP3    H169463   5.947   4.291   0.903 -1.7275 -0.7125  0.5217
16016TIP3    H269464   5.953   4.420   0.824  1.4275 -1.3057 -0.3639
16017TIP3   OH269465   0.900   1.393   2.522 -0.0194 -0.1843 -0.5374
16017TIP3    H169466   0.969   1.441   2.568 -1.3251  1.4597 -0.1888
16017TIP3    H269467   0.847   1.355   2.592 -0.2388 -0.2999 -0.7666
16018TIP3   OH269468   1.050   4.074  12.735 -0.2282  0.2485 -0.2425
16018TIP3    H169469   1.034   3.994  12.684 -0.5271  1.1575 -1.6328
16018TIP3    H269470   0.990   4.067  12.810  1.5999 -2.0533  1.1586
16019TIP3   OH269471   1.145   6.258  13.595  0.6361 -0.2225  0.2282
16019TIP3    H169472   1.105   6.280  13.511  1.2501 -0.7387 -0.2130
16019TIP3    H269473   1.200   6.334  13.616  1.2146 -0.4813 -0.3124
16020TIP3   OH269474   4.412   5.711  12.924 -0.5195 -0.2318  0.6661
16020TIP3    H169475   4.453   5.649  12.985  0.3359  0.1627  0.5076
16020TIP3    H269476   4.431   5.674  12.838 -0.9709 -0.3273  0.6067
16021TIP3   OH269477   2.154   3.994   1.797  0.3464  0.3739 -0.5961
16021TIP3    H169478   2.121   3.906   1.779  0.1483  0.3390 -0.0757
16021TIP3    H269479   2.216   3.982   1.870 -0.1917  0.7557 -0.0662
16022TIP3   OH269480   2.698   2.792   1.667  0.3331  0.3050  0.1701
16022TIP3    H169481   2.653   2.803   1.750  1.0962 -0.0323  0.6446
16022TIP3    H269482   2.682   2.700   1.643 -0.4331  0.5777 -0.3932
16023TIP3   OH269483   4.184   5.531  17.266  0.2425 -0.2353 -0.3623
16023TIP3    H169484   4.230   5.560  17.346  0.9912 -0.4249 -0.7127
16023TIP3    H269485   4.115   5.474  17.298 -0.0769  0.4637  0.2164
16024TIP3   OH269486   0.017   5.980  15.625 -0.1698 -0.0932  0.8143
16024TIP3    H169487  -0.025   6.065  15.617 -0.0557 -0.1434 -0.5394
16024TIP3    H269488  -0.055   5.919  15.645 -0.2099  0.3431  2.0775
16025TIP3   OH269489   3.865   3.244   3.594  0.0327 -0.2670 -0.2098
16025TIP3    H169490   3.787   3.233   3.648  0.0177 -0.3539 -0.2499
16025TIP3    H269491   3.930   3.283   3.653  0.5208 -1.8023  0.3093
16026TIP3   OH269492   4.950   6.723   4.815 -0.2526 -0.0728 -0.0401
16026TIP3    H169493   5.024   6.691   4.866  1.2408  0.6321 -1.6726
16026TIP3    H269494   4.924   6.804   4.858  3.0036  2.2175 -1.9682
16027TIP3   OH269495   4.302   1.956  16.926  0.1376 -0.1367  0.0368
16027TIP3    H169496   4.279   1.999  17.009  0.4431 -1.8585  1.0638
16027TIP3    H269497   4.397   1.948  16.929  0.2142  0.3510 -0.7931
16028TIP3   OH269498   6.446   0.858   0.824 -0.3351  0.3096  0.0665
16028TIP3    H169499   6.519   0.841   0.765 -1.4087  0.2197 -1.2912
16028TIP3    H269500   6.448   0.786   0.887 -0.6125 -0.9837 -1.3499
16029TIP3   OH269501   0.568   5.911  11.742  0.0875  0.4089 -0.0041
16029TIP3    H169502   0.547   5.942  11.830 -0.8387  0.6685 -0.2982
16029TIP3    H269503   0.616   5.830  11.756 -0.8922 -0.0640  0.7324
16030TIP3   OH269504   3.394   4.106   5.974 -0.2113  0.0449  0.8045
16030TIP3    H169505   3.385   4.180   5.914  1.0712 -1.1290 -0.9473
16030TIP3    H269506   3.336   4.128   6.048 -0.4901  2.3771 -0.0085
16031TIP3   OH269507   3.557   1.621  12.592  0.0147  0.2483  0.2460
16031TIP3    H169508   3.513   1.581  12.667 -0.9250  0.2407 -0.2898
16031TIP3    H269509   3.505   1.699  12.573 -0.0684 -0.0232 -0.7095
16032TIP3   OH269510   3.742   2.941   0.971  0.2442 -0.0424  0.2697
16032TIP3    H169511   3.761   2.950   0.878  0.7040 -0.8407  0.2742
16032TIP3    H269512   3.819   2.976   1.015  0.0709  0.2380  0.3512
16033TIP3   OH269513   5.016   1.280   0.388  0.1268  0.3153 -0.2991
16033TIP3    H169514   4.946   1.278   0.323 -0.3263  1.4486  0.1235
16033TIP3    H269515   5.003   1.363   0.434  0.9957 -0.0393  0.6163
16034TIP3   OH269516   0.299   6.026   2.075  0.1177  0.4908  0.3912
16034TIP3    H169517   0.213   6.000   2.040  0.4689  0.7648 -0.7367
16034TIP3    H269518   0.279   6.067   2.159 -0.8385  0.3952  0.2300
16035TIP3   OH269519   0.972   5.890   0.323  0.0804  0.0120  0.3610
16035TIP3    H169520   1.009   5.825   0.383  0.1482 -0.5825 -0.3159
16035TIP3    H269521   0.985   5.974   0.368  2.0524 -0.1798  0.2602
16036TIP3   OH269522   0.699   4.422  11.841 -0.0122  0.0049  0.1760
16036TIP3    H169523   0.638   4.350  11.855  1.0948 -0.8901  0.4959
16036TIP3    H269524   0.655   4.479  11.777  0.0842 -2.1391 -1.9242
16037TIP3   OH269525   6.575   2.315  11.280  0.3430  0.3950 -0.1002
16037TIP3    H169526   6.555   2.231  11.238  0.4490  0.3402 -0.0399
16037TIP3    H269527   6.635   2.293  11.351 -2.2551 -0.0097  2.1743
16038TIP3   OH269528   2.968   0.882  12.589 -0.0840 -0.1125  0.0736
16038TIP3    H169529   2.962   0.967  12.544 -1.7957  0.4744  1.3005
16038TIP3    H269530   3.005   0.903  12.675 -1.4926 -0.4205  0.7730
16039TIP3   OH269531   4.345   2.042   5.207  0.5032 -0.5870  0.2099
16039TIP3    H169532   4.394   2.123   5.220 -0.3106 -0.3601  2.1760
16039TIP3    H269533   4.253   2.068   5.217  0.2715 -1.8583  1.7256
16040TIP3   OH269534   3.356   2.433  13.815 -0.5737 -0.2972 -0.2792
16040TIP3    H169535   3.411   2.502  13.778  2.3469 -2.7214 -0.8471
16040TIP3    H269536   3.308   2.398  13.739 -0.9326  0.1032 -0.2446
16041TIP3   OH269537   6.426   0.959   2.722  0.3172  0.1027  0.4013
16041TIP3    H169538   6.453   0.997   2.639 -0.0486  1.8599  1.0317
16041TIP3    H269539   6.468   1.014   2.788 -0.2929 -0.5676  1.3795
16042TIP3   OH269540   5.897   4.111  15.143 -0.1950 -0.4263  0.4504
16042TIP3    H169541   5.981   4.129  15.101 -0.2849  0.1452  0.5125
16042TIP3    H269542   5.850   4.058  15.079  0.1747 -0.6773  0.3788
16043TIP3   OH269543   4.391   3.835  13.948  0.4047  0.2381 -0.1209
16043TIP3    H169544   4.473   3.785  13.937  0.5667  0.6106 -0.6778
16043TIP3    H269545   4.410   3.897  14.018 -0.0027 -0.8852  1.0169
16044TIP3   OH269546   4.945   5.249  14.445  0.1627 -0.2953  0.4285
16044TIP3    H169547   4.906   5.332  14.473  0.8280  0.1257  0.1316
16044TIP3    H269548   4.900   5.183  14.498 -0.2113  0.2709  0.8367
16045TIP3   OH269549   1.249   1.492   0.192  0.0912  0.3146 -0.0487
16045TIP3    H169550   1.302   1.445   0.257  0.2417  0.0257 -0.3783
16045TIP3    H269551   1.303   1.494   0.113 -0.9760 -1.3686 -0.8833
16046TIP3   OH269552   4.333   3.954  15.141  0.1287 -0.1223  0.1528
16046TIP3    H169553   4.298   3.946  15.230 -0.4193  1.2896  0.0769
16046TIP3    H269554   4.307   3.872  15.099 -2.4146  0.5038  0.3476
16047TIP3   OH269555   4.272   3.716  12.379  0.0832  0.3214 -0.0786
16047TIP3    H169556   4.224   3.743  12.457 -0.3226  0.3712 -0.3468
16047TIP3    H269557   4.362   3.701  12.410 -0.4422 -1.3188  0.7401
16048TIP3   OH269558   5.478   2.790  14.455 -0.7268  0.1534  0.6035
16048TIP3    H169559   5.561   2.747  14.473 -0.2377  0.1897 -1.3373
16048TIP3    H269560   5.424   2.722  14.414 -1.4153  0.3083  1.2374
16049TIP3   OH269561   0.807   3.824  12.029 -0.1880 -0.5462  0.1833
16049TIP3    H169562   0.847   3.910  12.020  1.5845 -1.3703 -0.3520
16049TIP3    H269563   0.773   3.822  12.118  0.6905  0.3326  0.5473
16050TIP3   OH269564   2.309   3.472  13.567  0.2957 -0.0512 -0.2240
16050TIP3    H169565   2.377   3.539  13.567 -0.6901  1.0057  0.7053
16050TIP3    H269566   2.340   3.406  13.505  2.5525 -0.0360  0.7810
16051TIP3   OH269567   5.039   1.058   6.111  0.0121  0.3468  0.3910
16051TIP3    H169568   5.102   1.022   6.173 -1.9837 -1.6880  1.3772
16051TIP3    H269569   5.004   0.982   6.065 -1.8195  1.3771 -0.0373
16052TIP3   OH269570   6.016   6.734  17.191  0.3227  0.2226 -0.3637
16052TIP3    H169571   6.066   6.734  17.273 -0.4326  0.5076  0.1021
16052TIP3    H269572   5.977   6.647  17.187  0.5338  0.1353 -0.5299
16053TIP3   OH269573   5.361   0.486   1.175 -0.1242  0.0126  0.0556
16053TIP3    H169574   5.316   0.403   1.159  0.5545 -0.2185 -0.7729
16053TIP3    H269575   5.350   0.503   1.268  0.0431 -1.2079  0.3097
16054TIP3   OH269576   2.156   1.527  11.581  0.0252  0.2476  0.0459
16054TIP3    H169577   2.176   1.434  11.597  1.8306  0.8803  1.9876
16054TIP3    H269578   2.133   1.561  11.667 -0.9226  1.5610 -0.7000
16055TIP3   OH269579   5.947   4.494   2.796  0.4815  0.6831  0.0267
16055TIP3    H169580   5.981   4.404   2.795 -0.9482  0.1078  0.0876
16055TIP3    H269581   5.943   4.517   2.889  0.1029  0.5046  0.0560
16056TIP3   OH269582   5.500   2.232  14.026  0.0551  0.3090  0.5743
16056TIP3    H169583   5.580   2.217  14.077  0.5531  2.2931  0.4676
16056TIP3    H269584   5.496   2.327  14.015 -0.5129  0.0563 -2.2997
16057TIP3   OH269585   3.219   0.426   5.166  0.2441 -0.3562 -0.6034
16057TIP3    H169586   3.315   0.422   5.170  0.2802  0.6883  2.8865
16057TIP3    H269587   3.199   0.519   5.176 -1.1387 -0.6946 -0.0491
16058TIP3   OH269588   4.950   0.642   2.744  0.0467  0.0490 -0.3302
16058TIP3    H169589   4.964   0.573   2.808  2.7860  0.5704 -0.2562
16058TIP3    H269590   4.994   0.718   2.781  0.2926  0.8064 -2.0985
16059TIP3   OH269591   1.446   6.454  11.445  0.3598 -0.3635 -0.2346
16059TIP3    H169592   1.389   6.480  11.372  0.4595  1.2642  0.2199
16059TIP3    H269593   1.386   6.423  11.513  0.3518 -3.6629 -1.5889
16060TIP3   OH269594   5.618   3.197   6.248  0.0527  0.6903  0.1381
16060TIP3    H169595   5.688   3.258   6.225  0.1075  0.7569  0.4833
16060TIP3    H269596   5.539   3.235   6.210 -0.0450  1.3649  0.9762
16061TIP3   OH269597   5.051   0.602  11.613  0.4248  0.9979 -0.1345
16061TIP3    H169598   4.981   0.574  11.553  0.7701 -2.1909  0.7968
16061TIP3    H269599   5.124   0.623  11.555 -0.3640  1.5036 -0.9857
16062TIP3   OH269600   1.676   4.512   2.990 -0.5671  0.1831 -0.2013
16062TIP3    H169601   1.634   4.545   3.069 -0.2662  1.5402 -0.5715
16062TIP3    H269602   1.708   4.425   3.014 -1.4151  0.1289  0.8251
16063TIP3   OH269603   6.120   4.727  12.517  0.0240 -0.0828  0.0154
16063TIP3    H169604   6.101   4.684  12.601  2.2398 -1.8660 -0.2983
16063TIP3    H269605   6.119   4.657  12.453 -1.0372  1.1661 -1.4195
16064TIP3   OH269606   1.361   6.143  15.766  0.3375  0.2612  0.1719
16064TIP3    H169607   1.347   6.052  15.740 -1.1115  0.2061  1.0083
16064TIP3    H269608   1.418   6.138  15.843  1.3609  0.1686 -0.5756
16065TIP3   OH269609   6.643   0.706  13.062  0.8631  0.0868 -0.1456
16065TIP3    H169610   6.698   0.776  13.097  2.0659 -0.2183 -1.3462
16065TIP3    H269611   6.634   0.727  12.969 -0.4829 -0.2613 -0.1157
16066TIP3   OH269612   6.012   2.767   2.908  0.5151  0.4847  0.0090
16066TIP3    H169613   6.047   2.679   2.917  3.1971  1.4365 -0.2706
16066TIP3    H269614   5.964   2.782   2.989  0.1846 -1.1287  0.1432
16067TIP3   OH269615   3.763   0.284   6.453 -0.2602  0.7394  0.3348
16067TIP3    H169616   3.771   0.192   6.428  2.5892  0.7893  0.7225
16067TIP3    H269617   3.670   0.302   6.447 -0.8301 -1.9595 -0.4773
16068TIP3   OH269618   5.839   4.074   4.308  0.5143 -0.3772  0.0254
16068TIP3    H169619   5.933   4.087   4.296  0.5918 -1.8344 -1.3261
16068TIP3    H269620   5.801   4.162   4.298  1.7043  0.2225  0.5501
16069TIP3   OH269621   1.362   0.784  13.993 -0.3756 -0.0399 -0.3148
16069TIP3    H169622   1.390   0.847  14.059  0.3612 -0.0465 -0.6108
16069TIP3    H269623   1.348   0.837  13.914 -2.2612  0.1294  0.0863
16070TIP3   OH269624   4.087   3.389  16.563 -0.4212 -0.3719 -0.3132
16070TIP3    H169625   4.170   3.348  16.540 -0.5543 -0.0708 -1.3809
16070TIP3    H269626   4.042   3.402  16.480 -1.0696  0.4807  0.1421
16071TIP3   OH269627   4.499   1.381  11.661  0.1151 -0.6834 -0.2570
16071TIP3    H169628   4.464   1.414  11.578 -0.0896 -1.3997 -0.4628
16071TIP3    H269629   4.587   1.351  11.639  0.0224 -0.9698 -0.2382
16072TIP3   OH269630   5.069   4.870   4.062 -0.3590 -0.0800  0.3034
16072TIP3    H169631   5.066   4.964   4.074 -1.3365  0.0345 -0.6390
16072TIP3    H269632   5.009   4.853   3.989  0.9104 -1.2751 -0.5151
16073TIP3   OH269633   2.153   1.577  13.968 -0.1549  0.1647 -0.0008
16073TIP3    H169634   2.192   1.663  13.979 -0.2559  0.0310  1.6684
16073TIP3    H269635   2.099   1.565  14.046 -1.3543 -0.7920 -0.9215
16074TIP3   OH269636   4.791   3.121   2.052  0.0268 -0.2865 -0.0849
16074TIP3    H169637   4.738   3.176   2.110 -1.3191 -0.4377 -1.1473
16074TIP3    H269638   4.881   3.152   2.066 -0.3212 -0.0051  1.7159
16075TIP3   OH269639   0.532   3.811  13.015 -0.3875 -0.0206 -0.6091
16075TIP3    H169640   0.555   3.782  13.103  1.5390  0.0842 -1.0242
16075TIP3    H269641   0.513   3.731  12.967 -1.1586 -0.0989 -0.1731
16076TIP3   OH269642   3.585   3.826   4.537  0.4049  0.0443 -0.5211
16076TIP3    H169643   3.551   3.739   4.559  1.2918 -0.6792 -1.9124
16076TIP3    H269644   3.509   3.883   4.541 -0.5395 -1.1177 -1.2888
16077TIP3   OH269645   0.738   6.631   2.152 -0.1449 -0.3801 -0.5728
16077TIP3    H169646   0.712   6.700   2.092  1.7652  0.1390 -0.8657
16077TIP3    H269647   0.737   6.672   2.238  0.5491 -0.1114 -0.6915
16078TIP3   OH269648   3.723   0.238   0.297 -0.0196 -0.0209  0.6805
16078TIP3    H169649   3.754   0.148   0.287 -2.4974 -0.9691  1.0217
16078TIP3    H269650   3.786   0.278   0.357  0.8841 -1.6374  0.8676
16079TIP3   OH269651   1.884   1.726  11.962  0.6659 -0.4759 -0.3618
16079TIP3    H169652   1.880   1.692  12.051 -0.3962 -0.6347 -0.4505
16079TIP3    H269653   1.975   1.717  11.936  1.1234  0.2100  0.9496
16080TIP3   OH269654   3.063   0.985  14.420  0.0740 -0.0182 -0.5351
16080TIP3    H169655   3.127   0.915  14.437  0.6828  0.2778 -1.5838
16080TIP3    H269656   3.016   0.956  14.342 -1.4423 -0.4675  0.4893
16081TIP3   OH269657   4.415   1.469  13.423 -0.4005  0.4931 -0.0560
16081TIP3    H169658   4.364   1.550  13.423 -1.1689  0.0390 -1.5081
16081TIP3    H269659   4.351   1.400  13.438  0.1852  0.1016  0.7403
16082TIP3   OH269660   3.139   0.568  16.630  0.0535 -0.4806 -0.3630
16082TIP3    H169661   3.058   0.565  16.682  0.3233  1.8190  0.3359
16082TIP3    H269662   3.119   0.517  16.552 -0.8766 -2.8352  1.2881
16083TIP3   OH269663   1.607   3.208  15.408 -0.0570 -0.1400  0.0805
16083TIP3    H169664   1.670   3.169  15.469 -0.3456 -0.0457  0.4485
16083TIP3    H269665   1.522   3.199  15.453 -0.3612 -0.6139 -0.5722
16084TIP3   OH269666   6.643   4.299  15.638  0.1705  0.2135 -0.2008
16084TIP3    H169667   6.693   4.260  15.710  0.0069  0.5596  0.0977
16084TIP3    H269668   6.581   4.231  15.613 -2.1506  1.2446  2.2660
16085TIP3   OH269669   1.653   0.424  16.523  0.6601  0.5291 -0.3443
16085TIP3    H169670   1.742   0.390  16.535  0.0213 -1.0657  0.1535
16085TIP3    H269671   1.630   0.461  16.608  0.4438 -0.0873 -0.1300
16086TIP3   OH269672   3.858   2.945  12.533  0.0202 -0.5273 -0.7044
16086TIP3    H169673   3.807   2.949  12.452  0.9141 -1.3281 -1.3195
16086TIP3    H269674   3.795   2.971  12.601 -1.3091 -1.7845 -1.3960
16087TIP3   OH269675   1.076   3.814  14.177  0.9630 -0.1362 -0.1688
16087TIP3    H169676   1.091   3.739  14.120 -0.4145 -0.3006 -0.3588
16087TIP3    H269677   1.029   3.877  14.122  0.9070  0.3022  0.3663
16088TIP3   OH269678   3.606   3.338   1.042 -0.0540 -0.1689 -0.6327
16088TIP3    H169679   3.561   3.307   0.964 -0.6240 -0.0068 -0.3755
16088TIP3    H269680   3.698   3.316   1.028  0.5761  3.2525 -3.1063
16089TIP3   OH269681   2.315   0.222   5.555  0.1267  0.0256  0.5176
16089TIP3    H169682   2.404   0.220   5.588  1.0556  1.0973 -1.6868
16089TIP3    H269683   2.324   0.204   5.461 -1.8677  0.9227  0.0969
16090TIP3   OH269684   3.060   2.929   6.673  0.0583 -0.0444 -0.3869
16090TIP3    H169685   3.023   3.002   6.623 -0.1252  0.4749  0.4919
16090TIP3    H269686   3.055   2.855   6.613 -0.9670  0.3643 -0.8336
16091TIP3   OH269687   1.488   0.195   2.531  0.1577  0.0469  0.4380
16091TIP3    H169688   1.563   0.189   2.590  0.2971 -2.6472  0.1065
16091TIP3    H269689   1.433   0.120   2.554  0.2482 -1.1545 -2.8214
16092TIP3   OH269690   3.216   0.754  17.025  0.3863  0.4510 -0.1817
16092TIP3    H169691   3.242   0.804  16.948  0.0596 -0.0575 -0.6382
16092TIP3    H269692   3.293   0.703  17.049  0.7868  1.3218  0.4197
16093TIP3   OH269693   3.794   5.066   5.219 -0.5057  0.2787 -0.2741
16093TIP3    H169694   3.887   5.091   5.218 -0.2210 -0.5961  1.1495
16093TIP3    H269695   3.751   5.133   5.167  0.7942  1.3426 -0.0454
16094TIP3   OH269696   2.542   5.751  14.990 -0.4628  0.3055  0.2160
16094TIP3    H169697   2.554   5.828  15.046  0.4277  1.3133 -1.3109
16094TIP3    H269698   2.591   5.682  15.034  0.5588  1.1806  0.4918
16095TIP3   OH269699   5.497   0.746   2.253 -0.0588  0.1388  0.2472
16095TIP3    H169700   5.572   0.690   2.236 -0.2786  0.0016 -0.2825
16095TIP3    H269701   5.530   0.813   2.312  0.4238 -0.0483  0.1924
16096TIP3   OH269702   2.298   1.722  14.892 -0.6946 -0.4005  0.0950
16096TIP3    H169703   2.372   1.661  14.888 -0.1093  0.2217  0.9400
16096TIP3    H269704   2.311   1.770  14.974 -1.3963  0.5311 -0.3166
16097TIP3   OH269705   2.218   6.378  16.701 -0.3111  0.2151  0.0648
16097TIP3    H169706   2.235   6.285  16.687 -1.3258  0.2320 -1.5610
16097TIP3    H269707   2.126   6.381  16.727  0.0400  0.6974  1.3485
16098TIP3   OH269708   3.508   0.291   1.528  0.2225  0.1015 -0.4390
16098TIP3    H169709   3.456   0.221   1.567  0.0509  0.5638  0.1771
16098TIP3    H269710   3.599   0.263   1.541  0.2157  0.8859  1.5537
16099TIP3   OH269711   6.197   0.867   2.585 -0.4047 -0.0974  0.0421
16099TIP3    H169712   6.233   0.827   2.506  0.2384 -0.9633  0.7498
16099TIP3    H269713   6.273   0.887   2.639 -0.7970  1.0427  0.2084
16100TIP3   OH269714   4.415   3.364  15.006  0.2819  0.2371  0.5951
16100TIP3    H169715   4.498   3.318  15.015  0.1619  0.2666  2.1654
16100TIP3    H269716   4.353   3.313  15.058 -0.6137  0.4010 -0.2747
16101TIP3   OH269717   2.615   5.880   1.975  0.2036 -0.9572  0.0970
16101TIP3    H169718   2.529   5.862   2.013  0.5303  0.5733  1.7128
16101TIP3    H269719   2.607   5.970   1.942  0.9512 -1.0902 -0.4519
16102TIP3   OH269720   2.871   2.214  12.938 -0.0042  0.0454 -0.0493
16102TIP3    H169721   2.960   2.180  12.928  0.5476  1.1700  0.7758
16102TIP3    H269722   2.817   2.136  12.956  0.9784 -0.5462  0.4050
16103TIP3   OH269723   6.081   1.319  13.701 -0.4427  0.5427 -0.0705
16103TIP3    H169724   6.020   1.292  13.632  0.8148 -1.2208 -0.5823
16103TIP3    H269725   6.160   1.268  13.683 -0.1996 -0.3397  2.9578
16104TIP3   OH269726   2.153   4.783   2.314 -0.0864 -0.0075 -0.2788
16104TIP3    H169727   2.140   4.688   2.311  0.6075 -0.0958 -0.7965
16104TIP3    H269728   2.230   4.798   2.259  0.1911  0.7849  0.3059
16105TIP3   OH269729   3.645   3.616   3.498 -0.3785 -0.5578  0.5639
16105TIP3    H169730   3.739   3.606   3.482 -0.2886 -1.9617  1.7761
16105TIP3    H269731   3.618   3.531   3.531 -1.8464  0.1994  1.3748
16106TIP3   OH269732   6.507   5.794  13.948  0.3892 -0.2591  0.4262
16106TIP3    H169733   6.511   5.836  13.862  1.6908 -0.9480  0.1277
16106TIP3    H269734   6.462   5.711  13.932 -3.6287  1.5441  1.2942
16107TIP3   OH269735   5.354   5.348  16.522 -0.0561  0.5344  0.3164
16107TIP3    H169736   5.264   5.352  16.555  0.1051  1.6748  0.6656
16107TIP3    H269737   5.378   5.439  16.505  0.5295  0.1242 -1.2007
16108TIP3   OH269738   1.489   0.807  15.891  0.6066  0.3768  0.0518
16108TIP3    H169739   1.441   0.814  15.809 -1.7354 -0.3548  1.2785
16108TIP3    H269740   1.429   0.842  15.957  2.6203  1.4681  1.4358
16109TIP3   OH269741   3.972   6.296  15.649 -0.2152  0.1927  0.3947
16109TIP3    H169742   4.040   6.339  15.596 -1.1682 -0.3120 -1.3278
16109TIP3    H269743   4.020   6.234  15.703  0.6012 -2.3364 -2.8910
16110TIP3   OH269744   5.813   4.382  14.985 -1.1090  0.2206 -0.2392
16110TIP3    H169745   5.797   4.302  14.935  1.6234 -2.5568  2.8635
16110TIP3    H269746   5.746   4.380  15.054  0.0836 -0.5068  0.9398
16111TIP3   OH269747   4.965   0.354   1.336  0.1945  0.6084 -0.1635
16111TIP3    H169748   4.886   0.304   1.315  0.1717  0.7275 -0.3733
16111TIP3    H269749   5.001   0.377   1.250  0.3020  0.7963 -0.0680
16112TIP3   OH269750   2.160   4.369   5.663  0.3624  0.5962 -0.2600
16112TIP3    H169751   2.175   4.437   5.728 -0.9598  1.0112 -0.3673
16112TIP3    H269752   2.248   4.340   5.638  1.0039 -1.8228  3.9529
16113TIP3   OH269753   4.221   1.428  15.820 -0.0354 -0.2094 -0.6183
16113TIP3    H169754   4.171   1.508  15.807 -0.1477 -0.0193  0.8131
16113TIP3    H269755   4.268   1.415  15.738 -1.1584  0.5037 -1.3949
16114TIP3   OH269756   0.946   4.803  11.010 -0.1071  0.0788  0.3328
16114TIP3    H169757   0.925   4.722  11.055 -1.2488  0.0930 -0.1544
16114TIP3    H269758   0.870   4.859  11.022 -0.5013  0.0561 -1.6328
16115TIP3   OH269759   0.285   6.456  13.826  0.4007 -0.0083 -0.6223
16115TIP3    H169760   0.216   6.464  13.761 -2.1489  3.5615  2.1038
16115TIP3    H269761   0.265   6.375  13.873 -0.5612 -0.1793 -1.3098
16116TIP3   OH269762   4.435   6.006  13.562  0.0287 -0.6604  0.0934
16116TIP3    H169763   4.497   5.984  13.631  0.3338  0.8971  0.3580
16116TIP3    H269764   4.477   6.077  13.513 -2.0238  1.3991  1.1143
16117TIP3   OH269765   3.244   0.237   5.466  1.0042 -0.0911  0.5128
16117TIP3    H169766   3.323   0.185   5.479  0.9510 -0.4923 -0.6808
16117TIP3    H269767   3.177   0.173   5.440  0.8825  0.5304 -0.7630
16118TIP3   OH269768   2.561   4.229  13.786 -0.0158 -0.2379  0.3455
16118TIP3    H169769   2.559   4.296  13.717  0.3739  0.3778  0.9151
16118TIP3    H269770   2.571   4.279  13.867 -0.3550 -0.9600  0.8404
16119TIP3   OH269771   2.136   4.802   4.810  0.4868  0.0706 -0.1415
16119TIP3    H169772   2.056   4.854   4.811  0.2233 -0.3369  1.0302
16119TIP3    H269773   2.204   4.861   4.840  0.8552  0.7081 -2.0490
16120TIP3   OH269774   1.041   6.248   3.076  0.7215  1.0830  0.6941
16120TIP3    H169775   1.102   6.231   3.004  0.7581  1.0480  0.7335
16120TIP3    H269776   1.021   6.161   3.111  1.0955  1.1349  1.0512
16121TIP3   OH269777   3.704   3.002   1.852 -0.0764 -0.1887  0.3484
16121TIP3    H169778   3.748   3.080   1.886  0.0031  0.3070 -0.8409
16121TIP3    H269779   3.772   2.954   1.805 -0.3296 -0.5416  0.3341
16122TIP3   OH269780   2.132   2.825   3.380  0.1219  0.4663  0.2669
16122TIP3    H169781   2.101   2.759   3.443  0.3759  0.2779  0.1962
16122TIP3    H269782   2.156   2.774   3.302 -0.5313  0.7295 -0.1175
16123TIP3   OH269783   3.312   4.198   6.242  0.1652  0.0107  0.2631
16123TIP3    H169784   3.312   4.122   6.302  1.2097 -1.5427 -1.5955
16123TIP3    H269785   3.379   4.256   6.278 -0.8976  0.2944  1.9278
16124TIP3   OH269786   1.594   3.334   4.516  0.0490  0.7280 -0.5768
16124TIP3    H169787   1.677   3.377   4.534  1.2504 -1.2599 -1.0303
16124TIP3    H269788   1.586   3.335   4.421  0.4354 -0.5850 -0.6388
16125TIP3   OH269789   4.055   0.422  11.253  0.3063  0.2416 -0.1611
16125TIP3    H169790   4.062   0.510  11.290 -2.3620  0.3440  0.2392
16125TIP3    H269791   4.047   0.436  11.159  1.2579  0.3070 -0.2459
16126TIP3   OH269792   5.830   0.100  11.306 -0.0101  0.6711  0.7475
16126TIP3    H169793   5.867   0.013  11.289 -0.0614  1.1796 -2.7578
16126TIP3    H269794   5.737   0.084  11.321  0.2330  0.0466  1.7486
16127TIP3   OH269795   6.078   4.490  14.989  0.2993 -0.2034 -0.0637
16127TIP3    H169796   6.085   4.525  15.078  0.4447  1.7963 -0.8064
16127TIP3    H269797   5.992   4.448  14.987  0.5566 -0.8499  1.1870
16128TIP3   OH269798   6.403   0.778  14.922 -0.6183  0.2017 -0.2410
16128TIP3    H169799   6.370   0.697  14.960 -0.5608  0.2188 -0.1516
16128TIP3    H269800   6.439   0.826  14.997 -0.9442  0.4517 -0.2424
16129TIP3   OH269801   0.552   1.735   1.564  0.1340 -0.0786 -0.3912
16129TIP3    H169802   0.474   1.727   1.620 -0.0343 -0.1798 -0.6393
16129TIP3    H269803   0.535   1.813   1.511  0.3174  0.0475 -0.2634
16130TIP3   OH269804   3.265   0.506  12.663 -0.4117  0.0846  0.3398
16130TIP3    H169805   3.324   0.571  12.701 -0.5383 -0.0168  0.7180
16130TIP3    H269806   3.177   0.540  12.680 -0.4793  1.1666 -1.8407
16131TIP3   OH269807   4.409   3.220  16.922 -0.2292 -0.4887  0.3038
16131TIP3    H169808   4.462   3.287  16.879 -0.0115 -1.7837 -1.6000
16131TIP3    H269809   4.405   3.246  17.014  1.5525  1.0074 -0.0021
16132TIP3   OH269810   0.441   1.954   5.030  0.3017  0.5025  0.0888
16132TIP3    H169811   0.352   1.939   4.997  0.3932  0.3502 -0.0919
16132TIP3    H269812   0.431   2.025   5.093  0.2445  1.3499 -0.8437
16133TIP3   OH269813   2.499   2.715   0.850 -0.3601  0.2128 -0.3128
16133TIP3    H169814   2.529   2.730   0.760 -0.7095  0.0231 -0.4632
16133TIP3    H269815   2.405   2.734   0.847 -0.3993  0.0657 -0.0186
16134TIP3   OH269816   5.927   4.517   5.984  0.5322  0.5030 -0.3971
16134TIP3    H169817   5.927   4.454   6.056 -0.1962  2.6425  1.5838
16134TIP3    H269818   5.924   4.463   5.905 -0.6394 -1.9232  1.1868
16135TIP3   OH269819   0.208   0.788  15.270  0.1208  0.0876  0.6598
16135TIP3    H169820   0.228   0.769  15.362 -1.3794 -0.2896  0.9313
16135TIP3    H269821   0.249   0.716  15.221  0.1442 -0.2194  1.1224
16136TIP3   OH269822   4.083   5.396   6.520 -0.3182 -0.6084  0.1966
16136TIP3    H169823   4.021   5.343   6.569 -0.1001 -0.7808  0.2858
16136TIP3    H269824   4.129   5.334   6.464 -1.6271 -0.2378 -1.3904
16137TIP3   OH269825   6.129   5.675  14.061 -0.4412  0.2888 -0.3972
16137TIP3    H169826   6.098   5.763  14.085  0.3775  1.0335 -1.9215
16137TIP3    H269827   6.224   5.679  14.073 -0.5584 -0.9732  1.1980
16138TIP3   OH269828   3.997   2.908  14.540 -0.1950 -0.2872  0.3883
16138TIP3    H169829   3.939   2.880  14.470  1.3954 -4.1265  0.3547
16138TIP3    H269830   4.079   2.930  14.496 -0.3260  1.1133  0.7871
16139TIP3   OH269831   2.499   4.004  16.761  0.0626 -0.5692 -0.7491
16139TIP3    H169832   2.535   4.000  16.672 -0.7677  2.5161 -1.3246
16139TIP3    H269833   2.404   4.002  16.748 -0.0674  0.2078  0.0189
16140TIP3   OH269834   6.075   2.357   4.520  0.2876  0.2762 -0.2272
16140TIP3    H169835   5.989   2.333   4.485  1.0469  0.7702 -2.6457
16140TIP3    H269836   6.119   2.273   4.535 -0.6308  0.0191  1.1730
16141TIP3   OH269837   6.546   4.773   0.553 -0.0660  0.0532  0.2164
16141TIP3    H169838   6.482   4.713   0.515  1.4108 -1.2015 -0.3438
16141TIP3    H269839   6.628   4.754   0.508  1.1893  0.2160  2.2967
16142TIP3   OH269840   0.700   6.553   2.961 -0.8654 -0.0752 -0.4793
16142TIP3    H169841   0.619   6.578   3.005 -2.3136 -1.3050 -2.2516
16142TIP3    H269842   0.704   6.458   2.970 -0.9715 -0.3154 -2.4922
16143TIP3   OH269843   0.349   2.128  11.087 -0.1993  0.2087 -0.0522
16143TIP3    H169844   0.333   2.108  11.180  0.4952 -0.7996 -0.1280
16143TIP3    H269845   0.436   2.168  11.087 -1.3496  2.9447  0.0301
16144TIP3   OH269846   5.442   5.772   2.659 -0.2826 -0.1517  0.1690
16144TIP3    H169847   5.517   5.810   2.612 -0.0462 -0.9028 -0.0726
16144TIP3    H269848   5.480   5.733   2.737 -0.4448 -0.4325  0.1055
16145TIP3   OH269849   4.602   1.675   5.100  0.2073  0.4719  0.2974
16145TIP3    H169850   4.607   1.755   5.049  1.4020 -0.7444 -1.6417
16145TIP3    H269851   4.631   1.700   5.187  1.7632  1.9255 -0.5755
16146TIP3   OH269852   5.218   1.838   6.461  0.1377  0.3179 -0.1788
16146TIP3    H169853   5.291   1.819   6.402  0.9296  1.4311  0.4043
16146TIP3    H269854   5.258   1.883   6.536 -0.8683 -0.8437  1.1116
16147TIP3   OH269855   6.350   0.240  16.539  0.0244 -0.1743  0.3294
16147TIP3    H169856   6.416   0.173  16.553  1.5224  1.2232  0.3236
16147TIP3    H269857   6.339   0.281  16.625 -1.5231 -0.9621  0.5320
16148TIP3   OH269858   2.911   4.985  15.446 -0.3442 -0.2297  0.4976
16148TIP3    H169859   2.943   4.895  15.448  0.7466  0.1572  1.9376
16148TIP3    H269860   2.987   5.036  15.415 -1.3934  0.0716 -1.8155
16149TIP3   OH269861   5.810   2.417  14.541  0.0072 -0.3663  0.0968
16149TIP3    H169862   5.887   2.362  14.536  1.4581  1.5813 -0.3156
16149TIP3    H269863   5.759   2.382  14.615  1.3473 -1.5900  0.4701
16150TIP3   OH269864   1.703   3.135  15.941  0.3186  0.5917  0.4308
16150TIP3    H169865   1.698   3.091  16.026  2.7517 -1.3996 -0.3298
16150TIP3    H269866   1.764   3.207  15.954  0.0631  0.7921  0.5378
16151TIP3   OH269867   2.127   2.512  17.021 -0.4219  0.4405  0.7944
16151TIP3    H169868   2.148   2.459  17.098  0.9900 -0.3372 -0.0946
16151TIP3    H269869   2.164   2.463  16.947 -3.1140  0.3395 -0.6124
16152TIP3   OH269870   3.105   2.933  13.361 -0.3804  0.0973 -0.3711
16152TIP3    H169871   3.067   2.845  13.353  2.1610 -1.1406 -0.1856
16152TIP3    H269872   3.164   2.926  13.436  0.6028  1.6803 -0.9542
16153TIP3   OH269873   0.641   2.761  14.791  0.1763  0.6337 -0.0520
16153TIP3    H169874   0.594   2.790  14.713  0.2542 -1.3521 -0.9120
16153TIP3    H269875   0.634   2.665  14.789 -0.3991  0.5326  2.7674
16154TIP3   OH269876   5.831   1.690   3.537  0.2359  0.6342 -0.3709
16154TIP3    H169877   5.892   1.619   3.523  0.5495  0.8971 -0.3503
16154TIP3    H269878   5.768   1.683   3.465 -0.5673 -0.5141  0.4153
16155TIP3   OH269879   4.689   4.570   3.792 -0.1149 -0.3488  0.6687
16155TIP3    H169880   4.688   4.538   3.702  1.3575  2.3382 -0.4495
16155TIP3    H269881   4.771   4.619   3.799  0.4563 -1.5399  3.9333
16156TIP3   OH269882   3.745   2.314   1.905  0.2078 -0.4306  0.0482
16156TIP3    H169883   3.826   2.359   1.931  0.3355 -0.6765  0.0747
16156TIP3    H269884   3.694   2.308   1.986 -0.7059  1.4783 -0.3173
16157TIP3   OH269885   4.073   2.296   5.583 -0.0169 -0.2107  0.3521
16157TIP3    H169886   4.008   2.266   5.520 -0.7522  1.2538  0.3478
16157TIP3    H269887   4.150   2.241   5.568 -0.0859  0.2308 -1.9864
16158TIP3   OH269888   4.673   4.493  14.238 -0.2299  0.4956  0.0439
16158TIP3    H169889   4.747   4.554  14.240  0.9588 -0.9001 -0.1466
16158TIP3    H269890   4.612   4.531  14.174  1.2454  0.6445 -1.3257
16159TIP3   OH269891   2.807   1.948  12.970 -0.5573  0.4035 -0.6621
16159TIP3    H169892   2.732   1.895  12.997  0.3294 -0.4634  0.2041
16159TIP3    H269893   2.859   1.890  12.914 -0.4151  0.9201 -1.0735
16160TIP3   OH269894   1.633   0.840   4.236  0.8803  0.6557  0.0764
16160TIP3    H169895   1.719   0.815   4.202  1.5064  0.8858  1.4449
16160TIP3    H269896   1.627   0.934   4.218  0.1787  0.3410 -1.5252
16161TIP3   OH269897   6.673   6.086   4.812 -0.0227 -0.0093  0.5065
16161TIP3    H169898   6.759   6.113   4.778  0.7392  0.2551  2.5423
16161TIP3    H269899   6.612   6.150   4.774  0.0433 -2.0350 -3.6018
16162TIP3   OH269900   4.699   4.012   6.179  0.4992 -0.2313 -0.6660
16162TIP3    H169901   4.743   4.038   6.260  0.1197 -1.0247 -0.1965
16162TIP3    H269902   4.754   4.047   6.110 -0.3839  2.6117 -0.1127
16163TIP3   OH269903   2.705   6.135   4.928 -0.3085  0.0893 -0.5131
16163TIP3    H169904   2.737   6.055   4.969  1.3175  0.9041 -0.1149
16163TIP3    H269905   2.783   6.175   4.890 -1.2913  0.9007 -1.7438
16164TIP3   OH269906   3.910   4.691   3.325  0.1629 -0.1185 -0.4979
16164TIP3    H169907   3.953   4.692   3.410 -2.1544  0.5806  0.7710
16164TIP3    H269908   3.940   4.770   3.281  0.7946 -0.0814 -0.0055
16165TIP3   OH269909   6.407   0.132  11.036  0.3070  0.2170 -0.2094
16165TIP3    H169910   6.382   0.214  10.992 -0.6590  0.2867  0.4419
16165TIP3    H269911   6.391   0.064  10.970  0.6117  0.4956 -0.5755
16166TIP3   OH269912   1.668   4.556  13.183  0.1610  0.2630  0.1919
16166TIP3    H169913   1.641   4.590  13.097  1.2032 -0.3882 -0.4220
16166TIP3    H269914   1.622   4.612  13.246 -2.5640 -0.7234 -0.7380
16167TIP3   OH269915   2.227   5.149   1.704 -0.0859  0.6287  0.0283
16167TIP3    H169916   2.228   5.175   1.612 -0.4151 -0.0922 -0.1883
16167TIP3    H269917   2.269   5.064   1.706 -0.1825  0.5867  0.5304
16168TIP3   OH269918   4.949   4.624   4.201  0.4754 -0.0551 -0.0048
16168TIP3    H169919   5.024   4.565   4.213  1.1763  1.0737  1.6661
16168TIP3    H269920   4.982   4.693   4.144  1.2669  1.1909  1.8270
16169TIP3   OH269921   0.453   1.531  12.867  0.1365  0.8119  0.3814
16169TIP3    H169922   0.368   1.565  12.896 -0.3109  1.2342 -1.3280
16169TIP3    H269923   0.459   1.557  12.776  1.7835  0.1102  0.2639
16170TIP3   OH269924   0.026   3.555   2.223  0.2576 -0.4532 -0.0008
16170TIP3    H169925   0.092   3.596   2.278  0.3651 -0.8101  0.1383
16170TIP3    H269926  -0.035   3.514   2.284 -1.5151  1.9625 -0.0090
16171TIP3   OH269927   6.430   0.517   1.927 -0.2284 -0.1193 -0.1826
16171TIP3    H169928   6.395   0.428   1.934 -1.1182  0.3170  1.7113
16171TIP3    H269929   6.369   0.562   1.869  0.3201 -0.7774 -1.2853
16172TIP3   OH269930   6.660   1.784   4.252 -0.6310 -0.2930 -1.0092
16172TIP3    H169931   6.693   1.757   4.338 -2.5910 -1.5710 -0.5975
16172TIP3    H269932   6.567   1.759   4.253 -0.3688 -1.8876 -4.0761
16173TIP3   OH269933   3.523   3.734  12.557  0.1100  0.1664  0.5274
16173TIP3    H169934   3.494   3.809  12.608  0.2434  0.8689 -0.4007
16173TIP3    H269935   3.573   3.772  12.485  1.6349 -0.8992  0.9728
16174TIP3   OH269936   5.974   4.771   1.244  0.4296  0.0070 -0.0833
16174TIP3    H169937   5.929   4.737   1.167  2.1851 -2.8897  0.0125
16174TIP3    H269938   5.992   4.863   1.223  1.1823 -0.7537 -3.3263
16175TIP3   OH269939   2.730   1.870   4.509 -0.6460 -0.1457  0.1213
16175TIP3    H169940   2.779   1.912   4.580 -1.2331  1.9780 -0.6535
16175TIP3    H269941   2.641   1.861   4.543 -0.6607 -0.2262  0.0624
16176TIP3   OH269942   1.359   2.158   4.399  0.0319 -0.1830  0.3718
16176TIP3    H169943   1.435   2.214   4.387 -0.0738  0.0352  0.6995
16176TIP3    H269944   1.393   2.069   4.393  0.0474 -0.0984 -1.1139
16177TIP3   OH269945   2.392   3.885   2.485 -0.3475  0.6681 -0.0901
16177TIP3    H169946   2.406   3.803   2.531  1.7108  0.7289 -0.5388
16177TIP3    H269947   2.326   3.864   2.418  0.6777 -0.8191 -0.6777
16178TIP3   OH269948   4.516   4.473  15.768 -0.4483  0.2007 -0.1454
16178TIP3    H169949   4.562   4.443  15.846 -1.0132  0.0262  0.1258
16178TIP3    H269950   4.566   4.549  15.738  0.5318 -0.5069 -0.3722
16179TIP3   OH269951   1.931   3.455  17.323 -0.0424 -0.0379  0.2458
16179TIP3    H169952   1.965   3.500  17.400  2.2142 -1.3980  0.1221
16179TIP3    H269953   1.970   3.368  17.326  1.8235  0.4698 -3.4682
16180TIP3   OH269954   5.189   6.659   3.510  0.7993  0.0220 -0.6247
16180TIP3    H169955   5.229   6.718   3.574  0.6645 -2.9100  2.4154
16180TIP3    H269956   5.096   6.685   3.508  1.3459  2.2344 -2.3171
16181TIP3   OH269957   6.644   3.397   5.234 -0.0529  0.0658  0.4150
16181TIP3    H169958   6.678   3.483   5.209 -0.4451  0.6142  1.6723
16181TIP3    H269959   6.604   3.363   5.154 -2.1491  2.1693  0.4597
16182TIP3   OH269960   0.047   4.408  15.955  0.2068 -0.4031  0.5632
16182TIP3    H169961   0.137   4.439  15.943  0.2852 -0.1910  1.5993
16182TIP3    H269962   0.042   4.329  15.902  0.9165 -0.2609  0.2683
16183TIP3   OH269963   4.854   1.812  16.488  0.3406 -0.1768  0.2514
16183TIP3    H169964   4.781   1.760  16.521 -1.6072  0.9447 -1.9775
16183TIP3    H269965   4.932   1.759  16.505 -0.6955 -0.7475  4.1541
16184TIP3   OH269966   3.083   1.751  12.216  0.0996 -0.6888  0.2159
16184TIP3    H169967   3.112   1.713  12.299 -0.9392  1.0413  1.4223
16184TIP3    H269968   3.139   1.708  12.151 -0.1229 -3.2928  1.5678
16185TIP3   OH269969   6.382   2.668  12.869  0.2450  0.2370 -0.5418
16185TIP3    H169970   6.392   2.673  12.965  0.9803 -0.2039 -0.5886
16185TIP3    H269971   6.313   2.732  12.849 -0.4148 -0.1745  0.3560
16186TIP3   OH269972   4.889   1.479   6.101 -0.1569  0.3302 -0.4253
16186TIP3    H169973   4.955   1.545   6.123  0.7900 -1.1882  1.5808
16186TIP3    H269974   4.806   1.520   6.123  0.4761  0.5625  1.7112
16187TIP3   OH269975   6.564   3.176  15.280  0.6816 -0.0125  0.3819
16187TIP3    H169976   6.651   3.149  15.310  0.4715  0.4091  1.3949
16187TIP3    H269977   6.562   3.271  15.293  0.0568 -0.0238  0.4180
16188TIP3   OH269978   4.229   1.291   2.478 -0.4819  0.2431 -0.1404
16188TIP3    H169979   4.190   1.260   2.559  1.1388  0.2376  0.6832
16188TIP3    H269980   4.196   1.380   2.468 -0.9998  0.1068  0.3071
16189TIP3   OH269981   4.977   5.982  11.847  0.3392 -0.0719  0.1336
16189TIP3    H169982   5.048   5.923  11.872  0.4268 -0.8407 -1.8094
16189TIP3    H269983   5.016   6.041  11.782 -0.9067 -0.8422 -1.3607
16190TIP3   OH269984   3.052   5.732  16.292 -0.5038  0.4399 -0.8895
16190TIP3    H169985   3.095   5.669  16.235 -3.1117 -0.6721 -1.7774
16190TIP3    H269986   3.095   5.816  16.271  1.4779 -0.6284 -1.3295
16191TIP3   OH269987   4.664   2.999  12.789 -0.1873  0.3217  0.4871
16191TIP3    H169988   4.643   3.050  12.710  1.7692  1.2626  0.5126
16191TIP3    H269989   4.727   3.053  12.836  2.9317 -2.5249 -0.0200
16192TIP3   OH269990   2.064   4.037  13.148 -0.1867  0.1890 -0.2223
16192TIP3    H169991   1.996   4.099  13.123  0.0749  0.2575 -0.7809
16192TIP3    H269992   2.023   3.982  13.215 -0.4758  0.8449  0.1455
16193TIP3   OH269993   1.895   1.713   1.636 -0.3316  0.4805 -0.4097
16193TIP3    H169994   1.857   1.710   1.724  0.7362  2.0605  0.1690
16193TIP3    H269995   1.821   1.728   1.578 -1.0715 -0.7720  0.1875
16194TIP3   OH269996   1.521   3.897  11.697 -0.2958 -0.0816 -0.4527
16194TIP3    H169997   1.611   3.928  11.685 -0.2927  0.6577  1.1385
16194TIP3    H269998   1.478   3.914  11.614  1.4993 -2.2712 -1.9585
16195TIP3   OH269999   1.231   1.755  13.406  0.0854 -0.1380  0.5212
16195TIP3    H170000   1.310   1.734  13.456 -0.1247  2.4054  2.0915
16195TIP3    H270001   1.160   1.742  13.469 -0.4426  0.5647  0.0745
16196TIP3   OH270002   5.587   1.817  12.720  0.2087  0.0285 -0.4300
16196TIP3    H170003   5.601   1.735  12.766 -1.0943 -0.2359 -0.4858
16196TIP3    H270004   5.629   1.883  12.775 -1.1762 -0.2975  1.0686
16197TIP3   OH270005   2.524   2.907  14.009 -0.5680  0.3107 -0.0703
16197TIP3    H170006   2.603   2.896  14.061 -1.7381  0.1848  1.7920
16197TIP3    H270007   2.508   3.002  14.009 -1.1755  0.2246  0.8194
16198TIP3   OH270008   2.944   5.124  11.611  0.5641  0.0939  0.5946
16198TIP3    H170009   2.897   5.104  11.692  1.4250  0.8396  1.2976
16198TIP3    H270010   2.904   5.205  11.579  2.2775  1.5909  2.0014
16199TIP3   OH270011   3.726   5.526  17.156  0.4252  0.4828  0.1910
16199TIP3    H170012   3.692   5.609  17.125 -0.3872  0.3799  0.7741
16199TIP3    H270013   3.673   5.505  17.234  2.1813  0.5872  1.4735
16200TIP3   OH270014   4.468   6.410  14.545  0.1654  0.0762 -0.5568
16200TIP3    H170015   4.513   6.488  14.514  1.6639 -1.5226 -2.7244
16200TIP3    H270016   4.503   6.339  14.491 -1.9184 -1.9494  0.5701
16201TIP3   OH270017   1.532   1.344   1.079 -0.2671 -0.4847  0.2460
16201TIP3    H170018   1.447   1.301   1.081  0.6341 -2.7326 -2.4258
16201TIP3    H270019   1.593   1.280   1.116  0.8873 -0.9661 -2.2860
16202TIP3   OH270020   2.912   0.092  13.881 -0.7030 -0.4652  0.0228
16202TIP3    H170021   2.820   0.116  13.866 -0.8785 -0.2117  1.3543
16202TIP3    H270022   2.942   0.058  13.797 -2.0610 -0.6998 -0.3956
16203TIP3   OH270023   0.563   4.958  11.773  0.2703 -0.5053  0.6745
16203TIP3    H170024   0.622   4.950  11.847  1.7782  1.2678 -0.2286
16203TIP3    H270025   0.498   5.023  11.801  1.0073  0.3803  0.3907
16204TIP3   OH270026   1.088   4.557  12.427  0.2136 -0.2414  0.2839
16204TIP3    H170027   1.123   4.497  12.361 -0.2573  0.5981 -0.7448
16204TIP3    H270028   0.993   4.549  12.418  0.1484  0.0311  0.7245
16205TIP3   OH270029   5.736   1.691   4.837 -0.2616  0.4154 -0.2901
16205TIP3    H170030   5.680   1.759   4.874  0.1753 -0.3894  2.0642
16205TIP3    H270031   5.675   1.625   4.804 -0.6767  1.0953 -0.9044
16206TIP3   OH270032   3.671   5.702  16.790 -0.5239 -0.1799  0.0083
16206TIP3    H170033   3.755   5.701  16.744 -0.7843 -1.1296 -0.4678
16206TIP3    H270034   3.607   5.673  16.724 -0.9606 -1.1975  0.8592
16207TIP3   OH270035   5.651   0.968  15.388 -0.3351  0.0323  0.3274
16207TIP3    H170036   5.682   0.880  15.408 -0.8464  0.0178  1.1076
16207TIP3    H270037   5.721   1.026  15.417 -0.1573 -0.1042  0.1660
16208TIP3   OH270038   4.630   4.661   5.465  0.2186 -1.0180 -0.1080
16208TIP3    H170039   4.565   4.626   5.526  1.9765 -1.6985  1.4774
16208TIP3    H270040   4.614   4.615   5.383 -3.3521  1.1608 -0.8609
16209TIP3   OH270041   6.424   1.140   4.499  0.7379  0.1622 -0.3363
16209TIP3    H170042   6.337   1.133   4.538  0.0183 -0.8846 -2.0009
16209TIP3    H270043   6.485   1.129   4.572 -0.5217 -0.6306  0.6344
16210TIP3   OH270044   0.587   5.694   5.044  0.1875  0.6514  0.0420
16210TIP3    H170045   0.506   5.657   5.077  1.0652 -0.6774  0.7794
16210TIP3    H270046   0.644   5.702   5.121  1.2890  0.1242 -0.6883
16211TIP3   OH270047   1.142   6.186  10.910 -0.3846 -0.0292  0.8586
16211TIP3    H170048   1.130   6.120  10.842  1.0821 -0.4081  0.9289
16211TIP3    H270049   1.170   6.265  10.862  0.9452 -0.3825  1.0159
16212TIP3   OH270050   2.519   0.390   1.241 -0.1955  0.1478 -0.2301
16212TIP3    H170051   2.562   0.472   1.265  0.4787  0.4147 -2.1987
16212TIP3    H270052   2.571   0.355   1.168 -2.2790 -0.4271 -1.5402
16213TIP3   OH270053   0.519   1.290   5.428  0.2373  0.1668  0.2590
16213TIP3    H170054   0.565   1.300   5.511  0.5465  0.2813  0.0761
16213TIP3    H270055   0.559   1.213   5.387 -0.2440 -0.1828  0.4264
16214TIP3   OH270056   5.329   5.792   1.805 -0.4627 -0.1343 -0.2028
16214TIP3    H170057   5.400   5.745   1.848 -0.5400 -0.7761 -0.7584
16214TIP3    H270058   5.361   5.882   1.797  0.5418 -0.5475 -0.9967
16215TIP3   OH270059   6.626   4.176  14.235  0.0943 -0.3421  0.4812
16215TIP3    H170060   6.548   4.215  14.275 -0.3128  0.8021 -1.3256
16215TIP3    H270061   6.686   4.250  14.225 -0.3516 -0.2482 -2.2007
16216TIP3   OH270062   3.651   3.824  12.321 -0.0921  0.1522  0.2234
16216TIP3    H170063   3.697   3.792  12.243 -0.3430 -1.9029  0.8505
16216TIP3    H270064   3.569   3.861  12.288  0.1210 -0.0598 -0.5474
16217TIP3   OH270065   5.372   1.380   1.992 -0.1583 -0.5029  0.3066
16217TIP3    H170066   5.309   1.389   1.920 -0.6184 -2.0176  0.4796
16217TIP3    H270067   5.345   1.445   2.057  0.6933  1.3941 -1.1397
16218TIP3   OH270068   0.248   0.105  17.184  0.0041  0.0850 -0.0001
16218TIP3    H170069   0.205   0.139  17.106  0.6479  2.0797  0.4609
16218TIP3    H270070   0.185   0.120  17.254  0.0052 -0.3766  0.1065
16219TIP3   OH270071   1.769   6.521   0.559 -0.2933  0.0081 -0.0689
16219TIP3    H170072   1.691   6.479   0.523 -0.6572  0.2481  0.4253
16219TIP3    H270073   1.750   6.615   0.556 -0.2102  0.0458  0.4688
16220TIP3   OH270074   5.268   0.966   1.418 -0.0919  0.7569  0.1357
16220TIP3    H170075   5.354   0.934   1.392  1.3286  2.4847  2.3065
16220TIP3    H270076   5.239   1.020   1.344  0.4554 -0.2402 -0.8170
16221TIP3   OH270077   6.029   1.482   3.533  0.5793 -0.2872  0.5687
16221TIP3    H170078   6.097   1.436   3.583  1.2634 -1.0886 -1.0124
16221TIP3    H270079   6.066   1.489   3.444 -2.1427 -2.4868 -0.8834
16222TIP3   OH270080   3.561   3.896  11.735  0.0508 -0.1085  0.1858
16222TIP3    H170081   3.628   3.828  11.745  0.3727 -0.6455 -3.9415
16222TIP3    H270082   3.507   3.866  11.662 -2.7799  1.8824  1.3012
16223TIP3   OH270083   4.061   2.753  16.584 -0.1548 -0.1285  0.1746
16223TIP3    H170084   4.056   2.702  16.665  3.3316 -0.2517  0.4723
16223TIP3    H270085   4.027   2.839  16.608  0.4201 -0.2809  1.6702
16224TIP3   OH270086   1.852   3.251   5.813 -0.0938  0.5151  0.0453
16224TIP3    H170087   1.867   3.187   5.743 -0.6821 -0.3335  0.6762
16224TIP3    H270088   1.936   3.255   5.860 -0.1954 -0.1666  0.2968
16225TIP3   OH270089   1.488   6.520   5.844  0.1712  0.0210  0.3604
16225TIP3    H170090   1.526   6.523   5.932  1.6947 -0.0775 -0.2829
16225TIP3    H270091   1.507   6.432   5.812 -1.2058 -0.2659  0.2625
16226TIP3   OH270092   0.370   1.093   2.868 -1.1098 -0.0024 -0.3902
16226TIP3    H170093   0.338   1.179   2.897 -0.6865  1.0204 -2.6574
16226TIP3    H270094   0.412   1.056   2.945 -0.8823  2.0569  0.5597
16227TIP3   OH270095   5.372   5.966   4.217 -0.5424  0.2988 -0.3768
16227TIP3    H170096   5.326   5.920   4.147 -0.4416 -0.2760 -0.0693
16227TIP3    H270097   5.436   6.021   4.171 -0.2810 -0.2878 -0.7350
16228TIP3   OH270098   2.149   5.996   1.609  0.2169  0.0795 -0.2302
16228TIP3    H170099   2.164   6.018   1.518  0.5527 -0.4138 -0.2960
16228TIP3    H270100   2.218   6.042   1.657 -0.1996  0.6637 -0.1792
16229TIP3   OH270101   3.956   2.345  14.526 -0.2217 -0.0147  0.4417
16229TIP3    H170102   3.885   2.337  14.463 -0.2927 -0.1813  0.5417
16229TIP3    H270103   4.023   2.395  14.481 -1.7143  3.1624  1.4006
16230TIP3   OH270104   6.635   0.938  15.049  0.6698 -0.4493  0.0977
16230TIP3    H170105   6.648   0.947  14.954 -1.9126  0.6075 -0.2488
16230TIP3    H270106   6.643   1.027  15.082  0.0619 -0.5886  0.6334
16231TIP3   OH270107   1.218   4.173  14.670 -0.0232  0.0131  0.0794
16231TIP3    H170108   1.179   4.243  14.618  1.8583  0.6134 -0.5895
16231TIP3    H270109   1.253   4.217  14.747  2.2282  0.0677 -0.9083
16232TIP3   OH270110   5.328   6.407  10.471 -0.3510  0.5183 -0.3816
16232TIP3    H170111   5.327   6.466  10.546  0.5228  1.4721 -1.0904
16232TIP3    H270112   5.289   6.458  10.400  3.0398  1.4372 -1.7821
16233TIP3   OH270113   6.471   0.166   5.700 -0.2773 -0.2076 -0.4645
16233TIP3    H170114   6.530   0.100   5.734  1.6506  1.0150 -1.2302
16233TIP3    H270115   6.493   0.173   5.607 -0.2728  1.5961 -0.3804
16234TIP3   OH270116   6.058   3.597   1.812 -0.4871 -0.1353 -0.2708
16234TIP3    H170117   6.086   3.628   1.898 -1.6316  0.8354 -0.2253
16234TIP3    H270118   6.121   3.636   1.751 -0.4614  0.2729  0.0125
16235TIP3   OH270119   4.807   4.162  16.095  0.4354 -0.4207 -0.3621
16235TIP3    H170120   4.846   4.221  16.159 -1.3190  0.0107  0.3636
16235TIP3    H270121   4.865   4.086  16.094  0.9266 -0.0961  1.1625
16236TIP3   OH270122   4.855   2.174   4.959  0.0629 -0.5541  0.3545
16236TIP3    H170123   4.836   2.218   5.042  0.2742 -0.6786  0.4708
16236TIP3    H270124   4.920   2.107   4.982  0.6996 -0.0872 -0.0487
16237TIP3   OH270125   2.285   6.552   0.694  0.0198 -0.3774  0.6311
16237TIP3    H170126   2.241   6.474   0.728 -1.7349 -0.2811 -1.2349
16237TIP3    H270127   2.214   6.614   0.676  1.1223  0.6078 -0.5049
16238TIP3   OH270128   5.884   5.379  12.838  0.4018  0.1120 -0.2988
16238TIP3    H170129   5.814   5.377  12.904 -1.2862 -2.4447 -1.9737
16238TIP3    H270130   5.847   5.431  12.766  0.3173 -0.9704 -1.0570
16239TIP3   OH270131   4.818   3.064  11.745 -0.0384 -0.7672 -0.3779
16239TIP3    H170132   4.816   3.064  11.649 -1.5325  0.1683 -0.3879
16239TIP3    H270133   4.746   3.005  11.770 -0.4921 -0.0086  0.1364
16240TIP3   OH270134   3.441   6.453   3.125 -0.8827 -0.3876  0.4133
16240TIP3    H170135   3.513   6.391   3.111 -0.9530 -0.3586 -0.1008
16240TIP3    H270136   3.410   6.474   3.037  0.6786  2.2094  0.3784
16241TIP3   OH270137   0.266   3.768  14.545  0.1091  0.3277  0.0038
16241TIP3    H170138   0.249   3.726  14.461  1.1173  2.0880 -1.1409
16241TIP3    H270139   0.180   3.803  14.572 -0.2835 -0.5195 -0.1237
16242TIP3   OH270140   3.627   2.581  10.574  0.2301  0.3562 -0.4334
16242TIP3    H170141   3.715   2.605  10.546 -0.1323 -0.2387 -2.2262
16242TIP3    H270142   3.590   2.661  10.611  0.3832  1.5562 -2.7179
16243TIP3   OH270143   1.298   4.139  16.296 -0.4386  0.4021  0.0497
16243TIP3    H170144   1.263   4.055  16.267 -2.4935  1.9656 -2.3188
16243TIP3    H270145   1.382   4.147  16.249  1.3259 -1.5178  2.5900
16244TIP3   OH270146   0.463   6.534  16.695 -0.2748 -0.4882  0.1078
16244TIP3    H170147   0.522   6.581  16.754 -0.8907 -1.0055  1.1680
16244TIP3    H270148   0.516   6.460  16.663  0.3910  0.3767 -0.8227
16245TIP3   OH270149   1.778   2.830   1.135 -0.1015 -0.1546  0.0087
16245TIP3    H170150   1.715   2.902   1.131 -1.6113 -1.4338 -0.0996
16245TIP3    H270151   1.809   2.831   1.225 -3.2971 -1.8842  1.2933
16246TIP3   OH270152   0.937   4.704  11.827  0.1993 -0.4252 -0.2099
16246TIP3    H170153   0.917   4.752  11.907 -1.6864 -1.7255  0.1824
16246TIP3    H270154   1.004   4.642  11.852  0.0640 -0.4060  0.2098
16247TIP3   OH270155   5.710   0.617  14.919 -0.1796 -0.2234 -0.2884
16247TIP3    H170156   5.643   0.554  14.944 -0.3905  0.2769  0.4360
16247TIP3    H270157   5.666   0.701  14.918  0.1637 -0.0405 -0.9888
16248TIP3   OH270158   6.406   3.002  11.462  0.4746  0.3280  0.0111
16248TIP3    H170159   6.320   3.043  11.463 -0.2668 -1.0459 -2.0356
16248TIP3    H270160   6.448   3.035  11.383  1.1241 -0.3723  0.0504
16249TIP3   OH270161   0.854   2.636  11.618 -0.1195 -0.1062 -0.1705
16249TIP3    H170162   0.949   2.647  11.618 -0.3160  1.8515 -0.9886
16249TIP3    H270163   0.835   2.591  11.536  0.0874 -0.5811  0.0356
16250TIP3   OH270164   0.650   6.228   4.075  0.2592  0.0173  0.3015
16250TIP3    H170165   0.734   6.205   4.036 -0.4768 -1.7212 -0.3728
16250TIP3    H270166   0.611   6.290   4.014  0.2139 -0.7229 -0.4438
16251TIP3   OH270167   3.355   2.122  14.574 -0.4727 -0.0618  0.4136
16251TIP3    H170168   3.344   2.217  14.568 -2.2802 -0.2191  0.6958
16251TIP3    H270169   3.442   2.110  14.613  0.6246  1.4166 -1.4373
16252TIP3   OH270170   0.576   4.675   0.773 -0.2744 -0.5395 -0.5077
16252TIP3    H170171   0.632   4.709   0.842 -0.1017  1.6668 -1.6475
16252TIP3    H270172   0.582   4.579   0.782 -0.2559 -0.3652  2.4610
16253TIP3   OH270173   5.468   4.510   5.625 -0.3653 -0.4314 -0.4198
16253TIP3    H170174   5.443   4.484   5.713 -0.7705 -1.9552 -0.9558
16253TIP3    H270175   5.486   4.428   5.579  1.9818  0.4058 -1.1691
16254TIP3   OH270176   3.846   2.060   0.584 -0.5681  0.0508  0.0817
16254TIP3    H170177   3.806   2.126   0.527 -0.6793  0.0811  0.1941
16254TIP3    H270178   3.774   2.030   0.640 -0.7987 -0.9838 -0.7209
16255TIP3   OH270179   5.576   0.452   6.371 -0.6191  0.0392  0.6496
16255TIP3    H170180   5.514   0.514   6.408  0.0197 -0.3768  2.5573
16255TIP3    H270181   5.658   0.471   6.416 -0.5241 -2.4823  1.7015
16256TIP3   OH270182   5.944   1.965  17.056  0.2577 -0.2447 -0.5275
16256TIP3    H170183   5.893   1.978  17.137  1.9088 -1.1988  0.7278
16256TIP3    H270184   5.911   1.883  17.020 -0.3187  0.0625 -0.7172
16257TIP3   OH270185   5.635   5.246   2.300 -0.1557  0.6169  0.1451
16257TIP3    H170186   5.599   5.320   2.348  0.0094  0.4123  0.5850
16257TIP3    H270187   5.636   5.275   2.209  1.0656  1.6342  0.4574
16258TIP3   OH270188   4.017   3.835   1.692 -0.7596 -0.0951  0.3918
16258TIP3    H170189   3.980   3.872   1.772 -2.0032 -1.8681  0.7051
16258TIP3    H270190   3.942   3.799   1.645  0.1520 -0.5022 -0.7969
16259TIP3   OH270191   5.981   5.029   6.655  0.3419 -0.1576  0.0203
16259TIP3    H170192   5.897   5.050   6.613  0.8202 -0.2547 -1.0389
16259TIP3    H270193   5.959   4.972   6.728 -0.4735 -0.5991 -0.5568
16260TIP3   OH270194   5.202   5.243   0.323 -0.3812 -0.2423 -0.8557
16260TIP3    H170195   5.254   5.228   0.244  0.0911  0.5479 -0.7095
16260TIP3    H270196   5.196   5.338   0.330 -0.9642 -0.3111 -0.2843
16261TIP3   OH270197   0.938   2.353  15.155  0.0819  0.8191  0.4292
16261TIP3    H170198   0.983   2.354  15.239  0.9678  0.9440 -0.0317
16261TIP3    H270199   0.848   2.381  15.174 -0.7272 -2.3026  1.8811
16262TIP3   OH270200   1.667   4.037   4.650 -0.1831 -0.0221 -0.9633
16262TIP3    H170201   1.676   3.994   4.566 -0.7797  1.9396 -2.0893
16262TIP3    H270202   1.754   4.074   4.667 -0.4778  0.9731 -1.5456
16263TIP3   OH270203   2.820   2.387  16.438  0.1911 -0.2977  0.2120
16263TIP3    H170204   2.742   2.349  16.480 -0.0648  0.5021  0.4870
16263TIP3    H270205   2.866   2.312  16.400 -0.9629 -0.7262 -0.3767
16264TIP3   OH270206   6.158   1.095  15.769  0.0456  0.0705  0.0707
16264TIP3    H170207   6.092   1.162  15.751  1.0081  0.8864 -0.5815
16264TIP3    H270208   6.241   1.143  15.765  0.6839 -0.9640  0.6786
16265TIP3   OH270209   0.491   2.433  14.460 -0.0340 -0.2473  0.5871
16265TIP3    H170210   0.431   2.476  14.399  0.4227  0.7565  0.8196
16265TIP3    H270211   0.531   2.363  14.409 -0.5772 -0.2130  0.1030
16266TIP3   OH270212   4.723   3.929  16.989 -0.1962 -0.4657 -0.3039
16266TIP3    H170213   4.677   3.849  16.963  0.7461 -0.6057 -1.6519
16266TIP3    H270214   4.805   3.926  16.940 -0.6502  1.9161 -1.3298
16267TIP3   OH270215   1.295   3.683  13.206 -0.6240  0.0506 -0.0815
16267TIP3    H170216   1.253   3.754  13.157 -0.7796 -0.3788 -0.5768
16267TIP3    H270217   1.235   3.665  13.279  1.3190  3.2578  2.6257
16268TIP3   OH270218   0.239   0.320   2.310  0.1205  0.0821 -0.6464
16268TIP3    H170219   0.281   0.280   2.234  0.1826  0.8318 -1.0185
16268TIP3    H270220   0.227   0.412   2.285 -2.0022 -0.1585 -0.6704
16269TIP3   OH270221   6.336   1.853   0.163  0.5509 -0.2114  0.5854
16269TIP3    H170222   6.271   1.814   0.105  0.3396  0.0015  0.6800
16269TIP3    H270223   6.289   1.922   0.209  0.4356 -1.0745  1.8020
16270TIP3   OH270224   2.384   5.708  15.420 -0.7121  0.6891  0.1808
16270TIP3    H170225   2.473   5.706  15.455 -0.7883  0.3792  0.3623
16270TIP3    H270226   2.377   5.628  15.368 -0.5171  1.2692 -0.7559
16271TIP3   OH270227   6.686   4.463   5.239 -0.7803 -0.0329 -0.0679
16271TIP3    H170228   6.731   4.446   5.322 -0.2929 -2.6480 -0.7784
16271TIP3    H270229   6.595   4.438   5.256 -0.9751  0.7298  0.0387
16272TIP3   OH270230   4.896   0.766  14.596  0.5843 -0.0867  0.1488
16272TIP3    H170231   4.867   0.689  14.546  0.4591 -1.9989  2.8988
16272TIP3    H270232   4.819   0.792  14.646  1.0176  0.9680  0.2887
16273TIP3   OH270233   2.872   1.769   2.041  0.7429 -0.9384 -0.0629
16273TIP3    H170234   2.938   1.702   2.022  0.0732 -0.9345 -2.9285
16273TIP3    H270235   2.922   1.851   2.040  0.8757 -1.0090 -1.3902
16274TIP3   OH270236   0.923   0.437  13.664 -0.6333  0.0773  0.0400
16274TIP3    H170237   0.941   0.462  13.573 -0.4499 -0.3320 -0.0394
16274TIP3    H270238   0.884   0.350  13.658  0.7009 -0.5837  0.4248
16275TIP3   OH270239   6.278   1.096  11.125 -0.1535 -0.2139 -0.0353
16275TIP3    H170240   6.226   1.031  11.173  0.5174  0.0656  1.0903
16275TIP3    H270241   6.366   1.060  11.122  0.1461  0.4780  0.2794
16276TIP3   OH270242   4.759   4.276   6.702  0.2011 -0.6799  0.0619
16276TIP3    H170243   4.723   4.341   6.761  2.6657 -0.6727  1.7184
16276TIP3    H270244   4.821   4.226   6.755  0.2231 -2.7957 -1.7573
16277TIP3   OH270245   6.027   2.526   0.040  0.1974  0.1019  0.4812
16277TIP3    H170246   6.100   2.587   0.031  0.4338 -0.3149 -0.5808
16277TIP3    H270247   5.955   2.567  -0.008  0.5752 -0.7672 -0.8759
16278TIP3   OH270248   2.095   6.111  13.266  0.4112 -0.0094  0.2099
16278TIP3    H170249   2.151   6.049  13.220  0.5373 -0.7808  1.3711
16278TIP3    H270250   2.153   6.185  13.287  0.9194 -0.6215  1.0417
16279TIP3   OH270251   2.429   5.489  14.081  0.4198  0.8988  0.4498
16279TIP3    H170252   2.374   5.465  14.007  1.1780  0.7374 -0.0657
16279TIP3    H270253   2.451   5.581  14.066  0.9128  0.7502  0.2580
16280TIP3   OH270254   1.328   6.243  16.445 -0.3516  0.5198  0.4659
16280TIP3    H170255   1.331   6.154  16.480  2.2265  0.8936  1.3672
16280TIP3    H270256   1.369   6.235  16.359 -1.4119  0.6338 -0.0707
16281TIP3   OH270257   4.206   2.948   3.029  0.0993  0.0737  0.0457
16281TIP3    H170258   4.239   2.866   2.991  1.1503  0.8132 -0.6780
16281TIP3    H270259   4.170   2.996   2.954 -1.1126  0.0109  0.5690
16282TIP3   OH270260   3.721   2.795  14.883 -0.3735  0.1230 -0.3806
16282TIP3    H170261   3.705   2.833  14.797 -0.7766  0.0382 -0.3451
16282TIP3    H270262   3.814   2.810  14.899 -0.9337  3.3032  0.6637
16283TIP3   OH270263   2.272   6.605  11.397  0.0087  0.4870  0.3378
16283TIP3    H170264   2.261   6.602  11.302 -0.1639 -2.9968  0.3437
16283TIP3    H270265   2.361   6.637  11.410  1.5411 -2.6027 -1.3135
16284TIP3   OH270266   6.126   0.484  14.515  0.3009 -0.1460 -0.9021
16284TIP3    H170267   6.182   0.433  14.457  1.9948  1.3850 -0.7124
16284TIP3    H270268   6.133   0.573  14.482 -0.5282  0.3756  0.2816
16285TIP3   OH270269   6.493   0.026  17.355  0.1113 -0.0687  0.3931
16285TIP3    H170270   6.471  -0.042  17.420 -1.5644 -1.0104 -1.0582
16285TIP3    H270271   6.502  -0.023  17.273 -0.2944  1.3826 -0.5362
16286TIP3   OH270272   1.073   4.173   5.459 -0.4897  0.1625 -0.3624
16286TIP3    H170273   1.080   4.099   5.519  0.2570  2.5496  2.8135
16286TIP3    H270274   1.132   4.151   5.387  0.6896 -1.7831  1.0904
16287TIP3   OH270275   2.744   5.263   6.223 -0.0910  0.5140  0.4460
16287TIP3    H170276   2.692   5.320   6.165  0.9051  1.1828  0.1758
16287TIP3    H270277   2.723   5.294   6.311  0.1365  1.0432  0.3203
16288TIP3   OH270278   0.725   0.246  13.375 -0.3495  0.2838 -0.3196
16288TIP3    H170279   0.734   0.208  13.287 -3.3377  0.0949 -0.6548
16288TIP3    H270280   0.774   0.186  13.432 -1.8243 -2.0375 -1.3496
16289TIP3   OH270281   0.839   1.163  11.465 -0.0977  0.0365 -0.1553
16289TIP3    H170282   0.845   1.125  11.552 -1.7033 -0.0091 -0.0324
16289TIP3    H270283   0.826   1.088  11.407  2.9953 -0.1689 -0.7803
16290TIP3   OH270284   3.968   0.755   0.318 -0.3783  0.0480 -0.1628
16290TIP3    H170285   3.906   0.797   0.258 -0.2736  0.5678  0.0795
16290TIP3    H270286   4.022   0.700   0.262 -0.1671  0.6589 -0.5748
16291TIP3   OH270287   3.592   5.891   6.593  0.7557 -1.3366 -0.3063
16291TIP3    H170288   3.660   5.923   6.534 -0.4887  1.9246 -0.1964
16291TIP3    H270289   3.513   5.887   6.538  0.1994 -1.1175  0.4627
16292TIP3   OH270290   2.035   1.747   3.885 -0.5327 -0.0990  0.7292
16292TIP3    H170291   2.016   1.789   3.801 -1.8591  0.9378  1.5019
16292TIP3    H270292   2.113   1.695   3.869  0.0970  1.2359 -0.7610
16293TIP3   OH270293   5.990   2.715   3.921  0.5775 -0.1713  0.2186
16293TIP3    H170294   6.059   2.776   3.947  0.8160 -0.7751  1.0680
16293TIP3    H270295   5.993   2.713   3.826  0.1382  1.6112  0.1439
16294TIP3   OH270296   2.420   5.974  17.098 -0.6309 -0.0099 -0.0869
16294TIP3    H170297   2.463   5.992  17.182  1.3330 -1.9921 -0.5723
16294TIP3    H270298   2.456   5.889  17.071 -1.7825  0.2284 -2.5843
16295TIP3   OH270299   1.836   1.426   3.868  0.2045  0.3382 -0.3137
16295TIP3    H170300   1.879   1.406   3.951  1.9158 -0.5891 -1.3563
16295TIP3    H270301   1.804   1.516   3.878  2.5790  1.1700  0.5056
16296TIP3   OH270302   3.357   5.125  15.776  0.1770  0.2654 -0.3962
16296TIP3    H170303   3.397   5.061  15.717  0.2214  1.1579 -1.3679
16296TIP3    H270304   3.419   5.134  15.848  0.3322 -0.5219 -0.4245
16297TIP3   OH270305   2.445   2.557  11.800 -0.6354 -0.1928  0.1396
16297TIP3    H170306   2.504   2.628  11.825  0.3811 -1.0710  0.3204
16297TIP3    H270307   2.393   2.593  11.729  1.1831  0.1365 -1.0773
16298TIP3   OH270308   4.538   2.790   0.218  0.3190 -0.3883  0.5251
16298TIP3    H170309   4.508   2.723   0.278 -2.7679 -0.2322 -0.6740
16298TIP3    H270310   4.533   2.749   0.131  1.5648  0.3866  0.0577
16299TIP3   OH270311   3.441   0.903  12.454  0.1848  0.1341  0.2361
16299TIP3    H170312   3.391   0.897  12.535 -0.1921 -3.4835 -0.0949
16299TIP3    H270313   3.436   0.815  12.416  1.5172  1.2974 -3.0303
16300TIP3   OH270314   1.142   6.015   1.926 -0.0529  0.1773 -0.1824
16300TIP3    H170315   1.140   5.940   1.985  0.8104  0.8110  0.6758
16300TIP3    H270316   1.101   6.086   1.975  0.0215  0.5274 -0.6173
16301TIP3   OH270317   4.093   2.096  14.577 -0.1779 -0.1698  0.3233
16301TIP3    H170318   4.088   2.191  14.576  0.5070 -0.0934  1.7111
16301TIP3    H270319   4.026   2.067  14.515  0.9488  1.2417 -1.6708
16302TIP3   OH270320   6.078   3.479  16.210 -0.3297  0.2518 -0.1433
16302TIP3    H170321   5.984   3.492  16.199 -0.3746 -0.8296 -1.2839
16302TIP3    H270322   6.116   3.567  16.210 -1.2700  0.6590 -0.3397
16303TIP3   OH270323   2.201   4.499   0.738  0.2468 -0.1325  0.4754
16303TIP3    H170324   2.127   4.441   0.756  2.1402 -2.9878 -0.3233
16303TIP3    H270325   2.214   4.493   0.643  1.5570  0.2276  0.6121
16304TIP3   OH270326   6.454   5.110  15.841 -0.2154  0.1095 -0.1508
16304TIP3    H170327   6.537   5.082  15.803 -0.2099  2.6029 -2.1671
16304TIP3    H270328   6.387   5.071  15.784 -0.5392 -1.7156  1.3442
16305TIP3   OH270329   2.092   0.344   1.218 -0.2130 -0.0718 -0.1237
16305TIP3    H170330   2.146   0.292   1.277 -0.7271  0.5514  0.9339
16305TIP3    H270331   2.136   0.338   1.133  1.7704  0.7520  0.7742
16306TIP3   OH270332   5.891   4.061  11.512  0.1055 -0.3669 -0.0589
16306TIP3    H170333   5.818   4.051  11.573 -0.5635 -0.4712 -0.8669
16306TIP3    H270334   5.955   3.997  11.541 -1.3872 -2.4904 -1.1481
16307TIP3   OH270335   6.446   1.560   1.763 -0.1132 -0.0852 -0.0055
16307TIP3    H170336   6.494   1.554   1.845 -0.7139 -1.5515  0.2707
16307TIP3    H270337   6.477   1.641   1.723 -0.2133  0.9591  1.9150
16308TIP3   OH270338   1.298   1.225   2.186  0.1885 -0.2628 -0.5261
16308TIP3    H170339   1.384   1.198   2.153  0.6363  0.9532 -0.3946
16308TIP3    H270340   1.308   1.318   2.207 -0.6879 -0.5122  1.1004
16309TIP3   OH270341   6.207   3.006  13.395  0.2989 -0.2452  0.4088
16309TIP3    H170342   6.129   2.960  13.427  0.3248  0.3199  1.3374
16309TIP3    H270343   6.174   3.064  13.326  0.2538 -1.5608 -0.7038
16310TIP3   OH270344   1.354   2.863  15.938  0.3270  0.7190 -0.2499
16310TIP3    H170345   1.433   2.812  15.955 -0.2283 -0.4494 -1.0301
16310TIP3    H270346   1.385   2.947  15.907  1.2641  0.6651  0.4949
16311TIP3   OH270347   2.870   4.708  16.112  0.5180  0.0067  0.0117
16311TIP3    H170348   2.853   4.787  16.062 -0.8030  0.8087  1.6305
16311TIP3    H270349   2.888   4.641  16.046 -1.7875  0.8414 -1.5879
16312TIP3   OH270350   3.038   3.481   5.122 -0.3748  0.1461  0.2134
16312TIP3    H170351   2.990   3.401   5.102 -2.2721  1.4542 -0.7565
16312TIP3    H270352   3.000   3.512   5.204  0.0574  0.2994  0.3602
16313TIP3   OH270353   1.464   2.214  16.220  0.1679  0.0532  0.2598
16313TIP3    H170354   1.526   2.197  16.291  2.4841  0.4420 -1.5710
16313TIP3    H270355   1.394   2.149  16.234  0.5427  0.0779  2.8003
16314TIP3   OH270356   3.640   2.540   6.483  0.9820  0.2139 -0.4443
16314TIP3    H170357   3.573   2.601   6.454  1.6727  0.8544 -0.7322
16314TIP3    H270358   3.686   2.585   6.554  0.5186 -0.5949  0.3910
16315TIP3   OH270359   1.408   1.388   0.400  0.0940  0.5520  0.0859
16315TIP3    H170360   1.428   1.430   0.483  0.9655 -0.6285  0.5071
16315TIP3    H270361   1.490   1.345   0.375  0.0261  1.3543 -1.6863
16316TIP3   OH270362   4.206   4.037   1.583  0.4150  0.0571 -0.0031
16316TIP3    H170363   4.176   3.949   1.604  0.0423  0.2337  0.2103
16316TIP3    H270364   4.160   4.093   1.646  2.0982  0.2165  1.1641
16317TIP3   OH270365   1.055   5.878  16.508 -0.4087 -0.3107  0.1032
16317TIP3    H170366   1.120   5.844  16.570 -1.2221  0.2311  1.3087
16317TIP3    H270367   1.064   5.823  16.431  0.3338 -1.3169  0.8780
16318TIP3   OH270368   6.467   4.942   5.540 -0.4893  0.4042  0.0230
16318TIP3    H170369   6.417   4.895   5.606 -3.2842 -0.4399 -2.4515
16318TIP3    H270370   6.423   4.921   5.457  1.7614  2.6986 -1.9352
16319TIP3   OH270371   5.905   6.466   5.507 -0.1546 -0.4699  0.1004
16319TIP3    H170372   5.988   6.510   5.524  0.4956 -1.8136  0.5907
16319TIP3    H270373   5.889   6.416   5.587 -1.2503 -0.5097 -0.1379
16320TIP3   OH270374   6.302   4.438   0.007 -0.0486 -0.1622 -0.1629
16320TIP3    H170375   6.363   4.439  -0.067 -0.3259  0.5642 -0.3925
16320TIP3    H270376   6.357   4.423   0.084  0.8202  2.9278 -0.0542
16321TIP3   OH270377   5.204   3.622  11.852 -0.4824  0.4600  0.0282
16321TIP3    H170378   5.151   3.543  11.866 -2.2756  1.3910 -1.1557
16321TIP3    H270379   5.217   3.625  11.757  1.8608  0.2018  0.2985
16322TIP3   OH270380   6.707   0.141   4.340 -0.7267  0.2179  0.1724
16322TIP3    H170381   6.625   0.093   4.353 -0.3307 -0.2797  0.9187
16322TIP3    H270382   6.680   0.232   4.328 -1.3812  0.0851  0.6139
16323TIP3   OH270383   4.019   1.048  11.471  0.6243  0.1480  0.2777
16323TIP3    H170384   4.091   1.105  11.497  0.4558  0.5306 -0.0937
16323TIP3    H270385   4.047   0.961  11.498  0.6979  0.4608  1.2183
16324TIP3   OH270386   1.857   1.573  14.594 -0.8805  0.1190 -0.5225
16324TIP3    H170387   1.871   1.627  14.516 -0.9612  1.4926  0.3771
16324TIP3    H270388   1.903   1.619  14.664  1.0165 -2.1965 -0.1181
16325TIP3   OH270389   5.511   1.701   3.443 -0.2932  0.1651  0.2073
16325TIP3    H170390   5.531   1.610   3.420  2.1703  0.5531  0.5874
16325TIP3    H270391   5.483   1.697   3.535 -1.2660 -0.3169 -0.0997
16326TIP3   OH270392   5.707   0.450   3.411 -0.3266  0.1466 -0.0583
16326TIP3    H170393   5.619   0.454   3.373  0.0273  1.5937 -0.8181
16326TIP3    H270394   5.756   0.391   3.355 -0.9084 -0.9922  0.6080
16327TIP3   OH270395   2.883   0.810  14.300  0.0456  0.0711 -0.5346
16327TIP3    H170396   2.914   0.720  14.308  0.5797  0.3598  0.8159
16327TIP3    H270397   2.797   0.802  14.258 -0.2090 -1.1306  0.1711
16328TIP3   OH270398   4.585   4.578  12.999 -0.4745  0.0026  0.2229
16328TIP3    H170399   4.565   4.627  13.078  2.8367  0.1706  1.1216
16328TIP3    H270400   4.517   4.511  12.993 -2.4446  1.7777  1.5371
16329TIP3   OH270401   6.222   1.424  14.651  0.4295 -0.2897 -0.3645
16329TIP3    H170402   6.228   1.453  14.742  0.2484 -1.9304  0.2048
16329TIP3    H270403   6.239   1.503  14.599  1.1128  0.5553  1.0883
16330TIP3   OH270404   1.239   1.980  12.934  0.2831 -0.1001  0.0140
16330TIP3    H170405   1.221   2.070  12.963 -4.5550 -0.3280 -1.3398
16330TIP3    H270406   1.219   1.927  13.011  0.2347 -0.1359 -0.0238
16331TIP3   OH270407   4.647   2.393  17.370  0.0977  0.2385  0.0664
16331TIP3    H170408   4.618   2.324  17.310  0.1070  1.6314 -1.6145
16331TIP3    H270409   4.679   2.346  17.447 -1.4878 -1.5578 -0.2933
16332TIP3   OH270410   6.738   2.948  13.559 -0.6551  0.1628  0.1470
16332TIP3    H170411   6.801   2.928  13.489 -0.0720  0.0168  0.6997
16332TIP3    H270412   6.682   2.871  13.563  0.5537 -0.7045  1.1597
16333TIP3   OH270413   5.219   0.268   4.385  0.3637 -0.8966 -0.2934
16333TIP3    H170414   5.300   0.304   4.422 -0.8133  3.5066 -1.3930
16333TIP3    H270415   5.158   0.266   4.459  0.0446  0.9221 -0.4774
16334TIP3   OH270416   2.779   3.799  13.214  0.4340 -0.0811 -0.5903
16334TIP3    H170417   2.781   3.821  13.307  1.8147  1.5353 -0.9544
16334TIP3    H270418   2.870   3.775  13.194  0.0752 -0.7302 -1.4483
16335TIP3   OH270419   3.793   1.632  15.890 -0.3773 -0.4975  0.1765
16335TIP3    H170420   3.840   1.643  15.807  0.0103 -0.0165  0.4528
16335TIP3    H270421   3.770   1.539  15.892  2.9194 -1.4582  1.2371
16336TIP3   OH270422   3.674   1.411  16.215 -0.1817  0.0366 -0.1382
16336TIP3    H170423   3.618   1.335  16.197  3.7920 -3.2311 -0.0895
16336TIP3    H270424   3.691   1.407  16.309 -0.4330  1.4937  0.0009
16337TIP3   OH270425   0.064   2.422  11.925  0.0519  0.5533 -0.3032
16337TIP3    H170426   0.048   2.508  11.886  3.4639  1.7688  0.6279
16337TIP3    H270427   0.074   2.363  11.851 -0.7021  1.2577 -0.9914
16338TIP3   OH270428   5.712   3.280  14.396  0.3109  0.7264 -0.2694
16338TIP3    H170429   5.622   3.307  14.419 -0.4058 -1.6873  0.0090
16338TIP3    H270430   5.758   3.278  14.480 -0.1240 -0.5110 -0.0400
16339TIP3   OH270431   4.597   3.698  11.803  0.4035 -0.3834 -0.5302
16339TIP3    H170432   4.572   3.686  11.895  0.5351 -0.8704 -0.5574
16339TIP3    H270433   4.582   3.613  11.763  1.3833 -0.4785 -0.7165
16340TIP3   OH270434   0.953   1.856  14.901  0.2341  0.2465 -0.1065
16340TIP3    H170435   0.992   1.863  14.814 -0.8953  0.2738 -0.6344
16340TIP3    H270436   1.001   1.786  14.943  2.6182  1.9903  0.2650
16341TIP3   OH270437   4.844   6.572  13.163 -0.0800 -0.7436 -0.1189
16341TIP3    H170438   4.913   6.506  13.171  2.0375  1.3426 -0.0342
16341TIP3    H270439   4.884   6.653  13.195 -2.6400  0.5635  0.0501
16342TIP3   OH270440   0.200   1.320   1.500  0.1189  0.1459  0.6576
16342TIP3    H170441   0.261   1.334   1.573 -0.5593  0.3511  1.2008
16342TIP3    H270442   0.256   1.301   1.425  0.8128 -1.7847  1.5760
16343TIP3   OH270443   4.256   0.574   3.480  0.0923 -0.6427 -0.1529
16343TIP3    H170444   4.173   0.590   3.523  0.5842  0.2151  0.5093
16343TIP3    H270445   4.311   0.648   3.504  0.9149 -0.9714 -0.9282
16344TIP3   OH270446   4.793   5.458   0.565  0.3049  0.5181 -0.4493
16344TIP3    H170447   4.763   5.471   0.656 -0.3639 -0.3483 -0.5327
16344TIP3    H270448   4.882   5.492   0.565  0.0069  1.3631  0.3094
16345TIP3   OH270449   2.385   1.561   3.055  0.6779 -0.0594  0.2455
16345TIP3    H170450   2.332   1.530   3.129  1.8902 -1.7798  0.4672
16345TIP3    H270451   2.439   1.485   3.031  1.4192  0.9359 -1.4181
16346TIP3   OH270452   4.606   0.479   5.146 -0.3939 -0.3301  0.3910
16346TIP3    H170453   4.533   0.505   5.202 -0.6458 -0.3360  0.0714
16346TIP3    H270454   4.681   0.530   5.179 -0.0295 -1.8274  2.0404
16347TIP3   OH270455   4.983   5.562  15.433 -0.6555 -0.0224  0.1795
16347TIP3    H170456   5.035   5.539  15.510 -0.4390 -0.8670 -0.2180
16347TIP3    H270457   5.045   5.563  15.361 -1.0069 -0.0145 -0.1285
16348TIP3   OH270458   6.687   3.015  14.404 -0.2688 -0.4284 -0.0681
16348TIP3    H170459   6.765   3.051  14.362  1.1471 -2.2638  0.8437
16348TIP3    H270460   6.672   3.072  14.480  0.0418  0.0743 -0.3773
16349TIP3   OH270461   1.743   1.790  15.318 -0.2957 -0.2381 -0.2387
16349TIP3    H170462   1.682   1.821  15.384  0.3145  0.2733  0.0842
16349TIP3    H270463   1.788   1.868  15.287  1.3435 -0.7644  0.6713
16350TIP3   OH270464   5.565   3.022   2.057 -0.0351 -0.5527  0.5835
16350TIP3    H170465   5.503   3.095   2.065  0.6004  0.0376  0.2600
16350TIP3    H270466   5.649   3.061   2.080  0.7057 -0.5816 -1.7963
16351TIP3   OH270467   1.762   1.748  12.600  0.1394 -0.6621 -0.0766
16351TIP3    H170468   1.717   1.739  12.683  0.1578  0.6858  0.1045
16351TIP3    H270469   1.787   1.658  12.576 -1.7702 -1.3214  0.2743
16352TIP3   OH270470   5.324   3.381   0.587 -0.2473  0.0670  0.5185
16352TIP3    H170471   5.257   3.312   0.584  0.9214 -1.2172  2.0984
16352TIP3    H270472   5.310   3.431   0.507 -0.8353 -2.3074 -0.9678
16353TIP3   OH270473   1.444   5.324  16.776 -0.3614  0.3165  0.1466
16353TIP3    H170474   1.382   5.286  16.714  0.7557 -0.4472 -0.5367
16353TIP3    H270475   1.513   5.258  16.785 -0.0153  0.8259  1.4676
16354TIP3   OH270476   5.919   6.225  17.183  0.2864 -0.3370 -0.4038
16354TIP3    H170477   5.938   6.131  17.186 -3.4292 -1.3662 -2.1935
16354TIP3    H270478   5.998   6.265  17.147  2.0668 -2.7233  0.6129
16355TIP3   OH270479   0.914   0.866   5.774  0.1034  0.0386  0.6397
16355TIP3    H170480   1.001   0.887   5.740  0.3584 -0.0460  1.2156
16355TIP3    H270481   0.857   0.933   5.739  0.0441 -0.9445 -1.2478
16356TIP3   OH270482   6.513   1.353  15.343 -0.4082 -0.2659  0.0694
16356TIP3    H170483   6.481   1.277  15.392 -0.9987  0.2319  0.4691
16356TIP3    H270484   6.445   1.369  15.278  0.4009 -0.9609 -0.9707
16357TIP3   OH270485   0.354   3.272   3.814  0.2823  0.4414 -0.0941
16357TIP3    H170486   0.390   3.294   3.728  0.9529  1.1294  0.3468
16357TIP3    H270487   0.276   3.220   3.795  0.1295  1.0251 -1.1333
16358TIP3   OH270488   0.948   3.598   2.813  0.0780  0.2964  0.5382
16358TIP3    H170489   0.900   3.657   2.870  0.3870  0.1569  0.9506
16358TIP3    H270490   0.977   3.653   2.740 -0.9895  0.3075  0.1014
16359TIP3   OH270491   0.610   5.587  15.788  0.5200 -0.0792 -0.5902
16359TIP3    H170492   0.640   5.646  15.857  0.9716 -1.5521  0.5339
16359TIP3    H270493   0.514   5.593  15.792  0.5511  0.1377 -0.0780
16360TIP3   OH270494   3.378   6.180  13.366 -0.0115 -0.5537  0.3733
16360TIP3    H170495   3.399   6.209  13.277  1.7132 -0.3592  0.8153
16360TIP3    H270496   3.295   6.133  13.356 -0.1697 -0.0232 -1.2291
16361TIP3   OH270497   2.260   2.385   5.491  0.6050  0.3884 -0.0985
16361TIP3    H170498   2.350   2.356   5.505  0.8419  1.4679  0.7957
16361TIP3    H270499   2.261   2.431   5.407  0.7150 -0.2438 -0.4458
16362TIP3   OH270500   2.001   4.168  11.180 -0.2166  0.0253 -0.5242
16362TIP3    H170501   1.928   4.113  11.153  0.9041 -1.4882 -0.6029
16362TIP3    H270502   2.014   4.146  11.273 -0.8279  1.4434 -0.0767
16363TIP3   OH270503   3.202   1.391  15.227  0.1117  0.0109  0.2373
16363TIP3    H170504   3.261   1.339  15.172 -0.1224  0.6757 -0.6772
16363TIP3    H270505   3.251   1.472  15.244 -1.0467  1.1984 -1.7532
16364TIP3   OH270506   2.566   1.241   1.066  0.5040  0.0035  0.3311
16364TIP3    H170507   2.651   1.199   1.080  0.4440 -0.5784 -0.9248
16364TIP3    H270508   2.558   1.248   0.971 -0.3930  1.0275  0.4592
16365TIP3   OH270509   2.198   3.151  16.991  0.1847 -0.5110  0.0562
16365TIP3    H170510   2.132   3.093  17.030  0.9552 -0.5623  1.3503
16365TIP3    H270511   2.147   3.213  16.939 -1.0083  0.0714  1.7983
16366TIP3   OH270512   5.985   2.543   4.748  0.0144  0.6120 -0.0237
16366TIP3    H170513   6.036   2.606   4.698  0.0145  0.1093 -0.6670
16366TIP3    H270514   6.012   2.458   4.714 -2.3536  0.3686 -1.5117
16367TIP3   OH270515   3.741   4.226  12.708  0.3023  0.1851  0.0470
16367TIP3    H170516   3.822   4.271  12.685  1.6878 -1.2550  1.8129
16367TIP3    H270517   3.757   4.135  12.684 -0.6306 -0.1886  0.8157
16368TIP3   OH270518   6.343   1.293  10.390 -0.3364 -0.2993  0.0384
16368TIP3    H170519   6.405   1.220  10.397 -0.9962 -0.9436 -0.6156
16368TIP3    H270520   6.368   1.353  10.460  1.3605 -0.2766 -0.5561
16369TIP3   OH270521   4.821   0.149   2.313  0.1729 -1.0346  0.4009
16369TIP3    H170522   4.816   0.151   2.408 -0.3235 -0.1134  0.3618
16369TIP3    H270523   4.776   0.068   2.288  0.8682 -1.6102  0.9646
16370TIP3   OH270524   1.063   1.423  11.112 -0.4710 -0.0473  0.0331
16370TIP3    H170525   1.109   1.339  11.125 -0.6484  0.1537  2.4364
16370TIP3    H270526   1.114   1.468  11.045  0.2788 -1.6118 -0.5064
16371TIP3   OH270527   2.708   4.283  11.793  0.3248  0.6810 -0.1654
16371TIP3    H170528   2.733   4.353  11.853 -0.1876 -0.7380  1.8065
16371TIP3    H270529   2.777   4.282  11.726 -0.1086  3.5690 -0.7695
16372TIP3   OH270530   5.210   2.203   1.903  0.1863 -0.3005  0.3606
16372TIP3    H170531   5.268   2.216   1.978 -0.6591  0.1797  0.9475
16372TIP3    H270532   5.192   2.109   1.903  0.3192 -0.3274  0.6571
16373TIP3   OH270533   6.686   1.618  16.167 -0.4356 -0.0940 -0.0637
16373TIP3    H170534   6.767   1.651  16.128 -0.4057  0.7286  0.6705
16373TIP3    H270535   6.646   1.695  16.208 -0.9276 -0.7512  0.7179
16374TIP3   OH270536   1.436   2.475  11.792  0.0559 -0.0258  0.4179
16374TIP3    H170537   1.431   2.567  11.764  0.0952 -0.0342  0.3820
16374TIP3    H270538   1.440   2.425  11.711  1.0167 -0.0010  0.4337
16375TIP3   OH270539   1.832   0.517  14.784 -0.3909  0.4573  0.3190
16375TIP3    H170540   1.736   0.510  14.782 -0.4498  1.3272 -0.8125
16375TIP3    H270541   1.859   0.498  14.695  0.2735  2.7527 -0.0241
16376TIP3   OH270542   5.998   0.321  11.410 -0.3965  0.4675  0.2654
16376TIP3    H170543   5.970   0.397  11.359  0.2350 -0.3760 -1.4004
16376TIP3    H270544   6.070   0.284  11.360  0.4807 -0.2378  1.9577
16377TIP3   OH270545   2.830   0.970   2.122  0.1396 -1.1719  0.0530
16377TIP3    H170546   2.847   0.878   2.105  1.3836 -1.1348  0.9486
16377TIP3    H270547   2.899   0.997   2.182 -0.2783  0.3168 -0.0781
16378TIP3   OH270548   6.337   5.039  11.678  0.7598  0.0829 -0.5323
16378TIP3    H170549   6.351   4.984  11.601  0.7214  0.3619 -0.7411
16378TIP3    H270550   6.298   5.119  11.643 -0.8222 -0.4255 -0.0471
16379TIP3   OH270551   3.764   1.389  17.411  0.3849 -0.4236  0.3379
16379TIP3    H170552   3.767   1.448  17.336 -0.0676 -3.2419 -2.0957
16379TIP3    H270553   3.856   1.364  17.426  0.6155  1.0464  1.5857
16380TIP3   OH270554   2.148   6.370   2.354 -0.2974  0.7162 -0.9675
16380TIP3    H170555   2.130   6.308   2.283 -1.0487  1.9201 -1.8623
16380TIP3    H270556   2.160   6.454   2.310  2.0281  1.0231  0.0957
16381TIP3   OH270557   3.245   5.840  11.532 -0.3810  0.5656  0.1501
16381TIP3    H170558   3.314   5.842  11.466 -0.8566  0.2163 -0.3678
16381TIP3    H270559   3.288   5.807  11.610 -0.0639 -0.0913 -0.2945
16382TIP3   OH270560   3.910   5.981   4.601 -0.1042  0.3405 -0.1798
16382TIP3    H170561   3.929   6.067   4.640  1.4571  0.0603 -0.2528
16382TIP3    H270562   3.852   6.000   4.527 -0.6320  1.2076  0.4356
16383TIP3   OH270563   5.408   3.396  11.685 -0.4526 -0.1311  0.1391
16383TIP3    H170564   5.359   3.373  11.764  0.3845  1.1721  1.0694
16383TIP3    H270565   5.475   3.329  11.678 -1.3346 -1.0073 -0.2390
16384TIP3   OH270566   2.068   4.813   2.679 -0.1904  0.2593 -0.0784
16384TIP3    H170567   2.163   4.815   2.668 -0.1661 -0.3732 -0.0518
16384TIP3    H270568   2.055   4.811   2.774 -0.2808  1.8077 -0.0442
16385TIP3   OH270569   5.819   1.565   6.376  0.3728  0.2094  0.4795
16385TIP3    H170570   5.844   1.472   6.378 -0.2551  0.0325  1.7164
16385TIP3    H270571   5.880   1.607   6.436  0.7164  0.6244 -0.1527
16386TIP3   OH270572   4.404   5.534   2.640 -0.0289  0.1831  0.2855
16386TIP3    H170573   4.360   5.478   2.577  0.5995  0.8576 -0.7746
16386TIP3    H270574   4.476   5.574   2.591  0.0608  1.2475  1.2421
16387TIP3   OH270575   6.013   5.456   0.643 -0.1371 -0.0222  0.0482
16387TIP3    H170576   5.994   5.491   0.730  0.5508  1.5404 -0.3850
16387TIP3    H270577   6.069   5.381   0.659  0.8827  0.8878  0.9458
16388TIP3   OH270578   1.633   3.688   0.093  0.0986 -0.3554 -0.3386
16388TIP3    H170579   1.689   3.751   0.137 -1.8219  2.2556 -1.3434
16388TIP3    H270580   1.579   3.651   0.163  0.1672  0.3320  0.0862
16389TIP3   OH270581   6.621   1.703   3.218 -0.6717 -0.3637  0.2341
16389TIP3    H170582   6.547   1.666   3.170 -1.4417  0.8792  0.4270
16389TIP3    H270583   6.581   1.745   3.294  0.0960  1.3576 -0.2824
16390TIP3   OH270584   0.687   3.254   1.901 -0.4658 -0.5679  0.2881
16390TIP3    H170585   0.644   3.248   1.987 -1.5835  0.0619 -0.2006
16390TIP3    H270586   0.650   3.183   1.850 -0.8997 -0.0580 -0.1210
16391TIP3   OH270587   6.707   6.015   0.416 -0.3103 -0.2376 -0.0273
16391TIP3    H170588   6.801   6.032   0.425 -0.3314 -0.7264  1.4577
16391TIP3    H270589   6.665   6.081   0.471 -0.8342 -0.1211 -0.5547
16392TIP3   OH270590   1.527   1.238  11.899  0.5449 -0.3328 -0.1882
16392TIP3    H170591   1.555   1.202  11.815  2.2387  1.0791 -0.2968
16392TIP3    H270592   1.432   1.231  11.898  0.6551 -2.6606 -1.1224
16393TIP3   OH270593   4.059   5.541   4.545 -0.1193  0.4669 -0.3000
16393TIP3    H170594   3.993   5.472   4.549  0.7552 -0.5513 -2.1449
16393TIP3    H270595   4.009   5.623   4.552 -1.3500 -0.3024  0.1951
16394TIP3   OH270596   5.285   1.124  12.334  0.1378  0.3147 -0.2551
16394TIP3    H170597   5.362   1.165  12.295 -0.8548  1.7569 -0.8180
16394TIP3    H270598   5.274   1.167  12.418 -0.3480  0.5103 -0.4126
16395TIP3   OH270599   3.423   6.537  12.749 -0.1196 -0.3352  0.1597
16395TIP3    H170600   3.341   6.544  12.700  1.3663  1.7951 -2.2901
16395TIP3    H270601   3.481   6.486  12.692  0.9505  0.1749  0.7456
16396TIP3   OH270602   2.982   1.277   5.536  0.1661 -0.4766 -0.3859
16396TIP3    H170603   2.940   1.251   5.618  1.7236 -0.3253  0.5198
16396TIP3    H270604   3.076   1.277   5.557  0.4855  1.6634 -1.5489
16397TIP3   OH270605   0.124   5.729  17.213  0.2415 -0.1228 -0.2808
16397TIP3    H170606   0.162   5.787  17.147 -0.2005 -0.6929 -1.0506
16397TIP3    H270607   0.097   5.788  17.283 -0.3692  0.6415 -1.1269
16398TIP3   OH270608   2.112   0.024  17.111 -0.2471 -0.1300  0.0658
16398TIP3    H170609   2.164   0.102  17.126 -1.2232  0.4647  0.4551
16398TIP3    H270610   2.070   0.006  17.195  1.0919 -1.9519  0.4131
16399TIP3   OH270611   5.541   4.289  14.645  0.2830 -0.2121  0.2097
16399TIP3    H170612   5.562   4.257  14.733 -1.3533  2.3762  1.6777
16399TIP3    H270613   5.599   4.239  14.587  1.8374 -1.6305  2.7801
16400TIP3   OH270614   0.021   3.545   2.942  0.4662 -0.2243  0.1923
16400TIP3    H170615   0.095   3.557   3.002 -0.0771 -2.0173  1.3235
16400TIP3    H270616   0.047   3.473   2.886 -0.6659 -1.4063  1.1145
16401TIP3   OH270617   1.428   5.070  11.576  0.5245  0.1586  0.1202
16401TIP3    H170618   1.426   5.043  11.485 -1.0080 -0.1035  0.2205
16401TIP3    H270619   1.425   4.988  11.626  2.9639  0.1788  0.4673
16402TIP3   OH270620   4.848   6.406   2.440  0.4690 -0.0588 -0.0918
16402TIP3    H170621   4.881   6.345   2.506 -1.6637  0.6713  1.7718
16402TIP3    H270622   4.767   6.366   2.408  0.8968  0.1420 -1.5017
16403TIP3   OH270623   4.114   6.217   2.546 -0.1772  0.2502  0.4168
16403TIP3    H170624   4.167   6.153   2.594 -0.5816 -0.8102 -0.4916
16403TIP3    H270625   4.174   6.253   2.480  0.0641  0.8686  0.9593
16404TIP3   OH270626   1.376   5.893   0.836 -0.4235  0.9353 -0.4817
16404TIP3    H170627   1.326   5.966   0.873  1.3060  1.5783  0.7344
16404TIP3    H270628   1.375   5.826   0.904 -0.6404  0.4579 -0.9458
16405TIP3   OH270629   6.209   0.946  13.256 -0.7504 -0.0668  0.1348
16405TIP3    H170630   6.270   0.957  13.329 -0.7426 -1.6709  0.3980
16405TIP3    H270631   6.265   0.932  13.180 -0.7555 -1.5669  0.3810
16406TIP3   OH270632   3.097   2.100   2.330 -0.5704  0.3835  0.0929
16406TIP3    H170633   3.052   2.016   2.337 -2.7547  1.3386 -1.2023
16406TIP3    H270634   3.083   2.127   2.239  0.5039  1.9194  0.3449
16407TIP3   OH270635   3.131   6.694  14.440  0.5222 -0.1746  0.2482
16407TIP3    H170636   3.094   6.630  14.501 -0.4209  0.8468  0.7820
16407TIP3    H270637   3.097   6.778  14.470  1.6768  0.5866 -0.4806
16408TIP3   OH270638   0.256   3.959  12.512  0.4977  0.8042 -0.1517
16408TIP3    H170639   0.289   4.044  12.542 -0.4315  0.7355  1.1588
16408TIP3    H270640   0.253   3.905  12.591  0.8696 -0.3892 -0.9292
16409TIP3   OH270641   6.513   3.608   2.944 -0.1008  0.1247 -0.1457
16409TIP3    H170642   6.604   3.580   2.931 -0.4035 -1.1023  0.2816
16409TIP3    H270643   6.469   3.532   2.981 -0.8294  1.3597  1.6829
16410TIP3   OH270644   4.200   2.076   3.173  0.0873  0.1255 -0.7333
16410TIP3    H170645   4.183   2.039   3.260 -0.4433 -0.8448 -1.2394
16410TIP3    H270646   4.133   2.144   3.163  0.3278  0.4341 -0.2753
16411TIP3   OH270647   4.850   6.688   5.123  0.2201  0.8483  0.1280
16411TIP3    H170648   4.761   6.690   5.159 -0.6109  0.2316 -1.7514
16411TIP3    H270649   4.857   6.769   5.073  0.2317  0.3281 -0.7421
16412TIP3   OH270650   2.620   3.313  16.281 -0.0786  0.2220  0.4587
16412TIP3    H170651   2.561   3.324  16.356 -0.2593 -0.2062  0.3802
16412TIP3    H270652   2.618   3.398  16.237 -0.3470  0.3264  0.6673
16413TIP3   OH270653   1.618   1.289  16.324 -0.1191 -0.2931 -0.1584
16413TIP3    H170654   1.627   1.202  16.363 -0.1613  0.7487  2.3835
16413TIP3    H270655   1.528   1.315  16.345  0.6898  1.3816  1.6054
16414TIP3   OH270656   1.505   6.532  13.956  0.2736 -0.1514  0.4224
16414TIP3    H170657   1.480   6.461  13.896  0.8067  0.1943 -0.2284
16414TIP3    H270658   1.581   6.497  14.003  1.5584  0.5349 -1.0413
16415TIP3   OH270659   4.480   1.705  14.530 -0.0442  0.1599 -0.0090
16415TIP3    H170660   4.452   1.669  14.446  0.2269 -1.2604  0.4852
16415TIP3    H270661   4.429   1.658  14.595 -0.5308  1.5193  0.6271
16416TIP3   OH270662   1.492   5.916  14.786  0.0067 -0.1006  0.0477
16416TIP3    H170663   1.414   5.867  14.763  0.8227 -1.7442  0.6095
16416TIP3    H270664   1.541   5.923  14.704  1.2704 -2.9055  0.4508
16417TIP3   OH270665   3.179   4.797   5.899 -0.3147 -0.3176 -0.6107
16417TIP3    H170666   3.260   4.781   5.948 -1.0040  0.9554  1.0191
16417TIP3    H270667   3.129   4.857   5.954 -1.4575  0.6098 -2.5581
16418TIP3   OH270668   6.515   6.143  15.233  0.2690  0.2167  0.1979
16418TIP3    H170669   6.443   6.149  15.170  0.1652 -2.6694 -0.0872
16418TIP3    H270670   6.477   6.170  15.316 -0.7489  0.0410 -0.1986
16419TIP3   OH270671   6.631   6.300   5.325  0.0069 -0.2415  0.6442
16419TIP3    H170672   6.575   6.378   5.322 -0.5158 -0.6434 -0.2966
16419TIP3    H270673   6.665   6.300   5.415 -0.6056  0.6317  0.9019
16420TIP3   OH270674   3.693   3.709   3.214 -0.2859 -0.3978  0.5833
16420TIP3    H170675   3.774   3.685   3.260 -1.4411 -1.6403  2.0927
16420TIP3    H270676   3.632   3.732   3.284 -1.3602  0.1649 -0.5055
16421TIP3   OH270677   0.467   2.086  16.557  0.2273  0.3395  0.1505
16421TIP3    H170678   0.416   2.004  16.555  2.5262 -1.1671 -0.3479
16421TIP3    H270679   0.403   2.154  16.537 -2.0001 -1.1768  1.6259
16422TIP3   OH270680   2.794   3.739  12.578  0.3402  0.0276  0.0843
16422TIP3    H170681   2.861   3.673  12.597 -0.6538 -1.0652 -0.0544
16422TIP3    H270682   2.750   3.753  12.662 -0.5268 -0.7517 -0.2215
16423TIP3   OH270683   2.760   4.801   1.194  0.1897  0.2414 -0.3587
16423TIP3    H170684   2.739   4.714   1.227  0.5936  0.3016  0.0638
16423TIP3    H270685   2.795   4.848   1.270  1.8078  0.1523 -1.0023
16424TIP3   OH270686   6.644   3.428  11.514 -0.4618 -0.3378  0.2585
16424TIP3    H170687   6.681   3.395  11.595 -0.3073 -1.6501 -0.3307
16424TIP3    H270688   6.718   3.436  11.454 -0.7236 -0.3460 -0.0701
16425TIP3   OH270689   0.428   6.138   0.831  0.4669  0.2768 -0.6484
16425TIP3    H170690   0.500   6.125   0.770  0.9635 -1.8330  0.2569
16425TIP3    H270691   0.434   6.063   0.891 -1.7869  0.6504  0.1612
16426TIP3   OH270692   2.588   1.144  17.341  0.3718  0.1645  0.1718
16426TIP3    H170693   2.525   1.209  17.310 -0.8527 -1.0343  0.0512
16426TIP3    H270694   2.648   1.133  17.268  1.4503  2.1205  0.6785
16427TIP3   OH270695   2.657   0.393  14.677  0.2351 -0.0030  0.8077
16427TIP3    H170696   2.612   0.310  14.662  1.2486 -0.4830  0.2672
16427TIP3    H270697   2.627   0.423  14.762 -0.8540 -0.4541  0.5935
16428TIP3   OH270698   2.488   5.556   2.132 -0.2824  0.7714 -0.1193
16428TIP3    H170699   2.544   5.557   2.054  0.4287 -2.5683  0.1648
16428TIP3    H270700   2.432   5.633   2.123  0.7252  1.2885 -3.1941
16429TIP3   OH270701   3.795   4.408  14.876 -0.1235  0.2467  0.8717
16429TIP3    H170702   3.713   4.441  14.840  0.3537 -2.4140 -3.2171
16429TIP3    H270703   3.855   4.483  14.872 -0.6226  0.6250 -2.5676
16430TIP3   OH270704   2.598   5.902   5.975  0.1586  0.3503  0.5253
16430TIP3    H170705   2.593   5.881   6.069  3.0401  0.6055  0.8436
16430TIP3    H270706   2.605   5.817   5.932 -0.3014  0.2665  0.6081
16431TIP3   OH270707   6.549   2.463  13.184 -0.4120  0.2049 -0.4527
16431TIP3    H170708   6.490   2.526  13.225 -0.2197  1.5644 -2.1434
16431TIP3    H270709   6.492   2.399  13.142 -0.6423  0.2048 -0.1391
16432TIP3   OH270710   6.245   2.928   2.034 -0.1590 -0.6350  0.1997
16432TIP3    H170711   6.314   2.884   1.984 -0.1588 -1.9904  1.3234
16432TIP3    H270712   6.165   2.880   2.012 -0.1271 -1.3858  1.5889
16433TIP3   OH270713   5.992   6.717   0.931  0.3208 -0.6178 -0.8635
16433TIP3    H170714   5.941   6.718   0.850 -1.0644 -1.5452 -0.0371
16433TIP3    H270715   6.047   6.639   0.924  0.4580 -0.5050 -1.0522
16434TIP3   OH270716   3.671   2.902  13.522 -0.2820 -0.8062  0.4410
16434TIP3    H170717   3.699   2.994  13.516  0.5856 -1.0014  1.2116
16434TIP3    H270718   3.576   2.907  13.534 -0.2971 -0.0273  0.0863
16435TIP3   OH270719   3.869   5.196  14.748 -0.0799 -0.0908  0.1987
16435TIP3    H170720   3.806   5.268  14.737 -0.6232 -0.5867  0.0472
16435TIP3    H270721   3.832   5.142  14.818  0.8993  0.3811  1.1115
16436TIP3   OH270722   6.424   2.850   1.446 -0.4758 -0.0498 -0.1902
16436TIP3    H170723   6.477   2.864   1.368  1.5626  1.9440  1.4116
16436TIP3    H270724   6.341   2.815   1.413  0.6558 -0.2667 -3.1044
16437TIP3   OH270725   3.288   3.742  16.054  1.1374  0.1979  0.0562
16437TIP3    H170726   3.372   3.734  16.007 -0.5495 -0.4751 -3.1513
16437TIP3    H270727   3.269   3.654  16.083  1.2890  0.2533  0.3262
16438TIP3   OH270728   6.265   6.179   2.512  0.1919 -0.8195  0.3002
16438TIP3    H170729   6.170   6.192   2.522  0.3300  0.4920  0.0755
16438TIP3    H270730   6.304   6.236   2.579  0.8538  0.0883 -0.8293
16439TIP3   OH270731   1.212   6.445   1.311  0.4611  0.0902  0.3448
16439TIP3    H170732   1.229   6.355   1.338  0.7413 -0.0513 -0.3008
16439TIP3    H270733   1.160   6.482   1.383  1.4631 -0.1851  1.2331
16440TIP3   OH270734   6.717   3.277   2.525 -0.7513 -0.1980 -0.3139
16440TIP3    H170735   6.794   3.321   2.489 -0.1203  0.8467  2.1297
16440TIP3    H270736   6.721   3.189   2.488  1.5495 -0.1460 -0.3555
16441TIP3   OH270737   1.355   2.111  15.928  0.0939  0.1033  0.4084
16441TIP3    H170738   1.276   2.090  15.878 -0.4183  0.0917  1.2022
16441TIP3    H270739   1.324   2.127  16.017  0.7463  2.0666  0.3235
16442TIP3   OH270740   1.269   3.530  11.152 -0.1478  0.2277 -0.0361
16442TIP3    H170741   1.312   3.579  11.082 -0.1731  0.3899  0.0620
16442TIP3    H270742   1.202   3.478  11.107 -0.1006  0.2605 -0.1434
16443TIP3   OH270743   4.632   4.687   0.168  0.5156 -0.7639  0.1137
16443TIP3    H170744   4.570   4.733   0.111  1.0658 -0.7366 -0.4833
16443TIP3    H270745   4.610   4.595   0.158  1.3703 -0.8706 -1.1245
16444TIP3   OH270746   5.303   4.480   1.095  0.0097 -0.5124  0.1634
16444TIP3    H170747   5.329   4.531   1.172 -1.3807 -0.5292  0.6726
16444TIP3    H270748   5.207   4.481   1.097 -0.0457 -0.7757 -1.4064
16445TIP3   OH270749   3.723   6.144  17.223 -0.9354 -0.1515 -0.3650
16445TIP3    H170750   3.800   6.188  17.188 -2.0971  2.9986  0.5804
16445TIP3    H270751   3.649   6.191  17.183 -2.2895 -0.2299  1.8463
16446TIP3   OH270752   5.078   0.314   2.040  0.3694 -0.7446 -0.0416
16446TIP3    H170753   5.112   0.239   1.993  1.8533 -0.0631 -0.0953
16446TIP3    H270754   5.086   0.387   1.978  2.4276  0.1831  1.2066
16447TIP3   OH270755   6.265   6.670   4.221  0.1533  0.3380  0.0326
16447TIP3    H170756   6.283   6.620   4.141  1.6559 -1.7480  1.5610
16447TIP3    H270757   6.223   6.607   4.279 -1.3306  1.9429  0.7868
16448TIP3   OH270758   3.931   4.066   4.699  0.0294  0.2766 -0.1231
16448TIP3    H170759   4.007   4.019   4.734 -1.3080 -0.1685  2.4432
16448TIP3    H270760   3.954   4.158   4.710 -0.4437  0.1551  2.3722
16449TIP3   OH270761   6.495   5.126   2.522 -0.2152 -0.3689 -0.0628
16449TIP3    H170762   6.488   5.170   2.607  1.4235 -0.8886  0.3672
16449TIP3    H270763   6.583   5.090   2.520 -0.6754 -1.5238 -1.4405
16450TIP3   OH270764   6.686   4.240  17.308 -0.6502  0.0801 -0.4765
16450TIP3    H170765   6.632   4.320  17.303 -0.5399  0.1910  0.0354
16450TIP3    H270766   6.723   4.231  17.221 -2.5740 -0.7548 -1.2780
16451TIP3   OH270767   2.692   5.156   0.018 -0.1475  0.3449 -0.4991
16451TIP3    H170768   2.742   5.086  -0.023 -0.6917  0.3769 -1.2491
16451TIP3    H270769   2.675   5.218  -0.053 -0.5787  0.7131 -0.0852
16452TIP3   OH270770   5.969   5.310  15.907  0.5266  0.1436  0.5875
16452TIP3    H170771   5.888   5.260  15.895  0.0765  0.9640  0.0249
16452TIP3    H270772   5.978   5.359  15.825  1.0977  0.7588  1.0113
16453TIP3   OH270773   4.320   3.529  15.779 -0.4970  0.6526  0.2572
16453TIP3    H170774   4.243   3.501  15.828 -0.5816  2.2202  1.1080
16453TIP3    H270775   4.322   3.624  15.791  0.1019  0.9669 -1.9169
16454TIP3   OH270776   5.547   1.054   4.856 -0.2130  0.6903 -0.5940
16454TIP3    H170777   5.507   1.037   4.941 -0.3699 -2.3171 -1.1471
16454TIP3    H270778   5.482   1.105   4.809 -1.9811 -1.1205 -0.2581
16455TIP3   OH270779   5.989   3.411   2.343 -0.2928  0.1543 -0.1420
16455TIP3    H170780   5.986   3.318   2.366 -2.8458  0.3415  0.6430
16455TIP3    H270781   5.931   3.418   2.267  1.0003  0.9236 -1.0920
16456TIP3   OH270782   4.234   0.563  11.665 -0.2998 -0.5395 -0.6197
16456TIP3    H170783   4.145   0.531  11.679 -1.5403  2.9682  0.6007
16456TIP3    H270784   4.239   0.576  11.570 -1.4724  0.0772 -0.6216
16457TIP3   OH270785   6.747   5.373  12.473  0.0267 -0.3768 -0.1944
16457TIP3    H170786   6.670   5.316  12.467 -0.6986  0.4111  1.0705
16457TIP3    H270787   6.711   5.462  12.467  1.1072 -0.0156 -1.9070
16458TIP3   OH270788   4.961   0.997  14.468  0.1474 -0.1625  0.2446
16458TIP3    H170789   4.924   0.912  14.492  1.8143 -0.9826  0.1006
16458TIP3    H270790   5.044   1.002  14.517  1.6327 -0.0648 -2.1071
16459TIP3   OH270791   6.406   3.926   1.858 -0.4672  0.0470  0.0133
16459TIP3    H170792   6.462   3.850   1.843  0.3523  0.5668  0.3869
16459TIP3    H270793   6.365   3.910   1.943 -0.4057 -0.0391  0.0260
16460TIP3   OH270794   1.912   3.598  16.066  0.5324  0.1970  0.1133
16460TIP3    H170795   1.974   3.645  16.009  1.2669 -0.9186 -0.0393
16460TIP3    H270796   1.925   3.637  16.152 -1.1024  2.4130 -0.5409
16461TIP3   OH270797   4.462   4.009  13.715 -0.2096  0.0048  0.9257
16461TIP3    H170798   4.417   3.963  13.786  0.5252 -1.7446  0.3091
16461TIP3    H270799   4.392   4.047  13.663 -0.8338 -0.1595  1.6284
16462TIP3   OH270800   3.721   1.218  16.849 -0.7347  0.0492 -0.5092
16462TIP3    H170801   3.691   1.302  16.815 -0.6955 -0.1039 -0.9224
16462TIP3    H270802   3.670   1.204  16.929 -0.4340  0.6719 -0.1999
16463TIP3   OH270803   5.680   4.158  17.013 -0.6225 -0.3231 -0.4732
16463TIP3    H170804   5.738   4.233  17.000 -0.1322 -0.4724  0.6903
16463TIP3    H270805   5.724   4.105  17.081 -0.9377 -1.6838 -1.2896
16464TIP3   OH270806   2.511   5.387   4.850 -0.0027  0.7007  0.0070
16464TIP3    H170807   2.588   5.390   4.794 -0.5691 -1.7269 -1.0643
16464TIP3    H270808   2.439   5.413   4.793 -0.1441  1.9317  0.7112
16465TIP3   OH270809   5.683   4.049   1.149 -0.3794 -0.2678  0.1672
16465TIP3    H170810   5.697   4.134   1.108  1.2190  0.0127  1.1790
16465TIP3    H270811   5.688   3.986   1.077 -0.6782  0.4114 -0.4639
16466TIP3   OH270812   0.517   6.349   2.541 -0.1216  0.1817  0.3018
16466TIP3    H170813   0.489   6.380   2.628 -2.6018  2.0371 -1.0304
16466TIP3    H270814   0.571   6.420   2.506 -1.1542  0.5569 -0.5780
16467TIP3   OH270815   0.056   2.748   2.308 -0.1556  0.3752  0.0906
16467TIP3    H170816  -0.037   2.770   2.306 -0.1967  0.3320  1.0141
16467TIP3    H270817   0.084   2.769   2.397  0.4942 -0.5046  0.1132
16468TIP3   OH270818   3.824   3.182  16.900  0.3506  0.1306 -0.5075
16468TIP3    H170819   3.786   3.247  16.959 -0.1845  0.9661 -1.7361
16468TIP3    H270820   3.916   3.209  16.891 -0.1236  1.4478 -1.8991
16469TIP3   OH270821   3.858   4.721   1.048  0.3922 -0.0114 -0.0107
16469TIP3    H170822   3.877   4.678   1.132 -1.3097  0.1358  0.4915
16469TIP3    H270823   3.845   4.813   1.070  0.9780  0.2212 -0.6105
16470TIP3   OH270824   2.088   0.777   3.985 -0.8309  0.8827  0.1245
16470TIP3    H170825   2.035   0.824   3.921 -0.4667 -0.1652 -0.9852
16470TIP3    H270826   2.177   0.782   3.950 -0.5164  0.8775  0.9076
16471TIP3   OH270827   3.388   3.192  15.780 -0.0010 -0.6736  0.1422
16471TIP3    H170828   3.358   3.283  15.786 -0.0512 -0.6956  0.2253
16471TIP3    H270829   3.430   3.186  15.695 -0.5853 -0.7508 -0.1436
16472TIP3   OH270830   2.084   5.048  17.319 -0.1425 -0.5301  0.0585
16472TIP3    H170831   2.127   4.993  17.254 -0.7864  0.4455 -1.2259
16472TIP3    H270832   1.995   5.062  17.285 -0.5595 -0.1482  1.2344
16473TIP3   OH270833   3.532   4.463   1.694  0.3990 -0.4800  0.2784
16473TIP3    H170834   3.467   4.515   1.742 -0.8048 -0.9378 -0.7943
16473TIP3    H270835   3.532   4.378   1.737 -0.0628 -0.6239  0.0012
16474TIP3   OH270836   6.126   5.974   2.775  0.5010 -0.2295 -0.1319
16474TIP3    H170837   6.199   6.027   2.806  0.0311  0.7705 -0.6749
16474TIP3    H270838   6.060   6.038   2.747  0.1851 -1.0812 -1.4557
16475TIP3   OH270839   6.159   1.461  16.127 -0.0931  0.8457 -0.6929
16475TIP3    H170840   6.235   1.519  16.124 -1.3234  2.5947  0.5587
16475TIP3    H270841   6.133   1.460  16.219 -1.9994  0.8415 -1.1880
16476TIP3   OH270842   3.643   1.467  15.431  0.1365 -0.1931 -0.6053
16476TIP3    H170843   3.582   1.500  15.497 -0.6298 -0.6969 -1.0493
16476TIP3    H270844   3.724   1.452  15.479 -0.2245  0.0303  0.0929
16477TIP3   OH270845   5.247   3.611   4.643 -0.2224 -0.3665 -0.1121
16477TIP3    H170846   5.274   3.662   4.719 -1.1503 -0.0267  0.0041
16477TIP3    H270847   5.218   3.527   4.679  2.1874 -1.3985 -0.3831
16478TIP3   OH270848   4.404   1.614  12.198 -0.1581  0.1530 -0.2818
16478TIP3    H170849   4.313   1.588  12.184  0.2897 -1.3940 -0.5431
16478TIP3    H270850   4.455   1.536  12.177  1.2458  1.0035 -0.1937
16479TIP3   OH270851   1.632   2.856  11.337 -0.0515 -0.3540  0.3501
16479TIP3    H170852   1.586   2.829  11.257  2.2383 -0.9245 -0.8471
16479TIP3    H270853   1.636   2.951  11.332  0.5135 -0.4136 -0.4894
16480TIP3   OH270854   6.526   2.752  16.099  0.3350  0.2065  0.5160
16480TIP3    H170855   6.546   2.845  16.094  1.7099  0.0248  1.7523
16480TIP3    H270856   6.588   2.718  16.163  0.8821 -1.8428 -0.9963
16481TIP3   OH270857   1.837   0.705  11.932  0.0094 -0.1152 -0.6897
16481TIP3    H170858   1.845   0.651  11.853  0.8571 -2.0306  0.6261
16481TIP3    H270859   1.927   0.731  11.952  0.0995 -1.4029  0.7583
16482TIP3   OH270860   5.833   6.373   4.222 -0.1779  0.1938 -0.4726
16482TIP3    H170861   5.854   6.324   4.142 -1.2408 -0.1435 -0.5481
16482TIP3    H270862   5.755   6.423   4.199 -0.0376  0.6936  0.1252
16483TIP3   OH270863   1.916   3.592   4.147  0.1520 -0.2424 -0.1333
16483TIP3    H170864   1.899   3.627   4.059  0.4962 -1.8712 -0.8897
16483TIP3    H270865   2.005   3.620   4.168  0.6607 -1.1375 -0.9980
16484TIP3   OH270866   1.152   6.157  15.250  0.5786  0.0542  0.2664
16484TIP3    H170867   1.099   6.078  15.256  0.0300  0.4076  0.0827
16484TIP3    H270868   1.102   6.224  15.296  0.0622  0.8035 -1.3407
16485TIP3   OH270869   2.253   1.599   3.797  0.1099 -0.6894 -0.5981
16485TIP3    H170870   2.335   1.582   3.843 -0.9965 -0.8559  1.3944
16485TIP3    H270871   2.204   1.517   3.805 -0.8552 -0.1080 -0.4696
16486TIP3   OH270872   6.545   5.677   2.015 -0.3518 -0.3344 -0.6164
16486TIP3    H170873   6.540   5.754   2.071 -0.6339 -0.4670 -0.4516
16486TIP3    H270874   6.459   5.636   2.024 -0.3436 -0.4475 -1.0189
16487TIP3   OH270875   1.925   1.938  12.707 -0.1022  0.0734 -0.2110
16487TIP3    H170876   1.886   1.868  12.655  0.3917 -1.7754  1.7625
16487TIP3    H270877   1.854   2.000  12.723 -1.3954 -1.5474  0.5363
16488TIP3   OH270878   1.904   0.408   3.566 -0.1547 -0.3871  0.0531
16488TIP3    H170879   1.846   0.417   3.642  1.0107 -1.4391  1.1103
16488TIP3    H270880   1.860   0.343   3.511 -0.9646  0.3148 -0.1418
16489TIP3   OH270881   0.455   4.399   3.535 -0.4984 -0.9248  0.4162
16489TIP3    H170882   0.462   4.438   3.622  2.1648  2.9567 -1.2176
16489TIP3    H270883   0.538   4.352   3.522 -0.9525 -1.6352  0.0265
16490TIP3   OH270884   6.483   5.589  16.930  0.2662 -0.2049  0.6443
16490TIP3    H170885   6.527   5.632  17.003  0.7588  1.0427 -0.3385
16490TIP3    H270886   6.413   5.538  16.970  1.5580 -0.9122  2.1149
16491TIP3   OH270887   0.358   4.692  16.350 -0.3987 -0.1979  0.5370
16491TIP3    H170888   0.277   4.732  16.320 -1.0234 -1.9437 -0.2819
16491TIP3    H270889   0.330   4.613  16.396  0.8303 -1.0302 -0.0606
16492TIP3   OH270890   2.351   3.061  11.343 -0.3661 -0.1625  0.2064
16492TIP3    H170891   2.352   2.970  11.312  0.1623 -0.4962  1.1606
16492TIP3    H270892   2.297   3.059  11.422  0.3570  0.1761  0.7232
16493TIP3   OH270893   3.023   5.736   1.664 -0.6602  0.6417  0.2687
16493TIP3    H170894   3.086   5.798   1.626 -0.6939  0.4975 -0.0182
16493TIP3    H270895   2.938   5.779   1.654 -0.6211  0.7924  0.5666
16494TIP3   OH270896   2.220   4.739  11.632  0.0155  0.0334  0.0412
16494TIP3    H170897   2.182   4.666  11.584  0.3810 -0.3944  0.3857
16494TIP3    H270898   2.314   4.720  11.632  0.1574  0.7324 -0.2418
16495TIP3   OH270899   2.620   0.717   1.905  0.2006 -0.1017 -0.1374
16495TIP3    H170900   2.593   0.627   1.920  1.8821 -0.2758  2.4246
16495TIP3    H270901   2.547   0.756   1.857 -1.4989 -2.2725  0.5084
16496TIP3   OH270902   6.703   2.514  17.289 -0.1862 -0.1186  0.1256
16496TIP3    H170903   6.785   2.563  17.281 -0.6515  1.2388  2.6591
16496TIP3    H270904   6.729   2.431  17.330  0.2994 -1.1560 -2.1394
16497TIP3   OH270905   2.489   1.148  14.622  0.1194 -0.0789 -0.1945
16497TIP3    H170906   2.395   1.138  14.611  0.2492 -0.0968 -1.4735
16497TIP3    H270907   2.524   1.059  14.617  0.2217 -0.0476 -0.0208
16498TIP3   OH270908   0.754   3.810   0.520  0.3383  0.6245  0.1302
16498TIP3    H170909   0.690   3.739   0.510  1.4193 -0.1631 -1.6842
16498TIP3    H270910   0.770   3.840   0.431  2.5135  0.7817  0.5355
16499TIP3   OH270911   6.371   2.537  16.344 -0.2919 -0.4039 -0.6538
16499TIP3    H170912   6.301   2.564  16.284  0.6370 -1.3819 -2.2526
16499TIP3    H270913   6.349   2.447  16.368 -1.2996  0.3596  1.5177
16500TIP3   OH270914   0.679   5.074  12.274 -0.1622  0.0500 -0.2503
16500TIP3    H170915   0.643   5.025  12.348 -0.9451  1.6095  0.4509
16500TIP3    H270916   0.653   5.024  12.197  3.2271 -3.3029  0.5068
16501TIP3   OH270917   0.130   5.232  13.800  0.1144 -0.4927  0.2694
16501TIP3    H170918   0.116   5.166  13.732  0.8999 -1.8476  1.3680
16501TIP3    H270919   0.050   5.285  13.798 -0.7615 -1.7611 -0.3489
16502TIP3   OH270920   0.258   5.328   2.496  0.1030  0.1194  0.7528
16502TIP3    H170921   0.190   5.391   2.520 -0.8922 -0.6493  0.0546
16502TIP3    H270922   0.297   5.365   2.417  0.3767  0.4743  1.0517
16503TIP3   OH270923   3.898   4.220  14.703 -0.2229 -0.0096  0.3643
16503TIP3    H170924   3.821   4.163  14.705 -0.1824 -0.0576  0.5680
16503TIP3    H270925   3.884   4.281  14.776 -0.7554  0.8842 -0.4622
16504TIP3   OH270926   5.797   3.354   2.692  0.6010 -0.5320 -0.0021
16504TIP3    H170927   5.877   3.319   2.733  0.6186 -0.5405 -0.0441
16504TIP3    H270928   5.781   3.297   2.617  0.2993 -0.8087  0.2695
16505TIP3   OH270929   2.732   2.401  15.887 -0.7621  0.2601  0.3075
16505TIP3    H170930   2.669   2.472  15.899  0.3462  1.2274  0.5546
16505TIP3    H270931   2.767   2.415  15.799 -2.4697 -1.6096 -0.7528
16506TIP3   OH270932   3.740   4.942  14.869  0.4862 -0.3583  0.0758
16506TIP3    H170933   3.833   4.924  14.854  0.5965  0.4028 -0.1945
16506TIP3    H270934   3.729   4.939  14.964  0.7663 -0.5427  0.1027
16507TIP3   OH270935   1.605   5.943  16.480  0.3512 -1.1535  0.5727
16507TIP3    H170936   1.514   5.916  16.492  0.1926 -0.8768  0.0095
16507TIP3    H270937   1.603   6.038  16.481  0.8243 -1.1448  1.8866
16508TIP3   OH270938   4.637   5.157  12.637  0.5057 -0.5134  0.1809
16508TIP3    H170939   4.600   5.135  12.552 -0.1409  2.0396 -0.2822
16508TIP3    H270940   4.577   5.119  12.701  0.0503 -0.9823 -0.5228
16509TIP3   OH270941   4.363   5.315   5.048 -0.0940 -0.0301 -0.0504
16509TIP3    H170942   4.407   5.240   5.089 -0.8671 -0.7466 -0.4960
16509TIP3    H270943   4.318   5.278   4.972  0.3322  1.0747 -0.8584
16510TIP3   OH270944   0.086   4.163   0.106 -0.3924 -0.7869  0.5066
16510TIP3    H170945   0.018   4.121   0.159 -1.5809 -1.2009 -1.2479
16510TIP3    H270946   0.038   4.214   0.041  0.9631 -0.8354 -0.6038
16511TIP3   OH270947   1.269   0.250   5.965  0.0985 -0.1554 -0.0031
16511TIP3    H170948   1.197   0.236   5.903  0.6645 -2.2152 -0.2718
16511TIP3    H270949   1.225   0.260   6.050 -0.5653 -0.6053 -0.2787
16512TIP3   OH270950   2.125   2.095   5.176  0.0031 -0.0291 -0.1836
16512TIP3    H170951   2.030   2.102   5.183 -0.0381 -0.3979 -0.3207
16512TIP3    H270952   2.148   2.151   5.101 -0.1790 -0.4324 -0.5462
16513TIP3   OH270953   3.427   0.989   0.034  0.6168  0.7858 -0.1690
16513TIP3    H170954   3.399   0.982  -0.057  0.4579  1.8428 -0.2141
16513TIP3    H270955   3.495   1.057   0.032  0.3422  1.0876  0.5467
16514TIP3   OH270956   2.705   3.875  11.902  0.1743  0.0442 -0.3904
16514TIP3    H170957   2.774   3.880  11.836 -0.6504 -0.2338 -1.2940
16514TIP3    H270958   2.732   3.803  11.959  0.3234 -0.4734 -1.0971
16515TIP3   OH270959   1.642   4.940  14.523  0.2700 -0.1198  0.5347
16515TIP3    H170960   1.666   4.847  14.525  3.0556  0.5163  2.2343
16515TIP3    H270961   1.591   4.950  14.443 -0.6238 -3.1847  0.5702
16516TIP3   OH270962   3.234   1.512  11.723 -0.1771 -0.2516 -0.5241
16516TIP3    H170963   3.311   1.567  11.733  0.6998 -1.0181 -2.5471
16516TIP3    H270964   3.238   1.451  11.796 -1.4969  2.5700  2.1326
16517TIP3   OH270965   1.539   2.651   5.826  0.0960 -0.3472  0.5634
16517TIP3    H170966   1.605   2.719   5.816  0.5248 -0.5846  1.6580
16517TIP3    H270967   1.472   2.673   5.761 -0.0124  1.3996  1.2125
16518TIP3   OH270968   2.478   0.698  13.074 -0.1789 -0.4984  0.4523
16518TIP3    H170969   2.421   0.726  13.145 -1.8123  1.0539 -1.3446
16518TIP3    H270970   2.432   0.625  13.033 -0.1420 -0.2520 -0.0474
16519TIP3   OH270971   4.378   4.702   2.578 -0.1186  0.3711  0.2895
16519TIP3    H170972   4.414   4.619   2.608 -0.5324  0.1570  0.1949
16519TIP3    H270973   4.447   4.740   2.523 -0.0737 -0.0789  0.0318
16520TIP3   OH270974   0.956   3.666   1.677 -0.0252  0.0367  0.5089
16520TIP3    H170975   0.903   3.672   1.756 -0.8135  1.1175 -0.0795
16520TIP3    H270976   1.010   3.744   1.678 -0.7613  0.5852 -0.5036
16521TIP3   OH270977   6.160   4.411   5.211  0.1547 -0.7768  0.2100
16521TIP3    H170978   6.148   4.478   5.143 -2.5641  0.7300  1.9998
16521TIP3    H270979   6.137   4.329   5.168  1.5264 -0.3679 -1.4658
16522TIP3   OH270980   2.944   3.710  11.389 -0.0425  0.2854  0.4185
16522TIP3    H170981   2.848   3.703  11.389  0.0181 -1.0980  1.6200
16522TIP3    H270982   2.963   3.785  11.334 -1.8037  0.2442 -0.2982
16523TIP3   OH270983   1.855   5.903   2.546 -0.1208 -0.1092 -0.2744
16523TIP3    H170984   1.861   5.827   2.488 -0.8666 -0.2042 -0.2342
16523TIP3    H270985   1.927   5.960   2.519  0.7197 -1.0278 -0.0083
16524TIP3   OH270986   2.505   2.794  16.134  0.5575  0.3016 -0.5706
16524TIP3    H170987   2.551   2.800  16.050  0.4692 -0.3275 -0.6702
16524TIP3    H270988   2.572   2.811  16.200  0.4921  1.4871 -0.7784
16525TIP3   OH270989   2.156   4.911   1.164 -0.4522  0.2578 -0.2403
16525TIP3    H170990   2.180   4.821   1.184  0.3178  0.4200 -0.4166
16525TIP3    H270991   2.189   4.925   1.075  1.3084  1.3711  0.5406
16526TIP3   OH270992   3.488   4.591   4.463 -0.5477 -0.6258 -0.7711
16526TIP3    H170993   3.548   4.519   4.446  1.1317  0.3162  0.7883
16526TIP3    H270994   3.545   4.664   4.487 -2.2774  0.7024 -0.5237
16527TIP3   OH270995   6.104   6.749   5.357  0.3084 -0.0165  0.0225
16527TIP3    H170996   6.012   6.764   5.382  0.7433  0.3341  1.5050
16527TIP3    H270997   6.153   6.762   5.438  1.6097 -0.9230 -0.5901
16528TIP3   OH270998   6.288   2.511   4.022  0.1698  0.4449 -0.2765
16528TIP3    H170999   6.369   2.563   4.023  1.1356 -0.7445 -3.4115
16528TIP3    H271000   6.313   2.428   3.982 -1.7582 -1.7744  2.6625
16529TIP3   OH271001   6.022   2.738   5.457 -0.9434  0.0731  0.3397
16529TIP3    H171002   6.075   2.816   5.469  1.1333 -1.2463  0.3368
16529TIP3    H271003   5.950   2.748   5.519 -0.6591  1.9116  0.4195
16530TIP3   OH271004   3.758   4.327  15.143  0.0815 -0.4331  0.2740
16530TIP3    H171005   3.742   4.327  15.049  1.0172  0.1653  0.0986
16530TIP3    H271006   3.783   4.237  15.163 -0.1735 -0.5740 -0.0419
16531TIP3   OH271007   2.138   4.587   4.175 -0.2372  0.4472 -0.0712
16531TIP3    H171008   2.178   4.632   4.100 -1.5880  0.2245 -0.9849
16531TIP3    H271009   2.207   4.582   4.240  0.2812  2.9512 -0.3034
16532TIP3   OH271010   4.469   3.427   3.315 -0.0260 -0.4233 -0.7634
16532TIP3    H171011   4.516   3.352   3.352 -1.1977 -1.0129 -0.4490
16532TIP3    H271012   4.421   3.391   3.241 -1.5491 -0.2434  0.1134
16533TIP3   OH271013   4.962   1.005  17.152 -0.2807  0.5812  0.4596
16533TIP3    H171014   4.876   0.962  17.150 -0.5602  1.0247  1.9304
16533TIP3    H271015   5.012   0.955  17.216  0.2763  0.8567  0.2436
16534TIP3   OH271016   4.816   6.088  12.153  0.4748  0.5998 -0.0208
16534TIP3    H171017   4.770   6.008  12.179 -0.7663  1.4187  0.3948
16534TIP3    H271018   4.847   6.071  12.064  0.8066 -0.5748  0.3097
16535TIP3   OH271019   6.026   6.488   4.384 -0.3978  0.6618 -0.2876
16535TIP3    H171020   5.955   6.441   4.339 -1.7574  0.3434  2.0187
16535TIP3    H271021   6.003   6.580   4.373 -1.2816  0.5612  0.5264
16536TIP3   OH271022   1.690   1.551  11.141 -0.2502  0.4181 -0.0082
16536TIP3    H171023   1.681   1.584  11.051 -4.4479 -0.2979 -0.0514
16536TIP3    H271024   1.768   1.496  11.139  1.0425  2.1647 -2.5951
16537TIP3   OH271025   4.196   0.175   0.926 -0.5516 -0.3052  0.4571
16537TIP3    H171026   4.186   0.193   0.833 -0.0251 -0.6075  0.3391
16537TIP3    H271027   4.286   0.201   0.946 -0.6002 -0.4239  0.8429
16538TIP3   OH271028   5.462   5.394  12.778 -1.0960 -0.5628  0.2595
16538TIP3    H171029   5.471   5.425  12.688 -0.2454 -0.8364  0.2481
16538TIP3    H271030   5.376   5.351  12.780 -0.8995 -1.0099 -0.5584
16539TIP3   OH271031   5.091   1.732  12.975 -0.5617  0.1002  0.2237
16539TIP3    H171032   5.100   1.827  12.985 -1.1306  0.1878 -0.0163
16539TIP3    H271033   5.014   1.721  12.919 -0.5263 -0.5051  0.2831
16540TIP3   OH271034   5.014   4.660  17.105  0.0394 -0.2032 -0.4885
16540TIP3    H171035   4.989   4.576  17.066 -2.3120  0.4497 -0.5180
16540TIP3    H271036   4.947   4.721  17.076  2.0119  1.8851 -0.9661
16541TIP3   OH271037   3.888   4.986   0.125 -0.7320  0.4480  0.2732
16541TIP3    H171038   3.813   5.045   0.121  0.4291  2.2233  2.5839
16541TIP3    H271039   3.963   5.042   0.144  1.2886 -1.2526 -1.9878
16542TIP3   OH271040   0.299   3.582  13.130 -0.4416  0.0896 -0.3212
16542TIP3    H171041   0.357   3.528  13.076  0.9767  0.1155  1.1219
16542TIP3    H271042   0.261   3.644  13.068  0.2585 -0.6082 -1.4910
16543TIP3   OH271043   5.809   5.902   4.645  0.4449 -0.1265 -0.1123
16543TIP3    H171044   5.831   5.881   4.736 -0.1625  1.0375  0.3166
16543TIP3    H271045   5.714   5.914   4.645  0.4356 -0.1744 -0.9132
16544TIP3   OH271046   0.294   4.041  14.737  0.0451 -0.7046 -0.3630
16544TIP3    H171047   0.294   4.013  14.828 -0.1363  0.2911 -0.0418
16544TIP3    H271048   0.339   4.126  14.739  0.9564 -1.1427 -1.3504
16545TIP3   OH271049   6.603   0.649   4.864 -0.0102  0.0302  0.2614
16545TIP3    H171050   6.666   0.654   4.792  0.6516 -0.5848  0.7847
16545TIP3    H271051   6.614   0.561   4.899  0.3896  0.6450  1.7619
16546TIP3   OH271052   1.931   4.238  12.771 -0.1694 -0.0479 -0.7336
16546TIP3    H171053   1.985   4.231  12.850 -1.5571 -1.6912  0.1236
16546TIP3    H271054   1.994   4.256  12.701  1.1850  0.6317  0.6053
16547TIP3   OH271055   1.668   5.906   3.941  0.0675 -0.2937  0.1622
16547TIP3    H171056   1.761   5.919   3.926  0.1085 -0.9810 -0.2209
16547TIP3    H271057   1.660   5.891   4.035  0.1053  1.6144  0.5212
16548TIP3   OH271058   4.179   1.594  13.020  0.9512 -0.5236 -0.2174
16548TIP3    H171059   4.216   1.648  13.090  0.8764  2.0499 -2.0423
16548TIP3    H271060   4.096   1.636  12.998  0.8047 -1.4804 -1.6252
16549TIP3   OH271061   1.069   1.231   1.497 -0.2623  0.6702 -0.2051
16549TIP3    H171062   1.059   1.137   1.509 -1.1641  0.6933 -0.6909
16549TIP3    H271063   0.980   1.266   1.503  0.1474  1.6013  0.7720
16550TIP3   OH271064   1.103   1.954  11.367 -0.3416  0.1701 -0.0466
16550TIP3    H171065   1.080   1.931  11.457 -1.8485 -0.6044 -0.6049
16550TIP3    H271066   1.057   1.890  11.313  0.4751  0.6695 -1.3908
16551TIP3   OH271067   3.183   6.358  14.317 -0.3016  0.0360 -0.3818
16551TIP3    H171068   3.161   6.296  14.248  0.1669  0.4892 -0.9543
16551TIP3    H271069   3.191   6.305  14.396 -0.4420 -0.5530 -0.7576
16552TIP3   OH271070   0.110   0.242   5.005  0.2052  0.3837 -0.0589
16552TIP3    H171071   0.129   0.205   4.918 -1.8970 -1.0007 -0.0218
16552TIP3    H271072   0.107   0.165   5.062  1.4321  1.2752  1.2397
16553TIP3   OH271073   2.610   0.658   3.244 -0.1611 -0.2278  0.4281
16553TIP3    H171074   2.638   0.567   3.249  0.7396  0.0892  2.4508
16553TIP3    H271075   2.679   0.702   3.194 -0.4662 -0.6102 -0.3284
16554TIP3   OH271076   3.707   4.063   5.652 -0.1264 -0.5395  0.2578
16554TIP3    H171077   3.695   4.158   5.654 -0.9605 -0.6410  0.0956
16554TIP3    H271078   3.794   4.050   5.690  0.8939  0.4326 -1.6094
16555TIP3   OH271079   5.783   3.422  15.365  0.2258 -0.0411 -0.1889
16555TIP3    H171080   5.741   3.414  15.450 -1.0223 -0.0566 -0.7775
16555TIP3    H271081   5.749   3.504  15.329  1.4012  0.3975 -0.3183
16556TIP3   OH271082   4.113   2.954  11.175 -0.0292 -0.1591  0.2259
16556TIP3    H171083   4.110   2.892  11.247 -2.3868  1.0131  1.2371
16556TIP3    H271084   4.048   2.921  11.112  0.3832  0.0355 -0.3111
16557TIP3   OH271085   1.308   6.165  14.908  0.0052 -0.7663 -0.2746
16557TIP3    H171086   1.221   6.126  14.904 -0.8500  0.9710  0.2464
16557TIP3    H271087   1.368   6.095  14.881 -1.4957 -2.1468 -0.1358
16558TIP3   OH271088   6.686   1.206  15.145  0.3061 -0.2483 -0.0348
16558TIP3    H171089   6.628   1.240  15.213  1.9858  1.1071  0.8095
16558TIP3    H271090   6.722   1.284  15.103  2.1019 -1.0114  0.0073
16559TIP3   OH271091   3.559   6.636  13.177  0.1993 -0.0790  0.4487
16559TIP3    H171092   3.488   6.627  13.240 -1.6547  0.2581 -1.4796
16559TIP3    H271093   3.520   6.683  13.103  2.1857 -0.6739 -1.0740
16560TIP3   OH271094   5.235   2.740   0.546 -0.1110  0.0889  0.2927
16560TIP3    H171095   5.245   2.809   0.611 -0.5419  0.1657  0.2827
16560TIP3    H271096   5.306   2.754   0.483  0.2188  0.1023  0.6646
16561TIP3   OH271097   4.504   5.700   1.782  0.2318  0.4466 -0.1489
16561TIP3    H171098   4.568   5.670   1.717 -1.2993 -1.6374 -0.7972
16561TIP3    H271099   4.419   5.685   1.742 -0.7693 -0.2767  2.0398
16562TIP3   OH271100   4.008   1.221   3.275  0.0942 -0.8448 -0.2170
16562TIP3    H171101   4.072   1.184   3.213  1.9235  0.3175  0.8919
16562TIP3    H271102   3.970   1.296   3.228  2.1899  0.6443  0.3079
16563TIP3   OH271103   5.199   1.161  11.276 -0.1481  0.2980  0.1230
16563TIP3    H171104   5.212   1.109  11.355 -1.1137 -0.3317 -0.1205
16563TIP3    H271105   5.210   1.251  11.305 -0.6412  0.0858  1.0183
16564TIP3   OH271106   6.246   3.005  15.966 -0.3276 -0.0817 -0.4211
16564TIP3    H171107   6.214   3.006  15.876 -2.9519  0.3961  0.4426
16564TIP3    H271108   6.258   3.097  15.989 -0.8937 -0.1323  0.1033
16565TIP3   OH271109   2.191   3.405  11.899 -0.5588  0.2538  0.0338
16565TIP3    H171110   2.130   3.426  11.828 -0.3932  1.0490  0.1177
16565TIP3    H271111   2.148   3.436  11.978 -0.6219 -0.3904  0.2593
16566TIP3   OH271112   2.008   3.187  15.237 -0.0886  0.8204 -1.1554
16566TIP3    H171113   1.928   3.134  15.233  0.2620 -0.0172  1.1039
16566TIP3    H271114   2.079   3.124  15.229  0.3437  1.3457 -1.4781
16567TIP3   OH271115   3.547   6.434   0.631  0.4927  0.7435  0.1894
16567TIP3    H171116   3.590   6.485   0.699  2.3921  2.0594 -1.8455
16567TIP3    H271117   3.476   6.490   0.601  2.3274  2.2240 -1.7619
16568TIP3   OH271118   2.870   3.596   3.384  0.3175  0.4598 -0.2890
16568TIP3    H171119   2.782   3.632   3.374  0.4030  0.1993 -2.4454
16568TIP3    H271120   2.862   3.505   3.355  1.0531  0.0639  0.7107
16569TIP3   OH271121   2.862   4.921  15.938  0.0899  0.0455  0.2909
16569TIP3    H171122   2.949   4.951  15.910 -0.6254 -0.5713 -2.8834
16569TIP3    H271123   2.805   4.997  15.924 -0.2619 -0.2269  0.2538
16570TIP3   OH271124   3.595   2.749   1.768  0.1742 -0.4654 -1.2695
16570TIP3    H171125   3.641   2.824   1.807 -0.0237 -0.3741 -1.2088
16570TIP3    H271126   3.580   2.774   1.677 -1.8237  0.4962 -0.7164
16571TIP3   OH271127   6.264   0.593   4.926  0.0333 -0.0232  0.1953
16571TIP3    H171128   6.289   0.550   5.007  3.3420 -2.8093 -2.0053
16571TIP3    H271129   6.169   0.584   4.922 -0.1052 -0.8133  3.1552
16572TIP3   OH271130   2.573   4.545   4.091 -0.4640 -0.7865  0.0575
16572TIP3    H171131   2.507   4.546   4.160  0.2893  0.7393  0.8107
16572TIP3    H271132   2.568   4.633   4.052  1.7271 -0.2668  0.7863
16573TIP3   OH271133   5.781   5.996   0.794 -0.3732  0.0424 -0.1413
16573TIP3    H171134   5.687   5.986   0.779 -0.4256  1.5837 -1.1084
16573TIP3    H271135   5.806   6.070   0.739  1.3408 -0.0819  0.4073
16574TIP3   OH271136   4.707   2.438   1.135  0.2519  0.5006  0.0434
16574TIP3    H171137   4.651   2.382   1.189  1.2226 -0.9740 -0.4125
16574TIP3    H271138   4.784   2.455   1.190  0.9291 -0.4338 -0.5827
16575TIP3   OH271139   1.119   2.411  10.625  0.5713  0.0753 -0.6887
16575TIP3    H171140   1.107   2.506  10.626  0.5157  0.0948  0.9503
16575TIP3    H271141   1.030   2.376  10.621  0.5304  0.1173 -0.2517
16576TIP3   OH271142   1.574   4.726  12.255  0.3394 -0.1118  0.2131
16576TIP3    H171143   1.620   4.702  12.335  2.0786  0.1943 -0.6512
16576TIP3    H271144   1.640   4.719  12.186 -0.6328  1.3532 -0.9435
16577TIP3   OH271145   1.453   5.543  14.536  0.2036  0.2976  0.2384
16577TIP3    H171146   1.408   5.526  14.619  0.5736  1.9702  0.8260
16577TIP3    H271147   1.405   5.493  14.471  0.0179 -1.2058  1.4920
16578TIP3   OH271148   2.038   2.637  16.607 -0.1869  0.2065  0.1360
16578TIP3    H171149   2.114   2.604  16.654  0.6641 -0.9321 -1.9109
16578TIP3    H271150   2.057   2.730  16.594  0.7806 -0.0234 -0.1916
16579TIP3   OH271151   1.703   1.664   4.633 -0.3369  0.3443  0.8775
16579TIP3    H171152   1.797   1.677   4.646 -0.2984  0.2795  0.6723
16579TIP3    H271153   1.688   1.689   4.542 -0.5028  0.2645  0.8828
16580TIP3   OH271154   4.236   3.565   4.981  0.3511 -0.0416  0.1965
16580TIP3    H171155   4.156   3.558   5.034 -1.7641 -0.0528 -2.7305
16580TIP3    H271156   4.262   3.474   4.965 -0.2334 -0.1028 -0.4463
16581TIP3   OH271157   6.485   3.226  11.622 -0.1053 -0.1173 -0.2577
16581TIP3    H171158   6.498   3.132  11.608  1.0274  0.1181 -0.8773
16581TIP3    H271159   6.513   3.267  11.541  1.2282  0.8939  0.6741
16582TIP3   OH271160   4.817   1.930   3.076 -0.2123  0.3113 -0.0591
16582TIP3    H171161   4.823   1.936   3.171 -0.3439  0.4738 -0.0606
16582TIP3    H271162   4.742   1.873   3.061 -0.4326  0.6023 -0.0689
16583TIP3   OH271163   4.160   1.325   2.739 -0.0624  0.5997 -0.2298
16583TIP3    H171164   4.106   1.348   2.815 -0.6827  1.5654 -0.9339
16583TIP3    H271165   4.247   1.310   2.776 -0.2131  1.6425  0.6145
16584TIP3   OH271166   4.631   0.696  13.960  0.8640 -0.1707  0.2934
16584TIP3    H171167   4.627   0.731  13.870 -0.2630 -0.6562  0.1331
16584TIP3    H271168   4.613   0.603  13.950  0.0366 -0.1072  1.0857
16585TIP3   OH271169   1.753   5.118   0.811 -0.2136 -0.5870  0.4455
16585TIP3    H171170   1.829   5.091   0.863 -0.0917 -0.4454  0.3418
16585TIP3    H271171   1.701   5.038   0.802  0.4950 -0.9787 -0.4441
16586TIP3   OH271172   1.164   5.416   2.103  0.1604  0.0504  0.3865
16586TIP3    H171173   1.071   5.396   2.106 -0.0889  1.2464  2.4475
16586TIP3    H271174   1.170   5.510   2.121  1.7235  0.2687 -0.9720
16587TIP3   OH271175   3.901   6.240  11.995  0.2597 -0.1744  0.0935
16587TIP3    H171176   3.880   6.245  12.088  1.6304 -1.1309  0.4943
16587TIP3    H271177   3.892   6.330  11.963 -3.5783 -0.3203  0.3016
16588TIP3   OH271178   2.902   4.505   2.230 -0.4104  0.1634  0.5362
16588TIP3    H171179   2.850   4.514   2.310 -1.1177  0.0989  0.0941
16588TIP3    H271180   2.858   4.562   2.167  0.1852  0.2662  0.2098
16589TIP3   OH271181   4.708   2.354   5.831  0.2597  0.4373 -0.4674
16589TIP3    H171182   4.707   2.360   5.926 -0.1590  2.8575 -0.5780
16589TIP3    H271183   4.624   2.311   5.809  1.1577 -1.8669  0.2565
16590TIP3   OH271184   2.381   4.204   1.737 -0.2496 -0.0925  0.6016
16590TIP3    H171185   2.362   4.233   1.648 -3.3180 -0.0029  1.1486
16590TIP3    H271186   2.304   4.152   1.761  0.5649 -0.2330  3.1500
16591TIP3   OH271187   6.016   0.644  12.732  0.3049  0.9311 -0.0514
16591TIP3    H171188   5.988   0.585  12.802 -0.5239 -0.3869 -1.4172
16591TIP3    H271189   5.963   0.723  12.745 -1.2616 -0.0347 -0.2840
16592TIP3   OH271190   5.180   0.872  16.345  0.1110  0.3050  0.4517
16592TIP3    H171191   5.174   0.847  16.437 -0.0911 -1.1585  0.0697
16592TIP3    H271192   5.118   0.814  16.301  1.0271  0.2110 -0.7486
16593TIP3   OH271193   0.309   0.634  16.245 -0.4908  0.4492 -0.4177
16593TIP3    H171194   0.358   0.572  16.299 -0.6325  1.2393  0.6614
16593TIP3    H271195   0.286   0.705  16.305 -1.8277  0.7212 -1.2066
16594TIP3   OH271196   2.646   2.706   6.285 -0.2944  0.4485 -0.0452
16594TIP3    H171197   2.567   2.747   6.249  1.0698  0.8620 -2.9044
16594TIP3    H271198   2.700   2.779   6.315  0.4698  0.5427 -1.5099
16595TIP3   OH271199   2.288   5.550   5.248 -0.4449 -0.3913  0.6299
16595TIP3    H171200   2.345   5.605   5.303 -0.5668  1.1820 -0.7450
16595TIP3    H271201   2.348   5.490   5.204  0.1784  1.0056 -0.5205
16596TIP3   OH271202   2.388   1.684  15.699 -0.0860  0.2402  0.1123
16596TIP3    H171203   2.315   1.736  15.731  0.2530 -0.1453  1.5712
16596TIP3    H271204   2.351   1.598  15.680 -0.3046  0.4951 -0.6673
16597TIP3   OH271205   2.950   4.737   5.071 -0.1767 -0.6483 -0.2450
16597TIP3    H171206   2.971   4.715   5.161 -0.1316  1.1570  0.2250
16597TIP3    H271207   2.887   4.670   5.044  1.3689 -2.4240  0.4019
16598TIP3   OH271208   3.325   1.073   2.935  0.2239 -0.3571  0.1409
16598TIP3    H171209   3.333   0.978   2.935  2.2822 -0.2219  0.3611
16598TIP3    H271210   3.387   1.103   3.001 -2.3989  1.0434  2.1758
16599TIP3   OH271211   0.392   5.270  13.424  0.6800 -0.8133 -0.9677
16599TIP3    H171212   0.311   5.251  13.471 -0.5549 -2.5268 -3.5520
16599TIP3    H271213   0.451   5.198  13.447  0.5392 -0.9550 -1.0462
16600TIP3   OH271214   1.007   6.025   0.062 -0.0033  0.7090 -0.1288
16600TIP3    H171215   0.913   6.025   0.041  0.1332  1.1117 -0.7904
16600TIP3    H271216   1.013   5.982   0.147 -0.6747 -0.3592 -0.6080
16601TIP3   OH271217   4.526   5.126  14.517  0.0109  0.1361 -0.1808
16601TIP3    H171218   4.452   5.070  14.492 -0.7802  1.0926 -0.0528
16601TIP3    H271219   4.486   5.210  14.540  1.0533  0.3886  0.8111
16602TIP3   OH271220   6.741   3.937  17.320 -0.6479  0.2614  0.2284
16602TIP3    H171221   6.717   3.972  17.234  2.0186 -0.3111 -0.8481
16602TIP3    H271222   6.765   4.014  17.371 -0.4057  0.4666 -0.1860
16603TIP3   OH271223   1.879   1.256  11.464  0.4067  0.3163  0.3047
16603TIP3    H171224   1.860   1.177  11.515  0.1917 -0.9516 -1.6354
16603TIP3    H271225   1.792   1.293  11.443  0.3884 -0.2452 -0.6944
16604TIP3   OH271226   3.062   1.216  15.383  0.4198  0.6232 -0.4999
16604TIP3    H171227   3.099   1.293  15.340 -0.5070  1.4791  0.2098
16604TIP3    H271228   3.124   1.196  15.454  0.8301  0.5034 -0.8860
16605TIP3   OH271229   1.248   0.463  13.474  0.2419 -0.4085  0.1325
16605TIP3    H171230   1.158   0.433  13.462  1.3224 -3.6388 -1.1909
16605TIP3    H271231   1.243   0.531  13.541 -2.8674 -2.2417  1.9882
16606TIP3   OH271232   0.253   4.616   0.707  0.4762 -0.3098 -0.1305
16606TIP3    H171233   0.274   4.678   0.777  2.6057  0.1098 -1.0476
16606TIP3    H271234   0.160   4.627   0.692  0.0523 -0.0617  2.2750
16607TIP3   OH271235   2.596   2.101   3.566 -0.1510  0.5705  0.3221
16607TIP3    H171236   2.520   2.050   3.592  0.0412 -0.6628 -1.3792
16607TIP3    H271237   2.600   2.173   3.629 -2.4389  0.4040  0.7182
16608TIP3   OH271238   0.353   5.455   4.627  0.6730 -0.1838 -0.4521
16608TIP3    H171239   0.377   5.516   4.557  0.4934  0.8333  0.3357
16608TIP3    H271240   0.266   5.424   4.602  1.0934 -0.7383 -1.2606
16609TIP3   OH271241   3.687   4.240   5.160  0.1911 -0.6526 -0.1188
16609TIP3    H171242   3.594   4.234   5.138  0.4046 -1.0764 -0.9658
16609TIP3    H271243   3.697   4.187   5.239 -0.2192 -0.9320 -0.2514
16610TIP3   OH271244   0.174   5.344   0.714  1.0714  0.1814  0.2107
16610TIP3    H171245   0.118   5.344   0.792  2.8053 -1.5713  1.5483
16610TIP3    H271246   0.182   5.252   0.691  2.9349  0.4263 -0.2578
16611TIP3   OH271247   0.378   1.378  14.282  0.0439  0.0641 -0.1655
16611TIP3    H171248   0.306   1.379  14.345  1.2145 -1.2656  1.2559
16611TIP3    H271249   0.442   1.439  14.317 -0.2371  1.0469 -1.2893
16612TIP3   OH271250   1.671   6.277   5.838 -0.0319  0.5064 -0.5220
16612TIP3    H171251   1.688   6.188   5.866 -0.7288  0.8587  1.1163
16612TIP3    H271252   1.612   6.268   5.763  1.7250 -0.4447 -1.8791
16613TIP3   OH271253   2.103   3.670   2.664  0.0191 -0.5703 -0.1470
16613TIP3    H171254   2.042   3.740   2.641 -0.1337 -0.8373 -0.5504
16613TIP3    H271255   2.092   3.659   2.759  1.4672  1.3158  0.3122
16614TIP3   OH271256   5.026   5.834  17.077 -0.0807  0.2615  0.4827
16614TIP3    H171257   4.977   5.754  17.090 -1.4849  0.8034 -1.1466
16614TIP3    H271258   5.006   5.861  16.987  0.2573  2.4734  1.0039
16615TIP3   OH271259   1.118   3.398   2.488 -0.5787 -0.1252  0.2161
16615TIP3    H171260   1.023   3.387   2.493 -0.6364  0.1886 -0.1053
16615TIP3    H271261   1.146   3.336   2.421 -0.6997  0.5207 -0.4515
16616TIP3   OH271262   3.530   5.805   3.170 -0.5703  0.0889 -0.5091
16616TIP3    H171263   3.467   5.754   3.220  0.9622 -0.1304  1.3227
16616TIP3    H271264   3.553   5.749   3.096 -0.3686 -1.0871  0.4126
16617TIP3   OH271265   0.814   5.823  12.741  0.5908  0.0347 -0.3484
16617TIP3    H171266   0.772   5.742  12.771 -0.2999  1.0660  1.3155
16617TIP3    H271267   0.742   5.878  12.711  1.0920  0.5558 -0.6109
16618TIP3   OH271268   2.466   1.216   2.200  0.5198  0.0442 -0.6517
16618TIP3    H171269   2.489   1.284   2.137  0.0891  0.3136 -0.5166
16618TIP3    H271270   2.485   1.255   2.285  0.1017  0.0602 -0.5657
16619TIP3   OH271271   1.157   0.653  13.189 -0.3795  0.1011  0.0109
16619TIP3    H171272   1.205   0.668  13.271  0.4037  0.6033 -0.5165
16619TIP3    H271273   1.109   0.572  13.203  0.8439 -0.5709  0.4781
16620TIP3   OH271274   6.618   2.721   6.021 -0.1959 -0.2002 -0.1316
16620TIP3    H171275   6.709   2.741   6.042  0.7611 -1.5072 -2.5999
16620TIP3    H271276   6.599   2.640   6.069 -0.1551  0.1984  0.5685
16621TIP3   OH271277   0.828   0.634  13.066 -0.5216  0.0503 -0.0125
16621TIP3    H171278   0.840   0.708  13.125 -0.4616  0.7040 -0.8272
16621TIP3    H271279   0.743   0.650  13.024  0.1487  0.4384 -1.2608
16622TIP3   OH271280   2.273   4.720  14.269 -0.2067  0.0618 -0.1655
16622TIP3    H171281   2.361   4.717  14.306 -0.4778  1.1291  0.6298
16622TIP3    H271282   2.252   4.629  14.247  0.6975 -0.3378  0.5768
16623TIP3   OH271283   1.096   0.498   3.479 -0.4170  0.1081 -0.0409
16623TIP3    H171284   1.171   0.549   3.451  0.2976 -0.3493  0.9794
16623TIP3    H271285   1.080   0.437   3.407 -0.2057  0.6135 -0.5254
16624TIP3   OH271286   1.089   4.747   0.876 -0.2732 -0.2244 -0.4324
16624TIP3    H171287   1.141   4.812   0.830  0.8772  0.1190  1.2430
16624TIP3    H271288   1.000   4.783   0.876 -0.1083  0.2069 -1.5147
16625TIP3   OH271289   2.283   3.982  13.335 -0.0674 -0.0277 -0.1515
16625TIP3    H171290   2.218   4.020  13.275 -0.0184 -2.1477 -1.6673
16625TIP3    H271291   2.329   4.057  13.372 -1.1871  1.4180 -1.5645
16626TIP3   OH271292   3.145   5.255  13.745 -0.1732  0.5709 -0.3746
16626TIP3    H171293   3.145   5.200  13.824 -0.4859 -0.5240 -1.1222
16626TIP3    H271294   3.224   5.228  13.697 -2.0183 -1.7010 -2.3810
16627TIP3   OH271295   3.867   5.742  17.397 -0.6255  0.1661 -0.0599
16627TIP3    H171296   3.924   5.778  17.329 -0.4365  0.9332  0.4937
16627TIP3    H271297   3.780   5.775  17.376 -0.4540  0.9497  0.4408
16628TIP3   OH271298   1.836   5.612  16.949  0.2950 -0.7444 -0.5452
16628TIP3    H171299   1.928   5.588  16.955  0.4554 -0.0430 -0.1035
16628TIP3    H271300   1.836   5.708  16.946 -0.5292 -0.6197  1.7736
16629TIP3   OH271301   6.299   0.162  13.551 -0.9046 -0.1673 -0.1087
16629TIP3    H171302   6.208   0.170  13.578 -1.1574  1.7125 -1.3286
16629TIP3    H271303   6.314   0.238  13.495  1.1093 -1.0131 -0.8057
16630TIP3   OH271304   0.170   3.165   4.766  0.3240 -0.0471  0.2954
16630TIP3    H171305   0.200   3.129   4.849  0.4668  1.3271  0.8586
16630TIP3    H271306   0.077   3.182   4.779  0.1462 -0.6605 -0.1361
16631TIP3   OH271307   2.310   5.276   5.586  0.1105 -0.0683  0.2497
16631TIP3    H171308   2.372   5.267   5.514  1.1945 -0.2424  1.1757
16631TIP3    H271309   2.320   5.367   5.615 -0.6049  0.1152 -0.0531
16632TIP3   OH271310   4.114   0.143  14.069 -0.7345 -0.5444  0.3704
16632TIP3    H171311   4.142   0.234  14.057 -0.8996 -0.4253  0.8393
16632TIP3    H271312   4.086   0.115  13.982  0.9248 -0.7089 -0.1471
16633TIP3   OH271313   5.975   6.059  14.596  0.5683  0.4396 -0.0097
16633TIP3    H171314   6.005   5.975  14.561 -0.4607  0.6486 -1.5307
16633TIP3    H271315   5.880   6.048  14.605  0.6256  0.9140  1.3610
16634TIP3   OH271316   1.943   4.408  11.566 -0.8705  0.3498 -0.0679
16634TIP3    H171317   1.905   4.418  11.653 -0.4959  1.2915  0.0012
16634TIP3    H271318   1.966   4.315  11.561 -0.6989  0.3222  0.9204
16635TIP3   OH271319   2.003   5.876  15.887  0.4459 -0.1235 -0.2676
16635TIP3    H171320   2.004   5.965  15.852 -0.7612 -0.7210 -1.9284
16635TIP3    H271321   2.073   5.831  15.841 -0.6809 -0.7206 -1.4623
16636TIP3   OH271322   2.240   5.886   3.598  0.2633  0.3412 -0.0717
16636TIP3    H171323   2.226   5.962   3.654 -0.1851 -0.4243  0.8924
16636TIP3    H271324   2.328   5.899   3.561 -0.2964  1.9202 -0.9255
16637TIP3   OH271325   0.238   2.942   0.711  0.5290 -0.0900  0.0423
16637TIP3    H171326   0.310   2.886   0.679  0.7085  1.5023 -2.7305
16637TIP3    H271327   0.165   2.923   0.651 -0.3863  0.4585  0.9592
16638TIP3   OH271328   5.991   4.112  11.849  0.5075  0.6218  0.5549
16638TIP3    H171329   5.912   4.157  11.879  1.1746  0.3890  2.8263
16638TIP3    H271330   5.958   4.036  11.801 -0.6347  1.2853  0.2538
16639TIP3   OH271331   0.140   3.484  14.678 -0.4455 -0.0266  0.1075
16639TIP3    H171332   0.229   3.509  14.655 -0.9623  1.0647 -0.8262
16639TIP3    H271333   0.089   3.503  14.599 -1.1846 -2.5444 -0.1224
16640TIP3   OH271334   5.845   1.275   3.247 -0.0548 -0.1844  0.2404
16640TIP3    H171335   5.924   1.268   3.300  0.2310 -0.3234 -0.2003
16640TIP3    H271336   5.801   1.191   3.259  1.1211 -1.1117 -1.4753
16641TIP3   OH271337   2.587   1.770   1.704  0.3362  0.2689 -0.2054
16641TIP3    H171338   2.549   1.720   1.633  1.5123  0.9905 -1.3829
16641TIP3    H271339   2.576   1.862   1.678 -0.2700  0.5943  1.1079
16642TIP3   OH271340   1.294   0.187   4.261 -0.4981 -0.2725  0.3739
16642TIP3    H171341   1.370   0.242   4.241 -0.4932 -0.3600  0.1484
16642TIP3    H271342   1.323   0.132   4.334 -0.8818  0.8182  1.3964
16643TIP3   OH271343   3.599   3.790   2.845  0.2583 -1.1652  0.5413
16643TIP3    H171344   3.601   3.831   2.932  0.1484  2.9613 -1.1726
16643TIP3    H271345   3.691   3.781   2.820  0.3358 -3.3914  1.3885
16644TIP3   OH271346   4.561   1.989  11.330  0.0232  0.2590  0.0579
16644TIP3    H171347   4.483   1.959  11.378 -1.3618 -1.2964 -2.8541
16644TIP3    H271348   4.527   2.019  11.246  2.4099  1.7665 -0.4718
16645TIP3   OH271349   1.580   1.926  14.176  0.4072 -0.1527 -0.3381
16645TIP3    H171350   1.663   1.965  14.147  0.5352  0.3952  0.7278
16645TIP3    H271351   1.589   1.919  14.271  0.1559 -2.2722 -0.4236
16646TIP3   OH271352   4.360   3.063  13.813 -0.3414 -0.0193  0.0702
16646TIP3    H171353   4.409   3.142  13.791  1.2608 -1.7323 -3.3505
16646TIP3    H271354   4.427   2.998  13.832 -1.4785 -1.3872 -0.4310
16647TIP3   OH271355   5.876   1.153  14.788 -0.8081  0.0587 -0.3275
16647TIP3    H171356   5.888   1.085  14.854 -1.3014 -1.1636 -1.4449
16647TIP3    H271357   5.827   1.222  14.833 -3.0939 -1.6939  0.0333
16648TIP3   OH271358   4.028   1.007  15.932 -0.0822  0.4717 -0.2001
16648TIP3    H171359   4.119   1.033  15.916 -0.0865  1.6341  1.4646
16648TIP3    H271360   4.027   0.912  15.918  1.0659  0.6124 -1.5267
16649TIP3   OH271361   5.401   4.527  12.929 -0.0483  0.2277 -0.0833
16649TIP3    H171362   5.405   4.573  12.845  0.3008 -1.0631 -0.7946
16649TIP3    H271363   5.488   4.540  12.968 -0.0927  0.5239 -0.0835
16650TIP3   OH271364   0.579   3.489   2.779 -0.7688  0.9526  0.3680
16650TIP3    H171365   0.586   3.519   2.870 -2.7043  2.7123  0.0332
16650TIP3    H271366   0.485   3.479   2.765 -0.5335  1.0705 -1.5366
16651TIP3   OH271367   2.937   3.512  12.667 -0.2782 -0.4314  0.0288
16651TIP3    H171368   3.027   3.541  12.653 -0.5670  0.1090 -0.7291
16651TIP3    H271369   2.946   3.425  12.707  0.6318 -2.0863 -3.3884
16652TIP3   OH271370   5.439   4.909  16.790  0.5317  0.1116 -0.7876
16652TIP3    H171371   5.447   4.926  16.884  2.8014 -0.9804 -0.7201
16652TIP3    H271372   5.380   4.978  16.759  0.3887  1.0192  1.2720
16653TIP3   OH271373   3.346   1.867   3.925 -0.0520 -0.5559 -0.3552
16653TIP3    H171374   3.429   1.847   3.880 -0.1349 -1.4806 -0.1267
16653TIP3    H271375   3.341   1.962   3.925  0.3689 -0.5136 -1.5479
16654TIP3   OH271376   4.271   6.232   4.690 -0.3497  0.4082 -0.0804
16654TIP3    H171377   4.308   6.169   4.627 -0.6883 -1.2463  1.3155
16654TIP3    H271378   4.345   6.256   4.746 -0.6830 -0.5593  0.8127
16655TIP3   OH271379   6.611   0.795  12.807  0.1653 -0.1798 -0.2329
16655TIP3    H171380   6.526   0.839  12.816 -0.2434 -1.0028  0.0092
16655TIP3    H271381   6.617   0.776  12.713 -0.0939 -0.4598 -0.1951
16656TIP3   OH271382   3.827   3.341   5.164  0.4644 -0.1203 -0.1380
16656TIP3    H171383   3.859   3.262   5.208 -1.0585 -0.4310  0.4716
16656TIP3    H271384   3.760   3.376   5.223  0.2869  0.9683 -0.9545
16657TIP3   OH271385   6.146   5.073   4.860  0.1491  0.0405  0.2747
16657TIP3    H171386   6.053   5.066   4.881 -0.5065  0.2958 -2.2464
16657TIP3    H271387   6.170   4.986   4.827  1.0700 -0.2751  1.6683
16658TIP3   OH271388   4.599   1.124   3.694  0.1398  0.0952  0.5395
16658TIP3    H171389   4.629   1.190   3.756  1.0176 -0.1663  0.4004
16658TIP3    H271390   4.521   1.086   3.734  0.7419 -0.1222  1.5218
16659TIP3   OH271391   0.571   4.655   3.888 -0.7042  0.3544 -0.0537
16659TIP3    H171392   0.665   4.648   3.874 -0.7856 -0.8971 -0.0737
16659TIP3    H271393   0.538   4.701   3.810 -0.3667 -1.0565 -1.0608
16660TIP3   OH271394   5.004   1.986   2.305 -0.6338  0.7803 -0.1192
16660TIP3    H171395   4.920   1.941   2.305 -1.0519  1.4549  1.6962
16660TIP3    H271396   4.996   2.054   2.238 -1.6420  0.9910  0.2009
16661TIP3   OH271397   5.688   3.866   1.714 -0.0545  0.4676  0.3242
16661TIP3    H171398   5.688   3.833   1.804 -0.0484 -1.3708 -0.3075
16661TIP3    H271399   5.780   3.885   1.695 -0.2367  2.4882  1.2203
16662TIP3   OH271400   2.735   4.615  16.665 -0.4097 -0.3479 -0.3545
16662TIP3    H171401   2.720   4.541  16.724  2.1925 -1.1497 -0.5427
16662TIP3    H271402   2.783   4.679  16.719 -2.5563  1.2393 -0.2156
16663TIP3   OH271403   0.858   3.996  12.483 -0.1351  0.3404 -0.1546
16663TIP3    H171404   0.944   3.956  12.469 -0.0016  0.8619 -0.8564
16663TIP3    H271405   0.808   3.928  12.529  0.6234  0.0026  0.1959
16664TIP3   OH271406   6.152   6.353  14.902 -0.2756  0.2651  0.6146
16664TIP3    H171407   6.193   6.337  14.816  1.0633  2.2364  0.8195
16664TIP3    H271408   6.146   6.448  14.908 -1.7613  0.1204  2.0988
16665TIP3   OH271409   3.808   1.940   0.010 -0.8668 -0.1525  0.2094
16665TIP3    H171410   3.788   1.853   0.045  0.7011 -0.3382  0.7117
16665TIP3    H271411   3.861   1.923  -0.068 -0.7143  0.3429  0.2049
16666TIP3   OH271412   1.838   5.772  14.207 -0.0854  0.0396 -0.0833
16666TIP3    H171413   1.826   5.684  14.245  2.2135 -0.5905 -0.6088
16666TIP3    H271414   1.875   5.823  14.279  0.5412 -0.0391 -0.3402
16667TIP3   OH271415   5.677   6.662  10.917  0.2681 -0.3172 -1.0453
16667TIP3    H171416   5.598   6.607  10.910  1.9351 -3.0073 -0.0244
16667TIP3    H271417   5.669   6.723  10.843 -3.2708  0.3305 -0.3560
16668TIP3   OH271418   1.470   5.188   0.562 -0.3692  0.6458 -0.5645
16668TIP3    H171419   1.416   5.237   0.500 -0.7025  1.4338  0.3223
16668TIP3    H271420   1.409   5.164   0.632  0.1692  0.4832 -0.1488
16669TIP3   OH271421   4.572   5.602   0.017 -0.8269 -0.0388 -0.1195
16669TIP3    H171422   4.481   5.623  -0.004 -0.3055  1.5644 -0.9909
16669TIP3    H271423   4.622   5.676  -0.017  0.5257  0.8734  3.3638
16670TIP3   OH271424   6.494   4.221   0.941  0.2954  0.7980  0.0281
16670TIP3    H171425   6.446   4.219   1.024  1.5119 -1.2833  0.7601
16670TIP3    H271426   6.498   4.130   0.914  0.0949  1.4238 -2.2608
16671TIP3   OH271427   3.859   0.338   1.178  0.1578  0.1271  0.0781
16671TIP3    H171428   3.940   0.289   1.165  0.3766  0.7518 -1.0076
16671TIP3    H271429   3.887   0.422   1.215  0.3293  1.4088 -2.7466
16672TIP3   OH271430   5.402   0.144  12.933 -0.0195  0.3009 -0.2939
16672TIP3    H171431   5.483   0.160  12.884 -0.0076 -0.6073 -0.6011
16672TIP3    H271432   5.418   0.184  13.019  0.9556 -0.2697 -0.1819
16673TIP3   OH271433   5.187   1.314  14.551  0.5153 -0.1930  0.5478
16673TIP3    H171434   5.220   1.372  14.620  0.6229 -0.2546  0.5499
16673TIP3    H271435   5.168   1.372  14.477  0.5586 -0.1462  0.5725
16674TIP3   OH271436   2.020   3.377   2.364  0.0671  0.4434  0.4732
16674TIP3    H171437   2.020   3.287   2.329  0.6527  1.5706 -2.8140
16674TIP3    H271438   2.108   3.389   2.400 -0.6608 -0.8775  2.8903
16675TIP3   OH271439   0.976   0.262  11.978 -0.1081 -0.2624  0.3376
16675TIP3    H171440   0.896   0.228  12.016 -0.4665 -0.2084 -0.3594
16675TIP3    H271441   0.997   0.339  12.031 -0.3590 -0.4329  0.6888
16676TIP3   OH271442   4.928   0.373   0.422  0.1464  0.6185 -0.0031
16676TIP3    H171443   4.882   0.296   0.389  0.8355  0.7694 -1.3976
16676TIP3    H271444   4.983   0.339   0.493 -1.4051  0.2926  1.1090
16677TIP3   OH271445   0.694   1.814   5.821 -0.1614 -0.2590  0.0120
16677TIP3    H171446   0.624   1.829   5.885 -0.2283  0.2160 -0.1725
16677TIP3    H271447   0.660   1.851   5.740  0.7474  0.9506  0.1610
16678TIP3   OH271448   2.654   1.613   3.814  0.0382  0.7426  0.4295
16678TIP3    H171449   2.684   1.581   3.729 -0.8153  1.7050 -0.2556
16678TIP3    H271450   2.726   1.667   3.846  0.0655  0.9924 -0.0399
16679TIP3   OH271451   0.424   1.161   4.731  0.1279  0.3408 -0.0900
16679TIP3    H171452   0.460   1.114   4.656  0.4089 -1.2950  1.0211
16679TIP3    H271453   0.362   1.099   4.770 -1.6674  1.9667 -0.2026
16680TIP3   OH271454   4.898   2.976   5.754  0.7605  0.7741  0.9244
16680TIP3    H171455   4.984   2.943   5.779 -0.8637 -2.6505  2.5728
16680TIP3    H271456   4.871   3.030   5.828  1.2040  1.3506  0.6754
16681TIP3   OH271457   0.121   6.315  12.134 -0.1417 -0.0777 -0.6899
16681TIP3    H171458   0.123   6.401  12.176  1.5140  0.0391 -0.9602
16681TIP3    H271459   0.129   6.333  12.040 -1.9472 -0.4461 -0.9630
16682TIP3   OH271460   0.260   1.132  16.716  0.5368  0.3581 -0.1118
16682TIP3    H171461   0.284   1.040  16.723  0.5127  0.2345 -1.4203
16682TIP3    H271462   0.335   1.173  16.671  0.7224  1.0619  0.8011
16683TIP3   OH271463   3.762   3.725  17.050 -0.0504 -0.6446 -0.6542
16683TIP3    H171464   3.726   3.685  16.971 -0.8430  0.0486 -0.6653
16683TIP3    H271465   3.837   3.776  17.019 -0.6513  0.0230 -1.0502
16684TIP3   OH271466   4.010   0.049   0.026 -0.1877  0.0355  0.0771
16684TIP3    H171467   4.074   0.079  -0.040  0.6442 -1.3561  0.2019
16684TIP3    H271468   4.004   0.122   0.088 -0.3497  1.0439 -1.0653
16685TIP3   OH271469   4.970   5.786   4.697  0.1825 -0.2129  0.3186
16685TIP3    H171470   4.906   5.789   4.768  0.9468  1.7681  0.9852
16685TIP3    H271471   4.943   5.856   4.638  2.0877  1.1492  0.9716
16686TIP3   OH271472   5.307   1.820   2.841 -0.6402  0.0294 -0.0384
16686TIP3    H171473   5.309   1.730   2.875  1.1907 -0.5615 -1.5608
16686TIP3    H271474   5.388   1.859   2.872  0.4676 -0.1356 -2.5494
16687TIP3   OH271475   0.587   3.343   5.155  0.1437 -0.2307  0.1466
16687TIP3    H171476   0.516   3.401   5.182 -1.0771 -2.2217  1.4616
16687TIP3    H271477   0.576   3.264   5.209  3.1546 -0.7777  0.1519
16688TIP3   OH271478   1.866   0.226   6.430  0.4775 -0.4824 -0.6061
16688TIP3    H171479   1.807   0.290   6.390  1.4594  0.2224 -0.9515
16688TIP3    H271480   1.818   0.143   6.424 -0.4695  0.0675 -0.8874
16689TIP3   OH271481   6.425   0.462   6.207  0.5453  0.3285  0.1041
16689TIP3    H171482   6.405   0.496   6.295  1.6590  0.6804  0.2316
16689TIP3    H271483   6.419   0.367   6.217  1.1329  0.3460  0.6789
16690TIP3   OH271484   0.906   3.653  17.287 -0.0214 -0.3010  0.0805
16690TIP3    H171485   0.968   3.701  17.232  0.3004 -0.4028  0.3602
16690TIP3    H271486   0.858   3.598  17.225  0.4999 -0.5858 -0.0745
16691TIP3   OH271487   6.207   5.568   1.537  0.5042  0.4144 -0.1054
16691TIP3    H171488   6.192   5.632   1.468  0.4251 -0.8513 -1.3162
16691TIP3    H271489   6.272   5.609   1.594  0.8874  1.3280 -1.1660
16692TIP3   OH271490   2.322   4.637  15.840 -0.0231 -0.3279 -0.7326
16692TIP3    H171491   2.373   4.693  15.782  0.1125 -0.1493 -0.4431
16692TIP3    H271492   2.331   4.549  15.802  1.5989 -0.5381  0.0355
16693TIP3   OH271493   2.712   1.855   2.480 -0.1214 -0.2474  0.2378
16693TIP3    H171494   2.717   1.765   2.449  1.6627 -0.7699  1.8432
16693TIP3    H271495   2.690   1.906   2.402  3.0832 -1.5667 -1.7315
16694TIP3   OH271496   5.366   2.956  15.901  0.5026  0.1838 -0.0903
16694TIP3    H171497   5.421   2.936  15.976 -0.5666 -2.6807  0.0470
16694TIP3    H271498   5.291   2.897  15.909  0.1053  0.0816 -3.1583
16695TIP3   OH271499   6.104   0.975   5.930  0.0456  0.2446  0.0571
16695TIP3    H171500   6.190   0.938   5.945 -0.1694 -0.5346 -0.5704
16695TIP3    H271501   6.109   1.011   5.841  0.1371  1.4142  0.5192
16696TIP3   OH271502   3.621   5.938  12.779 -0.3821 -0.0474 -0.0529
16696TIP3    H171503   3.703   5.929  12.827 -0.2583 -1.0884 -0.4303
16696TIP3    H271504   3.615   5.858  12.726 -1.4661  0.1756 -0.2975
16697TIP3   OH271505   1.084   1.264  11.586  0.2907  1.0118  0.4934
16697TIP3    H171506   0.988   1.264  11.587  0.2812  0.3564  1.3319
16697TIP3    H271507   1.109   1.355  11.601 -0.2128  0.9850  1.5432
16698TIP3   OH271508   4.180   4.348  16.806  0.0276 -0.3600  0.4879
16698TIP3    H171509   4.132   4.301  16.738  0.6977  0.3691 -0.5092
16698TIP3    H271510   4.271   4.347  16.777  0.3187  0.0222  1.3412
16699TIP3   OH271511   5.334   4.532   4.947 -0.0918  0.1733 -0.2636
16699TIP3    H171512   5.345   4.557   5.039  1.3793  1.8110 -0.8126
16699TIP3    H271513   5.239   4.526   4.935 -0.3462  0.8124  1.1460
16700TIP3   OH271514   4.243   6.118  16.223 -0.0070  0.1264 -0.5645
16700TIP3    H171515   4.251   6.101  16.129 -0.5553  1.6442 -0.9202
16700TIP3    H271516   4.151   6.139  16.236 -0.1675 -1.1437  0.5291
16701TIP3   OH271517   2.765   3.196   4.180  0.1777 -0.6186 -0.5766
16701TIP3    H171518   2.774   3.285   4.214  0.6860 -1.0799  0.5368
16701TIP3    H271519   2.672   3.175   4.193  0.2426 -0.5703 -0.0084
16702TIP3   OH271520   2.944   5.200   3.670  0.0489  0.4828  0.0921
16702TIP3    H171521   2.953   5.277   3.725 -0.5138  2.3195 -2.2028
16702TIP3    H271522   3.020   5.205   3.610  0.6257 -1.3986  0.5916
16703TIP3   OH271523   0.819   0.787  16.155  0.0133  0.2208  0.2632
16703TIP3    H171524   0.778   0.733  16.087  1.0903  0.6657 -0.7857
16703TIP3    H271525   0.767   0.867  16.155  0.5119  0.5597 -0.6591
16704TIP3   OH271526   0.163   2.722  12.117  0.2132  0.3510  0.3372
16704TIP3    H171527   0.215   2.758  12.044  1.0392  0.9493  1.1857
16704TIP3    H271528   0.072   2.730  12.088  0.5687 -2.1155 -1.8335
16705TIP3   OH271529   0.231   4.815  11.477  0.4159 -0.4934 -0.1710
16705TIP3    H171530   0.309   4.811  11.533 -0.0970 -2.4318  0.4773
16705TIP3    H271531   0.160   4.839  11.536 -0.0374 -2.0463 -0.0381
16706TIP3   OH271532   1.055   6.669  14.345 -0.1499  0.0630 -0.3576
16706TIP3    H171533   0.991   6.738  14.365 -0.4791  0.2282 -1.8506
16706TIP3    H271534   1.138   6.716  14.340  0.1005 -0.1177  1.3689
16707TIP3   OH271535   1.733   4.683  14.552 -0.3608 -0.0198  0.4003
16707TIP3    H171536   1.738   4.591  14.525  0.2026  0.5256 -1.5285
16707TIP3    H271537   1.815   4.722  14.521 -1.1525  1.4106  0.0117
16708TIP3   OH271538   6.496   5.580   1.054  0.1494 -0.1462 -0.4841
16708TIP3    H171539   6.580   5.573   1.099  0.5008 -1.5769 -1.2945
16708TIP3    H271540   6.474   5.673   1.058  1.0492  0.0279  1.0073
16709TIP3   OH271541   0.817   5.853  16.925 -0.1236 -0.4669  0.3571
16709TIP3    H171542   0.811   5.874  16.832 -1.0002 -0.6277  0.3614
16709TIP3    H271543   0.904   5.817  16.936  0.2325  0.1701 -0.2709
16710TIP3   OH271544   1.477   5.744  13.273 -0.1294 -0.0802 -0.1479
16710TIP3    H171545   1.534   5.789  13.335 -2.1646  2.0032  0.3631
16710TIP3    H271546   1.489   5.792  13.190  0.4433 -1.0201 -0.6231
16711TIP3   OH271547   0.615   0.611  11.414 -0.6081 -0.2811  0.1963
16711TIP3    H171548   0.570   0.542  11.367 -1.5391 -1.8379  3.1211
16711TIP3    H271549   0.548   0.677  11.430 -0.5671 -0.2472  0.2281
16712TIP3   OH271550   1.781   6.048  12.509  0.2203  0.2590  0.6552
16712TIP3    H171551   1.837   5.970  12.517 -1.7550 -1.2622  0.2513
16712TIP3    H271552   1.818   6.097  12.435 -0.5406 -2.1036 -1.3929
16713TIP3   OH271553   0.770   2.709  17.127 -0.2182  0.1970  0.3084
16713TIP3    H171554   0.827   2.725  17.051  0.5829  0.3915  0.9363
16713TIP3    H271555   0.725   2.791  17.142 -0.1330  0.2573  0.2348
16714TIP3   OH271556   3.869   6.595   4.259 -0.0893  0.1114 -0.6356
16714TIP3    H171557   3.781   6.625   4.238 -0.3235  0.5120  0.7926
16714TIP3    H271558   3.927   6.665   4.228 -0.5319  1.4247  1.3259
16715TIP3   OH271559   2.843   3.881  14.768 -0.4109 -0.5489 -0.2624
16715TIP3    H171560   2.889   3.824  14.830  0.1109  0.4051  0.2564
16715TIP3    H271561   2.750   3.863  14.783 -0.2614 -1.0748  0.0662
16716TIP3   OH271562   0.647   6.586   3.703  0.6065 -1.1512  0.6192
16716TIP3    H171563   0.574   6.632   3.660  1.3038 -3.4431 -3.6609
16716TIP3    H271564   0.718   6.650   3.706 -0.4973  0.0781  1.5464
16717TIP3   OH271565   5.572   5.976  10.826 -0.1158  0.7087 -0.4494
16717TIP3    H171566   5.622   5.898  10.851 -2.3051 -0.9899 -1.0265
16717TIP3    H271567   5.528   5.951  10.744 -2.8286  1.5801  0.6271
16718TIP3   OH271568   6.327   3.460   1.813  0.2959  0.0514  0.5265
16718TIP3    H171569   6.296   3.394   1.875 -1.7353 -0.0214 -0.4667
16718TIP3    H271570   6.398   3.505   1.858 -0.7466 -0.3707  2.6912
16719TIP3   OH271571   4.292   6.301   1.984  0.0996 -0.2547  0.1345
16719TIP3    H171572   4.261   6.391   1.972 -0.3511 -0.5707 -1.3564
16719TIP3    H271573   4.353   6.287   1.912  1.9421 -0.4340  1.6652
16720TIP3   OH271574   5.872   2.339   1.651  0.2214 -0.2126  0.1944
16720TIP3    H171575   5.884   2.312   1.742 -0.4517 -0.0433  0.3379
16720TIP3    H271576   5.924   2.419   1.643  0.5561 -0.4141  0.3346
16721TIP3   OH271577   6.413   6.509  15.006 -0.4054  0.6545 -0.4194
16721TIP3    H171578   6.508   6.519  14.999 -0.3791  0.1737 -0.8849
16721TIP3    H271579   6.378   6.595  14.984 -0.1012  0.5894 -1.1950
16722TIP3   OH271580   1.777   4.725  16.541  0.1381  0.5652 -0.1244
16722TIP3    H171581   1.717   4.764  16.478 -0.3501 -1.2233 -0.8227
16722TIP3    H271582   1.757   4.631  16.539  2.5875 -0.0283  0.0040
16723TIP3   OH271583   0.497   1.664   0.772  0.1655  0.2665  0.0822
16723TIP3    H171584   0.481   1.574   0.742 -1.5433  1.0134 -1.4461
16723TIP3    H271585   0.551   1.654   0.849  1.6376 -1.9901 -1.1370
16724TIP3   OH271586   2.548   1.324   2.749  0.0380 -0.9039 -0.3408
16724TIP3    H171587   2.485   1.394   2.737  2.6129  1.5478 -0.5185
16724TIP3    H271588   2.551   1.311   2.844 -0.1150 -0.4287 -0.2688
16725TIP3   OH271589   5.985   3.281  15.209  0.6219 -0.5590 -0.2165
16725TIP3    H171590   5.958   3.291  15.118 -1.4395 -0.0054  0.4134
16725TIP3    H271591   5.937   3.349  15.256  1.6046 -0.8737  1.3042
16726TIP3   OH271592   0.196   2.546   1.334 -0.3958  0.0499  0.0337
16726TIP3    H171593   0.241   2.498   1.403  0.5615  0.7105 -0.1119
16726TIP3    H271594   0.149   2.479   1.284 -0.9874 -0.4550  1.2219
16727TIP3   OH271595   2.114   5.646   2.244  0.1594 -0.1314  0.1544
16727TIP3    H171596   2.096   5.705   2.318 -0.3642  2.4401 -1.8758
16727TIP3    H271597   2.183   5.689   2.194  0.7666 -1.9794 -0.7048
16728TIP3   OH271598   2.344   2.654  16.726 -0.2156  0.3886  0.6375
16728TIP3    H171599   2.430   2.675  16.690 -1.9592  1.9243 -3.3137
16728TIP3    H271600   2.331   2.561  16.705 -0.6521  0.9292 -1.8567
16729TIP3   OH271601   0.573   0.454  14.768  1.1552 -0.1109 -0.0112
16729TIP3    H171602   0.607   0.370  14.737  1.0047 -0.4018  0.5856
16729TIP3    H271603   0.626   0.474  14.845  1.6029  0.6589 -0.5030
16730TIP3   OH271604   5.033   0.161   5.266 -0.3403 -0.1021 -0.4241
16730TIP3    H171605   5.053   0.137   5.356 -1.8940  2.1441  0.6018
16730TIP3    H271606   4.940   0.143   5.256 -0.4252  0.6990 -1.2038
16731TIP3   OH271607   4.010   1.378   2.984 -0.3511 -0.2341 -0.6664
16731TIP3    H171608   3.949   1.305   2.971 -0.6658 -0.2896  0.9528
16731TIP3    H271609   3.955   1.456   2.987 -0.1323 -0.0528 -1.1195
16732TIP3   OH271610   5.241   0.143  13.684 -0.0456 -0.2346  0.4431
16732TIP3    H171611   5.293   0.220  13.660  2.6432 -1.9054  0.5579
16732TIP3    H271612   5.234   0.147  13.779  2.2686 -1.3478  0.7166
16733TIP3   OH271613   4.451   0.218  11.566  0.3616  0.6159  0.1832
16733TIP3    H171614   4.545   0.218  11.581  0.3857  2.4255  0.2662
16733TIP3    H271615   4.442   0.232  11.472  0.1896  1.2390  0.2866
16734TIP3   OH271616   6.687   0.236  12.747 -0.1028  0.1247 -0.3115
16734TIP3    H171617   6.614   0.298  12.751  0.2049  0.5905 -1.5123
16734TIP3    H271618   6.763   0.291  12.727  0.8804 -0.1456  2.2617
16735TIP3   OH271619   0.253   6.612   4.597  0.3574  0.1124  0.4685
16735TIP3    H171620   0.187   6.585   4.661 -1.8929 -0.9121 -2.0711
16735TIP3    H271621   0.230   6.703   4.576 -0.8553 -0.4813 -0.9793
16736TIP3   OH271622   3.217   1.325   1.376  0.6537 -0.0623 -0.0463
16736TIP3    H171623   3.275   1.250   1.387  1.7679  0.6541 -0.8432
16736TIP3    H271624   3.232   1.379   1.454 -0.1751 -0.6484  0.5454
16737TIP3   OH271625   2.795   2.228  12.318  0.2913  0.1661 -1.1502
16737TIP3    H171626   2.746   2.309  12.336  1.3549  0.4367  0.8221
16737TIP3    H271627   2.863   2.226  12.386  0.1571 -2.5032 -1.0009
16738TIP3   OH271628   0.268   6.205  17.319  0.0182 -0.1746  0.0009
16738TIP3    H171629   0.280   6.299  17.333  1.9197 -0.5463  1.2239
16738TIP3    H271630   0.189   6.199  17.265  0.5095  2.1890 -1.1177
16739TIP3   OH271631   3.030   5.133   4.241  0.0381  0.6485 -0.2950
16739TIP3    H171632   3.067   5.046   4.253  0.0498  0.8789  1.7613
16739TIP3    H271633   3.092   5.178   4.184  1.8240  0.3242  1.2804
16740TIP3   OH271634   5.262   1.424  16.419 -0.3743  0.2266  0.1285
16740TIP3    H171635   5.349   1.411  16.382 -1.3271  1.8157 -3.1146
16740TIP3    H271636   5.270   1.504  16.471 -0.3145  2.0060 -2.3907
16741TIP3   OH271637   4.533   0.238  15.952 -0.3778  0.1514  0.8212
16741TIP3    H171638   4.500   0.326  15.937 -1.4735 -0.4166 -0.2535
16741TIP3    H271639   4.464   0.194  16.003 -0.0740 -0.2475  0.8962
16742TIP3   OH271640   0.868   3.335   4.738 -0.0500 -0.8447  0.4310
16742TIP3    H171641   0.817   3.295   4.667  0.9950  0.6077 -1.2373
16742TIP3    H271642   0.954   3.294   4.730  1.0183  1.5034 -1.2625
16743TIP3   OH271643   2.818   4.622   4.167  0.3757  0.3052  0.2352
16743TIP3    H171644   2.723   4.620   4.175  0.3571  0.9918  0.1885
16743TIP3    H271645   2.842   4.532   4.146 -0.3182  0.2602 -0.3830
16744TIP3   OH271646   1.406   6.067   2.213 -0.1068  0.0599  0.7822
16744TIP3    H171647   1.403   6.143   2.155 -0.0303 -0.6864 -0.2437
16744TIP3    H271648   1.343   6.086   2.282 -0.3719  0.8857  0.3190
16745TIP3   OH271649   3.948   2.354   3.910  0.3580 -0.3701  0.4469
16745TIP3    H171650   3.888   2.412   3.863 -1.3363 -0.7277  2.0635
16745TIP3    H271651   3.948   2.273   3.859 -1.0948 -0.6011  0.7743
16746TIP3   OH271652   3.734   1.918   1.511  0.0912  0.4028 -0.1093
16746TIP3    H171653   3.644   1.887   1.517  0.1513  0.1933 -0.2597
16746TIP3    H271654   3.734   2.001   1.558 -0.2468  0.5454 -0.3596
16747TIP3   OH271655   6.556   1.704   6.043 -0.3982 -0.4817 -0.4741
16747TIP3    H171656   6.598   1.621   6.067  0.5340 -0.7556 -2.7716
16747TIP3    H271657   6.626   1.769   6.051 -1.6795  0.6575  3.6124
16748TIP3   OH271658   3.978   5.381  16.032  0.6720  0.1646 -0.9175
16748TIP3    H171659   3.969   5.418  16.120  0.6075 -2.1022  0.0854
16748TIP3    H271660   3.890   5.387  15.994  0.6769  1.0624 -0.8059
16749TIP3   OH271661   2.938   5.310   0.159  0.4165  0.0336 -0.0832
16749TIP3    H171662   2.925   5.392   0.112 -1.1522  0.2908  0.7158
16749TIP3    H271663   2.920   5.242   0.094 -1.5894  0.3813  0.0487
16750TIP3   OH271664   3.132   0.303  14.247 -0.0667  0.8603 -0.1724
16750TIP3    H171665   3.223   0.324  14.268  0.0851  1.6670 -1.5154
16750TIP3    H271666   3.138   0.221  14.197 -0.2629 -0.0331  1.2017
16751TIP3   OH271667   6.119   4.103   0.252 -0.5882 -0.2159  0.1064
16751TIP3    H171668   6.198   4.055   0.228 -1.1346 -0.7818 -0.6104
16751TIP3    H271669   6.064   4.100   0.174 -2.5639 -2.3759  1.4384
16752TIP3   OH271670   3.351   3.305   1.602 -0.6458  0.0062 -0.0943
16752TIP3    H171671   3.434   3.261   1.587 -1.1653 -0.8362 -0.5704
16752TIP3    H271672   3.364   3.355   1.683  0.5473  0.4704 -0.5474
16753TIP3   OH271673   0.545   1.013  11.645  0.3840  0.5613 -0.0555
16753TIP3    H171674   0.535   1.087  11.585  1.9962 -1.1470 -2.6451
16753TIP3    H271675   0.635   1.019  11.676  0.3840 -0.0235  0.0760
16754TIP3   OH271676   4.108   2.090  16.634  0.5295 -0.2858 -0.1389
16754TIP3    H171677   4.041   2.152  16.608  2.5265  0.9958 -2.7291
16754TIP3    H271678   4.182   2.145  16.662  1.4182 -1.5519  0.0857
16755TIP3   OH271679   0.106   5.854   0.824  0.6405 -0.3286 -0.0057
16755TIP3    H171680   0.154   5.894   0.897 -0.1614  0.2607  0.2048
16755TIP3    H271681   0.143   5.765   0.817 -0.4296 -1.0262  2.2405
16756TIP3   OH271682   1.333   3.452   0.809  0.1881 -0.1294 -0.0597
16756TIP3    H171683   1.247   3.412   0.797 -0.0396  0.6925 -1.4261
16756TIP3    H271684   1.390   3.404   0.750  0.6387 -0.5124  0.6683
16757TIP3   OH271685   1.362   5.308   5.526  0.2159  0.3566  0.1980
16757TIP3    H171686   1.299   5.238   5.539  1.0039 -0.4786 -0.4116
16757TIP3    H271687   1.448   5.266   5.535  0.7038  1.1900 -0.4161
16758TIP3   OH271688   0.267   0.468   1.710 -0.4492  0.5381  0.4006
16758TIP3    H171689   0.280   0.527   1.636  1.2602 -2.5086 -1.9554
16758TIP3    H271690   0.201   0.405   1.680 -0.8154  0.0596  2.0643
16759TIP3   OH271691   5.686   4.666   3.244 -0.2769  0.1013  0.3724
16759TIP3    H171692   5.759   4.653   3.183 -0.5815 -0.4456  0.1288
16759TIP3    H271693   5.648   4.749   3.217 -0.1300  0.0849  0.1048
16760TIP3   OH271694   0.080   1.017   5.946 -0.5257 -0.3408 -0.2232
16760TIP3    H171695   0.091   1.059   5.861  0.5278 -0.0548  0.0350
16760TIP3    H271696   0.043   1.086   6.002 -0.8268 -0.4055 -0.3409
16761TIP3   OH271697   4.046   3.681  15.685 -0.0430 -0.4028 -0.2852
16761TIP3    H171698   4.044   3.586  15.693 -2.7980 -0.4040 -0.2335
16761TIP3    H271699   4.123   3.707  15.735 -0.0039 -2.5000  0.8497
16762TIP3   OH271700   2.983   0.846  17.162  0.1297  0.1684 -0.1151
16762TIP3    H171701   3.066   0.816  17.125  0.8763  0.8349  0.9235
16762TIP3    H271702   2.917   0.786  17.128  0.9830 -0.1278 -1.2878
16763TIP3   OH271703   0.367   0.905   3.520 -0.0541  0.0299  0.1798
16763TIP3    H171704   0.307   0.929   3.591 -0.2572 -0.2927  0.1146
16763TIP3    H271705   0.435   0.972   3.524 -0.0604  0.0114  0.6864
16764TIP3   OH271706   4.721   0.657  11.977  0.5713 -0.1166  0.2505
16764TIP3    H171707   4.791   0.605  11.937 -0.9565 -0.5331 -2.0429
16764TIP3    H271708   4.663   0.593  12.017  0.9275  0.1664  1.2617
16765TIP3   OH271709   3.550   5.493  13.857 -0.2384 -0.3391 -0.2828
16765TIP3    H171710   3.474   5.493  13.916  0.6564 -0.1198  0.9051
16765TIP3    H271711   3.571   5.585  13.845  0.0485 -0.4099 -0.3299
16766TIP3   OH271712   2.237   2.482  16.475 -0.3033 -0.6682 -0.2753
16766TIP3    H171713   2.291   2.558  16.450 -0.9991 -1.0825 -3.3929
16766TIP3    H271714   2.150   2.518  16.488 -0.5297 -0.8389 -1.2694
16767TIP3   OH271715   4.960   4.044  12.038 -0.1115 -0.0766 -0.1780
16767TIP3    H171716   5.020   4.001  12.098  1.1749  0.6027 -0.9205
16767TIP3    H271717   4.915   4.109  12.091 -0.0384 -0.4442  0.3424
16768TIP3   OH271718   6.370   2.050   3.342 -0.0637  0.4783 -0.2278
16768TIP3    H171719   6.355   1.982   3.275 -0.2917 -0.4408  0.7363
16768TIP3    H271720   6.342   2.010   3.424  2.2526  0.7562  0.7911
16769TIP3   OH271721   1.659   3.884   5.136 -0.5809 -0.5928 -0.4130
16769TIP3    H171722   1.648   3.979   5.139 -0.9425 -0.6243 -0.6040
16769TIP3    H271723   1.631   3.860   5.047  1.0557 -0.6911 -0.9333
16770TIP3   OH271724   3.920   0.357  17.202 -0.2896 -0.1716 -0.6611
16770TIP3    H171725   3.937   0.451  17.206 -1.9302  0.1258  2.1978
16770TIP3    H271726   3.996   0.317  17.243 -0.4407  0.0864 -0.1173
16771TIP3   OH271727   6.080   4.244   5.955  0.1198 -0.3087  0.0883
16771TIP3    H171728   6.168   4.278   5.940 -0.4094  1.1794  0.1639
16771TIP3    H271729   6.067   4.251   6.050 -0.2893  0.0473  0.0098
16772TIP3   OH271730   1.956   4.378  15.066 -0.3177 -0.1294 -0.1475
16772TIP3    H171731   1.974   4.340  15.152  0.1902  0.2151 -0.0986
16772TIP3    H271732   1.977   4.471  15.076 -0.9235  0.0441 -0.4483
16773TIP3   OH271733   2.213   5.773   3.034  0.2619 -0.1780  0.8407
16773TIP3    H171734   2.136   5.730   2.996 -0.3212 -0.2208  2.0207
16773TIP3    H271735   2.244   5.712   3.101  1.2127 -0.0651  0.5230
16774TIP3   OH271736   1.069   3.241   1.216 -0.1670 -0.0033  0.0524
16774TIP3    H171737   1.110   3.203   1.138 -0.9453  0.1446 -0.4419
16774TIP3    H271738   1.050   3.331   1.191  0.1598  0.2317  0.6433
16775TIP3   OH271739   3.213   4.809   2.187 -0.3595 -0.4148  0.5718
16775TIP3    H171740   3.185   4.870   2.119 -1.5698  0.0003  1.4165
16775TIP3    H271741   3.133   4.787   2.234  0.3620 -1.1970  1.4691
16776TIP3   OH271742   1.530   1.870   0.277 -0.7160 -0.2811  0.1469
16776TIP3    H171743   1.606   1.824   0.242 -0.3392 -0.0070  0.5817
16776TIP3    H271744   1.559   1.961   0.286 -1.9984  0.4757 -2.3939
16777TIP3   OH271745   0.012   4.270   0.973 -0.3277  0.7622 -0.3422
16777TIP3    H171746   0.009   4.341   1.037 -0.7264  0.0203  0.4932
16777TIP3    H271747  -0.080   4.251   0.954 -0.2307  0.4321 -0.5046
16778TIP3   OH271748   2.371   0.662   4.184  0.1052  0.1702  0.3799
16778TIP3    H171749   2.465   0.658   4.203 -0.0289 -1.2793  0.9083
16778TIP3    H271750   2.331   0.686   4.268  0.0513  1.7680 -0.0802
16779TIP3   OH271751   3.091   3.929   2.562 -0.2453 -0.5663 -0.2412
16779TIP3    H171752   3.104   3.969   2.476 -0.1123  0.4553  0.2430
16779TIP3    H271753   3.000   3.948   2.584 -0.1214 -0.3469  0.0841
16780TIP3   OH271754   2.150   5.166   3.816  0.2972 -0.6932 -0.2453
16780TIP3    H171755   2.178   5.214   3.738  1.7574 -0.8947  0.1246
16780TIP3    H271756   2.062   5.199   3.834  0.2722 -0.0321 -1.4812
16781TIP3   OH271757   3.514   0.198   5.224  0.0328  0.5878  0.4682
16781TIP3    H171758   3.520   0.117   5.273 -1.9530  0.4124  0.5075
16781TIP3    H271759   3.458   0.177   5.149 -0.2281  1.8150  0.2876
16782TIP3   OH271760   6.517   6.490   5.814  0.2920  0.1090  0.2491
16782TIP3    H171761   6.591   6.440   5.848 -1.3636 -2.7538 -0.0714
16782TIP3    H271762   6.510   6.463   5.723 -1.1057  0.3310  0.2692
16783TIP3   OH271763   0.970   0.384  13.150 -0.0160 -0.2036  0.0607
16783TIP3    H171764   0.998   0.361  13.062  0.7203  1.0743 -0.0523
16783TIP3    H271765   0.899   0.448  13.137 -1.3756 -1.5754  0.3840
16784TIP3   OH271766   1.599   4.636   0.987 -0.9094  0.3091 -0.3783
16784TIP3    H171767   1.629   4.579   0.916  2.0021  1.7066 -0.4031
16784TIP3    H271768   1.634   4.596   1.067  1.4865  2.1044 -0.4253
16785TIP3   OH271769   2.779   1.055  17.161 -0.4570  0.3527 -0.5134
16785TIP3    H171770   2.705   1.003  17.129 -0.0643 -0.8598  0.4565
16785TIP3    H271771   2.846   0.990  17.182  0.8453  1.4218 -1.2320
16786TIP3   OH271772   4.403   3.133   5.104  0.0525  0.3467  0.2564
16786TIP3    H171773   4.369   3.061   5.050 -1.2714  1.5609 -0.6169
16786TIP3    H271774   4.470   3.174   5.050 -0.0486  0.4922  0.2397
16787TIP3   OH271775   1.260   4.741  12.501 -0.7418 -0.2087 -0.0279
16787TIP3    H171776   1.183   4.689  12.476 -1.6241  0.5625  1.0039
16787TIP3    H271777   1.303   4.690  12.569 -1.1445  0.0108  0.3977
16788TIP3   OH271778   3.622   6.005  12.134  0.6817  0.2222  0.0668
16788TIP3    H171779   3.622   6.101  12.127 -0.3839  0.2890  0.6973
16788TIP3    H271780   3.584   5.975  12.052 -1.5097  0.5005  0.8824
16789TIP3   OH271781   0.676   1.765  14.301  0.1075 -0.2355  0.0689
16789TIP3    H171782   0.645   1.822  14.231 -1.3479  1.0810  1.6932
16789TIP3    H271783   0.714   1.825  14.366  1.0281 -1.3708  0.6273
16790TIP3   OH271784   3.619   2.664   0.403 -0.2141  0.5657  0.3842
16790TIP3    H171785   3.673   2.743   0.395 -1.4875  1.3451 -1.0955
16790TIP3    H271786   3.617   2.627   0.315 -0.1881 -0.7742  0.9199
16791TIP3   OH271787   6.693   5.493   0.870 -0.5407  0.3673  0.8074
16791TIP3    H171788   6.624   5.459   0.927 -1.5750 -0.2546 -0.7276
16791TIP3    H271789   6.660   5.477   0.781  0.0893  3.0781  0.0019
16792TIP3   OH271790   2.900   0.913  14.041  0.2607 -0.0534 -0.8317
16792TIP3    H171791   2.917   0.820  14.024  0.9485 -0.2820  0.9268
16792TIP3    H271792   2.913   0.923  14.135 -3.4279  1.0504 -0.2663
16793TIP3   OH271793   2.302   5.353   3.664  0.1454 -0.4885  0.3205
16793TIP3    H171794   2.335   5.265   3.645  0.2640 -0.6353  1.1638
16793TIP3    H271795   2.306   5.399   3.580  2.7513 -0.4187  0.4113
16794TIP3   OH271796   1.826   5.838   4.199 -0.2353 -0.5607 -0.1645
16794TIP3    H171797   1.910   5.825   4.156  1.5785  1.4533  2.4262
16794TIP3    H271798   1.804   5.752   4.237 -0.4168 -1.5864 -2.4368
16795TIP3   OH271799   1.292   0.744   5.027 -0.1733 -0.0700  0.8562
16795TIP3    H171800   1.296   0.653   5.057  0.8310  0.4972  2.5004
16795TIP3    H271801   1.199   0.766   5.033 -0.7656 -1.5179 -1.3866
16796TIP3   OH271802   6.462   4.965  13.302 -0.1750 -0.2786  0.3298
16796TIP3    H171803   6.479   4.974  13.208 -0.4002 -0.6789  0.2517
16796TIP3    H271804   6.459   4.871  13.317  4.0496 -0.4444  1.4772
16797TIP3   OH271805   5.670   5.607  15.745 -0.1988  0.4893 -0.2628
16797TIP3    H171806   5.637   5.668  15.811  0.4481  0.5605 -0.0035
16797TIP3    H271807   5.641   5.645  15.662  0.6708  1.4506 -0.1416
16798TIP3   OH271808   4.959   1.153   2.332  0.2539  0.6782 -0.1271
16798TIP3    H171809   5.023   1.220   2.354  0.4045  0.4398  0.1669
16798TIP3    H271810   4.983   1.078   2.386  0.8378 -0.0523 -1.3641
16799TIP3   OH271811   1.231   0.681   0.213  0.6904 -0.6084  0.4226
16799TIP3    H171812   1.229   0.690   0.118 -0.4124 -1.5059  0.3452
16799TIP3    H271813   1.223   0.771   0.245 -2.8181 -0.5258 -0.3436
16800TIP3   OH271814   1.591   2.773  12.961  0.2559 -0.2178 -0.7277
16800TIP3    H171815   1.625   2.750  13.048 -0.4452 -2.0407 -0.8733
16800TIP3    H271816   1.663   2.754  12.901  0.1530 -0.7179 -0.7003
16801TIP3   OH271817   0.932   0.004  16.713  0.3740  0.3013  0.4896
16801TIP3    H171818   1.026   0.010  16.732  0.2390  0.9172  1.0143
16801TIP3    H271819   0.927  -0.050  16.634  1.2020  0.6519  0.1825
16802TIP3   OH271820   5.190   1.829   0.537  0.3528  0.6684 -0.4958
16802TIP3    H171821   5.147   1.894   0.593  0.2092 -0.1500  0.3727
16802TIP3    H271822   5.271   1.871   0.509  0.0939  1.3527 -0.2378
16803TIP3   OH271823   2.058   6.269  11.334 -0.4741  0.0466  0.2754
16803TIP3    H171824   1.969   6.275  11.298 -2.3253  0.4739  4.2969
16803TIP3    H271825   2.050   6.205  11.405  3.2589 -2.1200 -0.9994
16804TIP3   OH271826   5.761   6.120   1.899  0.0734  0.2123  0.1615
16804TIP3    H171827   5.841   6.169   1.879 -0.4034  1.1931  0.6072
16804TIP3    H271828   5.690   6.177   1.871 -0.5004 -0.2664  0.6059
16805TIP3   OH271829   0.004   5.275   2.752 -0.2251 -0.6212 -0.5009
16805TIP3    H171830   0.088   5.237   2.778  0.7670  2.3275  1.0646
16805TIP3    H271831   0.000   5.358   2.799 -2.7554  0.6601 -2.7413
16806TIP3   OH271832   3.850   0.440  14.652  0.1469  0.0013 -0.8015
16806TIP3    H171833   3.897   0.358  14.668  1.5852  0.8333 -0.5466
16806TIP3    H271834   3.806   0.460  14.735  0.9444  0.1858 -0.4164
16807TIP3   OH271835   4.089   6.541  15.299  0.4312 -0.1794  0.6857
16807TIP3    H171836   4.026   6.576  15.237  1.6162  1.7047  0.4443
16807TIP3    H271837   4.172   6.541  15.251  1.2053  0.5247  1.9632
16808TIP3   OH271838   2.618   5.461   3.145  0.0134 -0.1256  0.1504
16808TIP3    H171839   2.643   5.514   3.070 -0.1890 -0.7273 -0.3553
16808TIP3    H271840   2.562   5.392   3.108  0.7444 -1.0379  0.6763
16809TIP3   OH271841   0.074   3.925  12.802  0.0886  0.4190  0.2818
16809TIP3    H171842   0.126   3.877  12.738  0.1999 -1.1838  1.5107
16809TIP3    H271843   0.115   3.905  12.886 -1.5713  0.3760  1.1280
16810TIP3   OH271844   4.059   0.310   4.576  0.3115 -0.7267 -0.4860
16810TIP3    H171845   4.120   0.250   4.619 -0.2115  0.9446  2.8811
16810TIP3    H271846   4.113   0.383   4.547  0.3983 -0.9982 -1.0279
16811TIP3   OH271847   4.640   1.173   2.303  0.1387 -0.0616  0.7543
16811TIP3    H171848   4.734   1.190   2.300  0.3761 -0.9084  2.2619
16811TIP3    H271849   4.614   1.199   2.391 -1.1272  0.4852  0.2404
16812TIP3   OH271850   3.949   4.032  10.954 -0.3082  0.6141 -0.2300
16812TIP3    H171851   4.034   3.988  10.950  0.2172  1.3049  2.0191
16812TIP3    H271852   3.885   3.961  10.953  0.4081 -0.0558  0.4003
16813TIP3   OH271853   3.817   1.286   5.432 -0.3894  0.2238  0.0188
16813TIP3    H171854   3.912   1.269   5.433 -0.3817  0.2361 -0.3159
16813TIP3    H271855   3.782   1.226   5.498 -0.1710  0.0713 -0.0006
16814TIP3   OH271856   5.398   0.826  13.550 -0.2197 -0.1147  0.1560
16814TIP3    H171857   5.424   0.744  13.509  1.0903  0.4173 -0.1219
16814TIP3    H271858   5.360   0.877  13.479  0.9776  0.3522 -0.1734
16815TIP3   OH271859   0.305   2.543   4.273 -0.1611  0.0937 -0.6819
16815TIP3    H171860   0.337   2.488   4.202 -1.5687 -0.2003 -1.1332
16815TIP3    H271861   0.368   2.533   4.343 -0.9703 -3.1022 -0.2724
16816TIP3   OH271862   5.013   3.857  15.336 -0.1447 -0.7102 -0.1580
16816TIP3    H171863   4.999   3.819  15.423  1.5656  1.1556  1.0219
16816TIP3    H271864   5.042   3.784  15.282 -0.7343 -1.8049  0.9630
16817TIP3   OH271865   2.669   6.151  16.381  0.3193  0.3529  0.0240
16817TIP3    H171866   2.578   6.145  16.410  0.3506 -0.1720  0.0353
16817TIP3    H271867   2.715   6.086  16.435  0.6379  0.3841 -0.2082
16818TIP3   OH271868   3.658   4.170   1.111 -0.0340  0.0168 -1.1173
16818TIP3    H171869   3.593   4.176   1.041 -0.8500 -1.9392 -0.5889
16818TIP3    H271870   3.738   4.205   1.072 -1.0449  1.1810 -2.2349
16819TIP3   OH271871   4.749   4.501  14.534  0.0186 -0.2570  0.0554
16819TIP3    H171872   4.689   4.513  14.460 -0.1018  0.4958  0.2728
16819TIP3    H271873   4.708   4.548  14.607  1.6740  1.7376 -0.2084
16820TIP3   OH271874   0.693   0.529  16.449  0.1967 -0.0417 -0.1020
16820TIP3    H171875   0.671   0.545  16.540 -1.1058  1.1132 -0.5753
16820TIP3    H271876   0.680   0.614  16.406  1.4207 -0.3978 -1.2512
16821TIP3   OH271877   5.937   5.075   0.739 -0.5462  0.1559  0.1617
16821TIP3    H171878   5.852   5.071   0.695 -1.3092  4.3647  0.8156
16821TIP3    H271879   5.923   5.137   0.811  2.4080 -1.2039  2.0915
16822TIP3   OH271880   2.316   1.537   2.782 -1.0467  0.2094 -0.4333
16822TIP3    H171881   2.345   1.546   2.872 -1.2345 -1.5398 -0.1571
16822TIP3    H271882   2.386   1.576   2.730  0.4874 -1.3376  0.3552
16823TIP3   OH271883   0.506   2.315  11.358 -0.0700  0.0794  0.3873
16823TIP3    H171884   0.416   2.283  11.353  0.5894 -1.9714  0.4685
16823TIP3    H271885   0.542   2.299  11.270  0.5844 -0.3798  0.7256
16824TIP3   OH271886   4.337   3.249  12.699 -0.3506 -0.1214 -0.2552
16824TIP3    H171887   4.360   3.164  12.738  0.1760 -0.7825 -1.8945
16824TIP3    H271888   4.246   3.238  12.671 -0.8262  0.4565  1.0135
16825TIP3   OH271889   1.973   3.445   4.793 -0.3893 -0.2549  0.5718
16825TIP3    H171890   1.956   3.528   4.748  1.7436  1.0162  1.9029
16825TIP3    H271891   2.046   3.465   4.851  0.6246 -3.2712  0.4840
16826TIP3   OH271892   2.764   0.207   1.671 -0.3600  0.0022  0.3039
16826TIP3    H171893   2.709   0.185   1.597  0.7333 -0.9554 -0.2606
16826TIP3    H271894   2.819   0.130   1.684  1.8287  1.3994 -0.0921
16827TIP3   OH271895   2.151   2.168  11.687  0.1895  0.2131 -0.1699
16827TIP3    H171896   2.127   2.187  11.777  0.4211  0.9105 -0.2488
16827TIP3    H271897   2.089   2.220  11.634  0.2371  0.0307 -0.4073
16828TIP3   OH271898   6.673   0.607  11.174  0.2434  0.0690  0.3493
16828TIP3    H171899   6.748   0.581  11.121 -0.8430 -0.6930 -0.8478
16828TIP3    H271900   6.712   0.647  11.252  1.8929 -0.7627 -0.0114
16829TIP3   OH271901   4.762   0.983  13.811  0.5258  0.3249 -0.2027
16829TIP3    H171902   4.748   0.900  13.766  1.2217 -0.3723  0.8474
16829TIP3    H271903   4.769   1.047  13.740 -0.8951 -0.3472 -0.9964
16830TIP3   OH271904   0.551   2.179  13.505 -0.5280 -0.0733 -0.3833
16830TIP3    H171905   0.537   2.233  13.583  1.2678  0.9813 -0.7492
16830TIP3    H271906   0.537   2.239  13.432 -0.3620 -0.5829 -0.8370
16831TIP3   OH271907   0.221   3.038  11.050  0.2439 -0.1973  0.0268
16831TIP3    H171908   0.262   2.957  11.080 -1.4866 -1.0508  0.2194
16831TIP3    H271909   0.130   3.029  11.076 -0.0749  1.6381 -0.3561
16832TIP3   OH271910   1.620   4.680  12.946 -0.5997  0.6099 -0.0682
16832TIP3    H171911   1.682   4.623  12.900  0.2669  0.2396  1.4932
16832TIP3    H271912   1.534   4.649  12.919 -0.1423  0.8525 -1.9442
16833TIP3   OH271913   1.748   5.569   6.145  0.2594 -0.4667 -0.7056
16833TIP3    H171914   1.799   5.494   6.175 -0.3124 -0.8665 -0.7075
16833TIP3    H271915   1.765   5.573   6.051 -0.1997 -0.9883 -0.8158
16834TIP3   OH271916   2.788   1.890   6.189 -0.3134  0.0703 -0.4101
16834TIP3    H171917   2.694   1.904   6.180 -0.0898  0.3135 -3.2941
16834TIP3    H271918   2.821   1.970   6.229 -1.1936  0.4772 -0.4808
16835TIP3   OH271919   4.666   6.457   0.188 -0.7450  0.1693  0.2466
16835TIP3    H171920   4.589   6.440   0.135 -0.3684  2.3161 -1.1230
16835TIP3    H271921   4.676   6.553   0.186  0.2025  0.2078  2.9325
16836TIP3   OH271922   3.953   3.606   0.175 -0.0725 -0.1837 -0.0001
16836TIP3    H171923   3.888   3.674   0.159 -0.7898 -0.8947 -0.1535
16836TIP3    H271924   4.016   3.616   0.104 -1.2800 -0.9854 -1.2354
16837TIP3   OH271925   5.172   6.444  17.065 -0.3507 -0.3479  0.5792
16837TIP3    H171926   5.250   6.458  17.119 -0.2666  1.7478  0.0119
16837TIP3    H271927   5.168   6.350  17.052  3.2643 -0.4381 -1.0520
16838TIP3   OH271928   4.655   2.794   1.989 -0.4419 -0.5085  0.0485
16838TIP3    H171929   4.743   2.831   1.983 -0.5470 -0.1013  0.8192
16838TIP3    H271930   4.635   2.763   1.900  0.5824 -0.8638 -0.0611
16839TIP3   OH271931   6.346   2.789  15.793 -0.5447  0.3967 -0.1171
16839TIP3    H171932   6.430   2.834  15.794 -1.0967  1.4674 -0.2532
16839TIP3    H271933   6.303   2.817  15.874 -0.8402 -0.0275 -0.1203
16840TIP3   OH271934   1.722   6.220  17.037  0.1655 -0.3471 -0.1793
16840TIP3    H171935   1.665   6.175  16.975 -1.5573  0.7142  0.5452
16840TIP3    H271936   1.786   6.154  17.064 -0.8067 -1.6461 -0.9358
16841TIP3   OH271937   3.875   6.428  12.717 -0.2576  0.1097  0.0366
16841TIP3    H171938   3.884   6.352  12.774  1.2547 -1.0308 -1.6319
16841TIP3    H271939   3.838   6.393  12.636  1.7881  0.8341 -1.2810
16842TIP3   OH271940   1.296   5.282  15.938 -0.5444 -0.3898  0.1507
16842TIP3    H171941   1.324   5.309  16.025 -0.3188  0.1621 -0.0887
16842TIP3    H271942   1.212   5.327  15.925  0.7262  1.8390 -1.0142
16843TIP3   OH271943   2.980   4.622   5.324  0.7434 -0.1190  0.5368
16843TIP3    H171944   3.007   4.607   5.414  3.7434 -0.3032 -0.2997
16843TIP3    H271945   2.922   4.548   5.304  1.4811 -1.0669  1.7513
16844TIP3   OH271946   0.193   4.833  13.109  0.7622 -0.3121 -0.5705
16844TIP3    H171947   0.149   4.855  13.027  0.6406  1.7667  0.0025
16844TIP3    H271948   0.173   4.741  13.122 -1.3616 -0.0678 -1.5917
16845TIP3   OH271949   2.746   6.078  14.607  0.3232  0.2020  0.6164
16845TIP3    H171950   2.805   6.141  14.565  0.4238 -0.4908 -0.3104
16845TIP3    H271951   2.765   5.995  14.564 -1.4113 -0.0214  0.2067
16846TIP3   OH271952   3.491   2.256   2.837 -0.4305 -0.3795 -0.1704
16846TIP3    H171953   3.407   2.296   2.818 -0.0374 -0.2005 -1.6145
16846TIP3    H271954   3.499   2.184   2.776 -0.0282 -1.1348  0.7373
16847TIP3   OH271955   4.649   4.674   4.657  0.2946  0.2842 -0.5167
16847TIP3    H171956   4.676   4.678   4.749 -0.4092 -0.0057 -0.2876
16847TIP3    H271957   4.724   4.708   4.608  0.1207  1.8684  0.2598
16848TIP3   OH271958   6.601   2.493  16.993  0.1337  0.5771  0.4850
16848TIP3    H171959   6.582   2.462  16.904  0.9565  0.4807  0.3288
16848TIP3    H271960   6.532   2.455  17.047  0.3089 -0.3619  0.0700
16849TIP3   OH271961   4.584   1.175  14.347 -0.3922 -0.1565 -0.2808
16849TIP3    H171962   4.615   1.262  14.321 -1.7195 -0.0010 -1.4386
16849TIP3    H271963   4.509   1.158  14.291  0.2155 -2.3519 -0.5485
16850TIP3   OH271964   1.084   6.511   3.926  0.0178 -0.3069  0.2463
16850TIP3    H171965   0.993   6.537   3.937  0.1307 -0.2622  1.2296
16850TIP3    H271966   1.086   6.462   3.844 -0.6184  0.8825 -0.4972
16851TIP3   OH271967   0.486   1.847   2.135 -0.3057  0.0488 -0.1948
16851TIP3    H171968   0.484   1.818   2.227 -0.6696  0.5558 -0.0410
16851TIP3    H271969   0.423   1.919   2.131 -1.4463 -0.9477 -1.1758
16852TIP3   OH271970   6.705   5.967  15.318 -0.2649 -0.0309  0.3902
16852TIP3    H171971   6.638   6.030  15.291  0.4810  0.4741 -0.3196
16852TIP3    H271972   6.770   6.020  15.364 -0.2464 -0.4896  0.9028
16853TIP3   OH271973   5.094   2.073  15.944 -0.5718  0.1152 -0.0555
16853TIP3    H171974   5.144   2.142  15.902 -0.0387  0.7947  1.6023
16853TIP3    H271975   5.002   2.099  15.932 -0.3699  1.5359  1.1255
16854TIP3   OH271976   3.992   2.171  12.997 -0.0056 -0.2360 -0.1180
16854TIP3    H171977   4.066   2.114  12.977  1.0212  0.9412  0.2742
16854TIP3    H271978   3.946   2.126  13.068  0.3788 -0.9061 -0.2798
16855TIP3   OH271979   3.488   3.855  16.956 -0.3191  0.2239  0.2941
16855TIP3    H171980   3.571   3.882  16.994  1.9662 -2.4238 -2.2949
16855TIP3    H271981   3.445   3.805  17.025  0.8748  0.5259  1.2907
16856TIP3   OH271982   1.191   6.566  16.477 -0.0563  0.1017 -0.0027
16856TIP3    H171983   1.178   6.471  16.483 -0.0396  0.0291 -0.9107
16856TIP3    H271984   1.231   6.579  16.391 -0.2394  0.9513  0.0336
16857TIP3   OH271985   4.254   4.122  14.827  0.8772 -0.4595  0.0813
16857TIP3    H171986   4.317   4.186  14.859  0.8955 -1.7662  2.9173
16857TIP3    H271987   4.302   4.039  14.827 -0.4856 -1.2837  1.2305
16858TIP3   OH271988   0.051   1.021  14.121 -0.1992  0.2347 -0.1798
16858TIP3    H171989  -0.025   0.986  14.076  0.2745 -0.5715 -0.3754
16858TIP3    H271990   0.100   1.068  14.054  1.0128 -1.7784 -0.8217
16859TIP3   OH271991   1.065   6.722   2.001 -0.1055 -0.0339 -0.9619
16859TIP3    H171992   1.154   6.705   2.030 -1.1239 -0.4977  2.2671
16859TIP3    H271993   1.040   6.644   1.951  0.1116 -1.6911  1.3588
16860TIP3   OH271994   3.648   6.521  15.415 -0.2499  0.2311  0.2721
16860TIP3    H171995   3.664   6.574  15.493  0.1677 -1.4948  1.4243
16860TIP3    H271996   3.555   6.529  15.398 -0.5085 -0.0245  1.4778
16861TIP3   OH271997   1.867   6.724  12.143  0.1614 -0.9343 -0.0166
16861TIP3    H171998   1.928   6.655  12.119  0.6634 -0.2705 -0.6899
16861TIP3    H271999   1.799   6.679  12.194  1.1203 -1.7075  0.6241
16862TIP3   OH272000   2.172   2.558  15.866  0.1836  0.3479  0.1452
16862TIP3    H172001   2.256   2.603  15.878  1.4462 -1.4293 -1.3635
16862TIP3    H272002   2.126   2.610  15.800  1.2128  0.0131 -0.8755
16863TIP3   OH272003   5.349   0.299  14.461  0.0237 -0.9408  0.1737
16863TIP3    H172004   5.359   0.226  14.400 -0.3062 -0.3697 -0.5823
16863TIP3    H272005   5.257   0.295  14.488 -0.3498 -0.0329 -0.8963
16864TIP3   OH272006   0.002   5.436   4.785  0.4259  0.3237  0.2076
16864TIP3    H172007   0.060   5.411   4.713  0.0356 -2.4387  0.7453
16864TIP3    H272008  -0.084   5.447   4.743  0.2932 -0.8076  0.1658
16865TIP3   OH272009   3.635   5.480  14.239 -0.6807  0.0953 -0.3142
16865TIP3    H172010   3.598   5.469  14.327 -2.6597 -1.4235 -1.2592
16865TIP3    H272011   3.619   5.396  14.196  1.6659  0.2673 -1.6524
16866TIP3   OH272012   5.118   5.690   5.163 -0.1122 -0.1896 -0.4195
16866TIP3    H172013   5.207   5.713   5.189 -0.8505  0.4561  1.6831
16866TIP3    H272014   5.125   5.598   5.137  1.3602  0.1590 -1.4332
16867TIP3   OH272015   3.236   4.123   5.632  0.7709 -0.5975  0.2361
16867TIP3    H172016   3.298   4.050   5.632  2.8250  1.0511  0.8626
16867TIP3    H272017   3.272   4.185   5.695  0.3234  1.9496 -1.8279
16868TIP3   OH272018   3.902   1.627   3.901 -0.3628 -0.0060 -0.2907
16868TIP3    H172019   3.922   1.533   3.907  2.6608  0.6068  1.2477
16868TIP3    H272020   3.900   1.644   3.807  1.3849 -1.2415 -0.6159
16869TIP3   OH272021   5.472   0.520   3.642 -0.3973 -0.8757  0.2248
16869TIP3    H172022   5.545   0.458   3.652  0.4595  0.2238  0.9734
16869TIP3    H272023   5.486   0.584   3.712  0.9430  2.3911 -2.7744
16870TIP3   OH272024   3.891   6.551   1.880 -0.0979  0.5462 -0.6740
16870TIP3    H172025   3.837   6.487   1.833 -0.2249 -0.5528  0.8950
16870TIP3    H272026   3.842   6.569   1.960  0.2362  2.1764 -0.8021
16871TIP3   OH272027   2.130   3.332  13.773  0.1786  0.2943 -0.1615
16871TIP3    H172028   2.048   3.380  13.761  0.2888  0.5642  0.1490
16871TIP3    H272029   2.194   3.382  13.724 -0.1655 -0.8862 -1.9166
16872TIP3   OH272030   5.236   3.076   5.520 -0.3828 -0.3638  0.2151
16872TIP3    H172031   5.289   3.148   5.554 -1.3692 -0.5332  2.2134
16872TIP3    H272032   5.260   3.000   5.573 -0.4890 -1.1597 -0.8393
16873TIP3   OH272033   5.349   1.819   3.721 -0.5740 -0.4420 -0.2631
16873TIP3    H172034   5.320   1.747   3.776  0.2041 -1.0472 -0.6206
16873TIP3    H272035   5.443   1.806   3.712  0.1078  2.0835  1.7972
16874TIP3   OH272036   5.862   4.764   5.905  0.3447 -0.0458  0.5732
16874TIP3    H172037   5.883   4.673   5.928  0.2012  0.1368  1.4650
16874TIP3    H272038   5.942   4.813   5.923 -0.6093  0.5964  3.6783
16875TIP3   OH272039   1.717   2.197   4.036 -0.0953 -0.4443 -0.8364
16875TIP3    H172040   1.637   2.196   4.088 -0.2342  1.2612 -0.9635
16875TIP3    H272041   1.687   2.213   3.947  0.4059  0.9212 -0.7791
16876TIP3   OH272042   4.327   6.281  14.896  0.5715 -0.0127  0.2505
16876TIP3    H172043   4.386   6.356  14.891  0.2599  0.1746 -1.0878
16876TIP3    H272044   4.342   6.233  14.815  0.4521 -1.1733  0.8973
16877TIP3   OH272045   1.698   3.654  17.025 -0.3100  0.2654 -0.3961
16877TIP3    H172046   1.677   3.593  17.096 -0.5915 -0.7510 -1.3264
16877TIP3    H272047   1.682   3.741  17.063  2.2034 -0.0519  1.6859
16878TIP3   OH272048   3.046   4.272   0.478  0.4120 -0.5485 -0.5074
16878TIP3    H172049   3.025   4.345   0.536 -1.8687  1.0557 -3.0917
16878TIP3    H272050   2.961   4.231   0.459  1.1009 -1.2728 -2.2921
16879TIP3   OH272051   5.420   1.432  17.229  0.1800 -0.3726  0.0458
16879TIP3    H172052   5.507   1.405  17.199  0.9018 -3.3182  4.0121
16879TIP3    H272053   5.360   1.371  17.185  0.3770  0.0674 -0.8437
16880TIP3   OH272054   4.926   1.445  16.418 -0.4733 -0.0130  0.2526
16880TIP3    H172055   4.953   1.353  16.422 -1.2888 -0.2883 -0.2767
16880TIP3    H272056   4.973   1.487  16.490 -0.1151 -0.8533  0.5200
16881TIP3   OH272057   5.500   2.069  17.194 -0.0626 -0.5660 -0.3935
16881TIP3    H172058   5.480   1.977  17.210 -0.9467 -0.2629  0.3906
16881TIP3    H272059   5.554   2.095  17.269 -1.8721  0.1484  0.7425
16882TIP3   OH272060   5.010   1.512   4.677 -0.0471  0.1512 -0.2051
16882TIP3    H172061   4.914   1.519   4.677 -0.1069  3.5321 -4.4206
16882TIP3    H272062   5.038   1.575   4.744 -0.8760  1.3391 -0.9267
16883TIP3   OH272063   1.691   6.427   1.091  0.1487  0.0068 -0.0784
16883TIP3    H172064   1.756   6.473   1.144  1.9535 -0.8024 -1.4718
16883TIP3    H272065   1.698   6.467   1.004  1.2778 -2.3254 -1.1550
16884TIP3   OH272066   2.683   3.943  15.012 -0.5132 -0.7190  0.0671
16884TIP3    H172067   2.760   3.992  14.985 -0.2824 -1.4960 -0.7144
16884TIP3    H272068   2.646   3.908  14.931 -0.5988 -1.9486  0.6093
16885TIP3   OH272069   5.653   0.057   6.370  0.5133 -0.5731  0.3712
16885TIP3    H172070   5.683   0.027   6.456 -0.3054 -0.9329  0.5373
16885TIP3    H272071   5.652  -0.022   6.316  0.7220 -0.4023  0.1119
16886TIP3   OH272072   0.924   5.147   1.842 -0.1186 -0.4122  0.4368
16886TIP3    H172073   0.959   5.116   1.758 -0.1619  1.8284 -0.5012
16886TIP3    H272074   0.845   5.096   1.855  0.5388 -1.6596 -0.2617
16887TIP3   OH272075   2.061   0.187   4.120 -0.1785  0.1802  0.0094
16887TIP3    H172076   2.033   0.211   4.208 -1.0122 -0.9860  0.0711
16887TIP3    H272077   2.050   0.268   4.069 -0.4168  0.6553  0.7968
16888TIP3   OH272078   0.114   0.973  12.710  0.0126 -0.7065  0.3339
16888TIP3    H172079   0.159   1.000  12.790  1.6553 -0.1708 -0.7162
16888TIP3    H272080   0.107   1.054  12.659  0.6043 -1.3451 -0.8015
16889TIP3   OH272081   3.080   1.967  15.609 -0.4787 -0.3453  0.3385
16889TIP3    H172082   3.148   1.907  15.577 -1.0321 -1.0379  0.4345
16889TIP3    H272083   3.010   1.960  15.544  0.3990  2.0626 -1.0106
16890TIP3   OH272084   4.768   2.609  13.781 -0.2503  0.3382  0.2010
16890TIP3    H172085   4.745   2.568  13.864  1.2865  0.5509  0.7637
16890TIP3    H272086   4.735   2.548  13.715  1.3284 -1.5371  1.0067
16891TIP3   OH272087   5.468   2.016  16.160 -0.2736  0.0445  0.4387
16891TIP3    H172088   5.443   1.958  16.087 -1.6348  0.3771  0.5987
16891TIP3    H272089   5.543   1.973  16.200  0.6617 -0.0394 -1.2789
16892TIP3   OH272090   2.629   1.951  14.511 -0.1436 -0.3480 -0.2661
16892TIP3    H172091   2.627   1.933  14.417 -1.8684  0.0338 -0.3552
16892TIP3    H272092   2.642   1.866  14.552  0.1655 -0.5852 -0.8473
16893TIP3   OH272093   3.831   5.308  15.612 -0.5061  0.2733  0.3033
16893TIP3    H172094   3.767   5.371  15.579  0.9590  1.6045 -0.1060
16893TIP3    H272095   3.796   5.279  15.696 -1.2580  1.5502  0.4481
16894TIP3   OH272096   1.830   3.954  13.737 -0.7885 -0.3933  0.2568
16894TIP3    H172097   1.855   4.046  13.746 -0.2547 -0.6360  1.4899
16894TIP3    H272098   1.886   3.920  13.668 -0.0428 -0.0947  0.7007
16895TIP3   OH272099   2.689   1.120  12.691  0.0279 -0.0885  0.3775
16895TIP3    H172100   2.703   1.153  12.602  3.3413 -0.8364  0.5252
16895TIP3    H272101   2.740   1.179  12.747 -0.1798 -0.9741  1.5339
16896TIP3   OH272102   5.915   3.977  14.730  0.0627 -0.3555 -0.0574
16896TIP3    H172103   6.003   4.008  14.706 -0.3081 -0.4320 -1.5855
16896TIP3    H272104   5.928   3.887  14.758  0.2199 -1.0886 -2.3269
16897TIP3   OH272105   5.190   4.995   0.481  0.0754 -0.7029 -0.0770
16897TIP3    H172106   5.221   5.080   0.452  0.7432 -0.9291 -0.0344
16897TIP3    H272107   5.219   4.934   0.414 -0.2189 -0.9273 -0.0028
16898TIP3   OH272108   2.708   4.612   3.151  0.0774 -0.1343  0.3790
16898TIP3    H172109   2.691   4.654   3.067 -0.3919  1.2345  1.1299
16898TIP3    H272110   2.625   4.573   3.176  0.4925 -1.4993 -0.2793
16899TIP3   OH272111   1.408   2.595   2.824  0.2520  0.3710  0.1544
16899TIP3    H172112   1.334   2.654   2.835  0.1783  0.2322  0.4187
16899TIP3    H272113   1.469   2.643   2.769  1.4794  1.9299  2.6813
16900TIP3   OH272114   2.044   1.667   0.380  0.3347 -0.5842  0.5416
16900TIP3    H172115   1.969   1.682   0.438  0.7842  0.1599  0.9501
16900TIP3    H272116   2.120   1.681   0.436  0.7814  0.5579 -0.3030
16901TIP3   OH272117   1.493   0.586   0.831  0.3188  0.2505  1.2886
16901TIP3    H172118   1.477   0.676   0.802  0.0132  0.2475  1.4417
16901TIP3    H272119   1.583   0.568   0.804 -0.2920 -0.1332 -0.6441
16902TIP3   OH272120   4.828   2.787   0.428  0.5238  0.5304 -0.4922
16902TIP3    H172121   4.899   2.766   0.489 -1.3184  0.9925  1.9521
16902TIP3    H272122   4.748   2.775   0.479 -1.2338 -0.3165 -3.2341
16903TIP3   OH272123   0.172   1.209  12.291  0.1958  0.1393 -0.0766
16903TIP3    H172124   0.183   1.148  12.365  0.8540 -1.3480 -1.3294
16903TIP3    H272125   0.225   1.170  12.221  0.7721  2.2775 -0.8902
16904TIP3   OH272126   4.651   1.363   5.037 -0.2795 -0.4836 -0.2911
16904TIP3    H172127   4.634   1.456   5.021 -1.1385 -0.6946 -0.6576
16904TIP3    H272128   4.567   1.328   5.066 -0.1833 -1.3224 -0.9910
16905TIP3   OH272129   6.465   2.342  16.052 -0.4454  0.3978  0.2571
16905TIP3    H172130   6.420   2.423  16.028 -2.4362 -0.4485  0.9654
16905TIP3    H272131   6.435   2.322  16.140 -1.5388 -2.0887 -0.5631
16906TIP3   OH272132   5.469   4.438   2.470  0.4478 -0.0785 -0.0115
16906TIP3    H172133   5.478   4.532   2.453  0.3099 -0.2061 -0.8413
16906TIP3    H272134   5.557   4.402   2.457  0.3093 -0.2010 -0.6367
16907TIP3   OH272135   0.436   2.673   5.674 -0.1604 -0.3790 -0.3783
16907TIP3    H172136   0.531   2.660   5.666 -0.3897 -2.2313 -0.3037
16907TIP3    H272137   0.424   2.703   5.765  0.5047  1.7697 -0.9430
16908TIP3   OH272138   3.405   6.014  15.683  0.5209  0.7118  0.0416
16908TIP3    H172139   3.326   6.066  15.697  0.9517  1.1449  0.9747
16908TIP3    H272140   3.430   5.985  15.771 -0.8251 -2.8198 -0.5779
16909TIP3   OH272141   3.155   5.433  14.817  0.0212  0.3858  0.2387
16909TIP3    H172142   3.068   5.397  14.802  0.4238 -0.1773 -0.8389
16909TIP3    H272143   3.170   5.422  14.911 -0.0055 -1.9823  0.0166
16910TIP3   OH272144   5.974   4.274  11.349  0.1351  0.6347  0.5586
16910TIP3    H172145   6.041   4.217  11.312 -0.5702  0.2254 -0.1455
16910TIP3    H272146   5.928   4.220  11.413 -0.7337  0.2828 -0.3301
16911TIP3   OH272147   6.335   1.070   2.262 -0.6804 -0.1791 -0.1447
16911TIP3    H172148   6.421   1.111   2.259 -1.5965  2.0891  1.5517
16911TIP3    H272149   6.351   0.983   2.298  0.7450  0.8390  1.8334
16912TIP3   OH272150   1.031   3.746   0.865 -0.2848  0.2851  0.2264
16912TIP3    H172151   1.046   3.665   0.913  0.7111 -0.0584 -0.6347
16912TIP3    H272152   1.110   3.798   0.879  1.0565 -0.7255 -2.7372
16913TIP3   OH272153   5.200   2.090  15.111 -0.0091 -0.2145  0.2047
16913TIP3    H172154   5.224   2.106  15.203  0.9080  0.3680 -0.1232
16913TIP3    H272155   5.259   2.146  15.061 -1.2148  0.2717 -0.7140
16914TIP3   OH272156   2.225   2.267  13.215 -0.4782 -0.1699  0.5754
16914TIP3    H172157   2.307   2.304  13.248 -1.1915 -1.3852  4.1380
16914TIP3    H272158   2.238   2.173  13.219 -2.1463 -0.3988  1.6981
16915TIP3   OH272159   1.298   0.845  14.284 -0.1558 -0.0232 -0.2428
16915TIP3    H172160   1.355   0.914  14.250 -0.3819  0.4585  0.3489
16915TIP3    H272161   1.349   0.765  14.272  1.2922  0.5380  1.6058
16916TIP3   OH272162   1.577   4.121   3.847  0.1200 -0.2658  0.6269
16916TIP3    H172163   1.553   4.091   3.759 -0.1578  1.7675 -0.0459
16916TIP3    H272164   1.605   4.042   3.892  1.0284 -1.2646 -1.5319
16917TIP3   OH272165   3.854   6.371   4.086 -0.1833 -0.5679 -0.1002
16917TIP3    H172166   3.765   6.339   4.103  0.3313 -1.7146  0.5727
16917TIP3    H272167   3.875   6.426   4.162  0.0400 -1.1228  0.2497
16918TIP3   OH272168   5.248   3.966  13.864  0.0232  0.3406 -0.0495
16918TIP3    H172169   5.259   3.871  13.877 -0.0489  0.4310  0.7372
16918TIP3    H272170   5.183   3.973  13.794 -0.5904 -0.1943  0.4559
16919TIP3   OH272171   6.588   0.005  15.342 -0.1685 -0.1780 -0.1893
16919TIP3    H172172   6.536  -0.065  15.382 -0.8010  1.0303  1.2030
16919TIP3    H272173   6.591  -0.018  15.249 -1.2705 -1.4708  0.0524
16920TIP3   OH272174   6.630   1.807  12.632 -0.0261  0.2455 -0.1865
16920TIP3    H172175   6.577   1.751  12.689  0.4855 -0.0085  0.0431
16920TIP3    H272176   6.602   1.784  12.543 -3.4486  3.1408 -0.1008
16921TIP3   OH272177   2.640   4.088   2.171  0.2080 -0.2475  0.6807
16921TIP3    H172178   2.617   4.134   2.251  0.8677  0.0672  0.6958
16921TIP3    H272179   2.699   4.018   2.199  2.6833  1.5089  0.2253
16922TIP3   OH272180   3.291   3.252  16.205  0.4843  0.7310  0.5254
16922TIP3    H172181   3.382   3.244  16.232 -0.2789 -0.8983  3.0318
16922TIP3    H272182   3.245   3.185  16.256 -1.5543 -1.5176 -3.7374
16923TIP3   OH272183   1.627   2.687  13.906  0.2784  0.0518  0.3973
16923TIP3    H172184   1.615   2.750  13.836 -0.1216 -0.2143  0.2231
16923TIP3    H272185   1.697   2.629  13.876 -0.1774 -0.3156  0.0330
16924TIP3   OH272186   5.909   1.215  15.689  0.5660 -0.3247  0.1397
16924TIP3    H172187   5.877   1.215  15.598  0.4312 -2.3416  0.1408
16924TIP3    H272188   5.845   1.162  15.737  1.4544 -0.5714  1.0886
16925TIP3   OH272189   1.876   0.094   0.618  0.4501  0.4345  0.6756
16925TIP3    H172190   1.798   0.106   0.670 -1.2396 -0.8203 -1.3955
16925TIP3    H272191   1.901   0.182   0.590 -1.9581  0.6974 -0.9225
16926TIP3   OH272192   1.790   1.771   0.552 -0.2360 -0.0387 -0.2247
16926TIP3    H172193   1.840   1.743   0.629  1.3487 -1.7194 -1.7691
16926TIP3    H272194   1.710   1.718   0.555  0.3569 -0.9740 -0.3163
16927TIP3   OH272195   5.855   1.345  16.161  0.4238 -0.1049  0.3214
16927TIP3    H172196   5.944   1.379  16.157 -0.3532  2.0818  0.1421
16927TIP3    H272197   5.830   1.354  16.253  0.5254 -1.1838  0.4698
16928TIP3   OH272198   2.417   4.265   4.239 -0.8876 -0.1000  0.5194
16928TIP3    H172199   2.504   4.227   4.223 -0.9651 -0.0442 -0.0607
16928TIP3    H272200   2.431   4.326   4.311  0.1306  1.9234 -1.2854
16929TIP3   OH272201   0.453   1.218  14.555 -0.4117  0.3443  0.4557
16929TIP3    H172202   0.497   1.292  14.597  0.4548 -0.2536  0.6136
16929TIP3    H272203   0.370   1.210  14.603 -0.7543  1.5294  0.0950
16930TIP3   OH272204   4.272   2.728   1.233 -0.4441  0.3809  0.2304
16930TIP3    H172205   4.275   2.800   1.295  0.4071  1.0093 -0.5099
16930TIP3    H272206   4.322   2.759   1.158 -0.0996 -0.9690 -0.1246
16931TIP3   OH272207   5.093   0.619  14.079  0.1479  0.2103  0.8324
16931TIP3    H172208   5.149   0.607  14.002 -0.5701  0.1030  0.3136
16931TIP3    H272209   5.036   0.692  14.055  0.8575  1.1160  1.8261
16932TIP3   OH272210   2.676   6.367   3.304 -0.2327  0.2400  0.3438
16932TIP3    H172211   2.622   6.355   3.227  2.3015  0.0494 -1.5489
16932TIP3    H272212   2.709   6.279   3.324 -1.0127  0.2466  1.8388
16933TIP3   OH272213   5.024   1.843  13.323 -0.5228 -0.2562 -0.0360
16933TIP3    H172214   5.005   1.934  13.348 -1.2418 -0.3562 -0.1805
16933TIP3    H272215   5.119   1.834  13.334 -0.6378  0.0377  1.5664
16934TIP3   OH272216   6.089   0.288   5.239 -0.8642  0.1576 -0.1380
16934TIP3    H172217   6.141   0.289   5.319 -0.3064  0.6520 -0.4958
16934TIP3    H272218   6.117   0.209   5.193 -0.6486  0.2582 -0.1829
16935TIP3   OH272219   5.302   4.885  11.808  0.8348  0.4311  0.2504
16935TIP3    H172220   5.277   4.964  11.855 -2.5566  0.8587 -1.9014
16935TIP3    H272221   5.280   4.903  11.717 -1.1870 -3.2826 -0.2143
16936TIP3   OH272222   2.596   2.256  16.138  0.0688 -0.1998  0.1471
16936TIP3    H172223   2.545   2.323  16.093  0.5468 -0.1170 -0.2811
16936TIP3    H272224   2.672   2.242  16.082 -0.8012 -2.2835 -0.6493
16937TIP3   OH272225   4.402   1.566   0.560 -0.4873 -0.9795  0.3328
16937TIP3    H172226   4.401   1.540   0.652  0.6871 -0.5418  0.4977
16937TIP3    H272227   4.488   1.538   0.528 -0.9923 -1.3758 -0.7096
16938TIP3   OH272228   6.001   1.562   2.239 -0.2401  0.2298  0.1998
16938TIP3    H172229   6.082   1.536   2.194 -0.4328 -1.0438  0.5489
16938TIP3    H272230   5.971   1.639   2.191  0.6319  0.1078 -0.5813
16939TIP3   OH272231   0.909   2.256  13.387  0.3470 -0.2380  0.3478
16939TIP3    H172232   0.836   2.272  13.327  0.5009 -1.0369 -0.0583
16939TIP3    H272233   0.895   2.319  13.458 -0.6046 -0.2189  0.1614
16940TIP3   OH272234   3.524   1.533  14.566  0.2794  0.4717 -1.0935
16940TIP3    H172235   3.552   1.481  14.642 -0.3529  1.4114 -0.1849
16940TIP3    H272236   3.564   1.490  14.491 -1.1069 -2.0027 -0.5180
16941TIP3   OH272237   3.104   5.659  11.167 -0.4029 -0.0484 -0.1616
16941TIP3    H172238   3.082   5.745  11.200  0.5785  0.5027 -0.8801
16941TIP3    H272239   3.157   5.676  11.089  1.1683 -1.2666  0.5790
16942TIP3   OH272240   3.308   1.907  16.656 -0.0926  0.4586 -0.1176
16942TIP3    H172241   3.322   2.001  16.664 -0.3657  0.4133  1.0444
16942TIP3    H272242   3.267   1.882  16.738  0.3118 -0.7440 -0.2636
16943TIP3   OH272243   6.499   3.507   5.644  0.5483 -0.2076  0.5441
16943TIP3    H172244   6.480   3.504   5.550  1.9876  0.1210  0.2167
16943TIP3    H272245   6.427   3.557   5.681  1.3771  2.1868 -0.8299
16944TIP3   OH272246   4.099   3.424  15.271  0.2273  0.0715 -0.0024
16944TIP3    H172247   4.137   3.400  15.356  0.5817  0.8550  0.0685
16944TIP3    H272248   4.129   3.355  15.211 -0.3560 -0.7083  0.5754
16945TIP3   OH272249   2.581   5.266  14.223  0.4049 -0.0458 -0.1458
16945TIP3    H172250   2.540   5.199  14.277  0.9203 -0.0627  0.2283
16945TIP3    H272251   2.510   5.299  14.167  0.0852 -0.7008 -0.1368
16946TIP3   OH272252   4.801   4.951   1.558 -0.0785 -0.1220  0.8044
16946TIP3    H172253   4.774   4.968   1.648  0.1264  1.7918  0.5365
16946TIP3    H272254   4.849   5.029   1.532  0.3809 -0.8919 -0.7842
16947TIP3   OH272255   0.478   2.293  11.895  0.6858  0.4192  0.3479
16947TIP3    H172256   0.431   2.377  11.888  2.9446  1.8218  0.9870
16947TIP3    H272257   0.524   2.284  11.812  1.6072  0.5723  0.8290
16948TIP3   OH272258   1.681   3.072   0.447 -0.1491  0.4746 -0.8232
16948TIP3    H172259   1.741   3.016   0.398  1.5116  0.0617  1.5530
16948TIP3    H272260   1.627   3.010   0.497  0.2357  0.9208  0.1649
16949TIP3   OH272261   1.811   5.241  15.186  0.2711  0.6141 -0.6916
16949TIP3    H172262   1.728   5.256  15.141  0.0213  0.8188 -0.1593
16949TIP3    H272263   1.833   5.150  15.165 -1.0306 -0.0623  0.6970
16950TIP3   OH272264   0.246   1.669   5.656 -0.1910  0.0037  0.2892
16950TIP3    H172265   0.257   1.743   5.716  0.7175 -1.4675  2.0201
16950TIP3    H272266   0.188   1.609   5.702 -1.3503 -0.1796 -1.3221
16951TIP3   OH272267   3.865   4.174  13.762 -0.3274 -0.4325 -0.0413
16951TIP3    H172268   3.897   4.156  13.850 -1.3381 -0.7156  0.2833
16951TIP3    H272269   3.784   4.223  13.775 -0.6065 -0.6674 -0.8030
16952TIP3   OH272270   1.036   1.090  12.083  0.1025 -0.0551 -0.4628
16952TIP3    H172271   0.956   1.056  12.122 -0.9378 -0.8219 -3.0463
16952TIP3    H272272   1.098   1.016  12.088 -0.3491 -0.4893 -1.1011
16953TIP3   OH272273   5.416   2.711   4.831  0.1870  0.3167 -0.4837
16953TIP3    H172274   5.482   2.776   4.807  0.7022 -0.1101 -0.2686
16953TIP3    H272275   5.399   2.727   4.923  1.7771 -1.0494  0.1249
16954TIP3   OH272276   2.696   1.761  14.868 -0.0809 -0.3783  0.2580
16954TIP3    H172277   2.738   1.677  14.888  0.9934 -0.3540 -1.7097
16954TIP3    H272278   2.630   1.739  14.802  2.4565  0.6571 -2.8816
16955TIP3   OH272279   1.671   1.069   3.079  0.1401  0.1502 -0.2019
16955TIP3    H172280   1.725   1.141   3.046  0.7188 -0.2310 -0.1093
16955TIP3    H272281   1.604   1.055   3.012  0.3696  0.4001 -0.4855
16956TIP3   OH272282   3.426   1.821  16.248 -0.4907 -0.2161  0.1198
16956TIP3    H172283   3.460   1.902  16.209 -2.8588  0.4490 -0.7059
16956TIP3    H272284   3.436   1.755  16.180 -1.6456  0.2008 -0.4839
16957TIP3   OH272285   2.982   0.678   0.623  0.1224  0.0930  0.1323
16957TIP3    H172286   3.012   0.629   0.699  0.5304  1.1080  0.6399
16957TIP3    H272287   2.901   0.634   0.597  0.9523 -1.4275 -0.0212
16958TIP3   OH272288   4.646   2.819  16.067  0.5149  0.7188 -0.2217
16958TIP3    H172289   4.644   2.744  16.127 -2.9698 -0.8333 -1.9890
16958TIP3    H272290   4.584   2.881  16.105 -0.8372  0.2135 -1.4800
16959TIP3   OH272291   5.681   6.428   0.936  0.2363 -0.1510 -0.2321
16959TIP3    H172292   5.729   6.465   0.862  0.1424 -0.8162 -0.6392
16959TIP3    H272293   5.631   6.501   0.973  0.4452  0.2267 -0.7003
16960TIP3   OH272294   6.166   5.475   3.035  0.2601 -0.0736  0.3097
16960TIP3    H172295   6.174   5.467   2.940  0.8121 -0.0234  0.3503
16960TIP3    H272296   6.072   5.462   3.052  0.1593 -0.0977 -0.2368
16961TIP3   OH272297   4.770   2.613   4.707  0.1124 -0.1208  0.0981
16961TIP3    H172298   4.826   2.543   4.741 -0.4352 -0.5408  0.1355
16961TIP3    H272299   4.811   2.638   4.624 -0.4814 -1.4631 -0.6134
16962TIP3   OH272300   2.536   5.615  13.806  0.0772 -0.3618 -0.4014
16962TIP3    H172301   2.542   5.698  13.759  0.9839 -1.8220 -3.1406
16962TIP3    H272302   2.605   5.620  13.872  0.5105  0.8432 -0.9184
16963TIP3   OH272303   5.138   2.389  11.650  0.3631  0.0868  0.3200
16963TIP3    H172304   5.073   2.369  11.718 -0.5677 -1.6671 -1.0192
16963TIP3    H272305   5.221   2.358  11.687  0.0930  0.3037  1.1449
16964TIP3   OH272306   4.798   3.443  11.014  0.3516  0.2881 -0.2529
16964TIP3    H172307   4.831   3.356  10.991 -0.0011  0.4998 -1.7027
16964TIP3    H272308   4.706   3.440  10.990  0.1450  0.8172  0.4507
16965TIP3   OH272309   6.414   3.134  14.887 -0.7875  0.3079  0.0001
16965TIP3    H172310   6.351   3.092  14.945  0.1411 -0.9127  0.1650
16965TIP3    H272311   6.499   3.098  14.914  0.3010  3.3519  1.1194
16966TIP3   OH272312   0.077   4.651   2.691  0.2090 -1.0785 -0.5713
16966TIP3    H172313   0.143   4.718   2.670 -1.1021 -0.3546 -2.6105
16966TIP3    H272314   0.045   4.676   2.778  0.8378  0.0303 -0.6403
16967TIP3   OH272315   5.613   1.767   3.703  0.0222 -0.2300  0.1007
16967TIP3    H172316   5.649   1.724   3.781  1.1330 -1.2242 -0.9318
16967TIP3    H272317   5.681   1.759   3.637 -0.0515  2.4162 -0.4126
16968TIP3   OH272318   5.280   1.617   0.356 -0.1573  0.2095 -0.0840
16968TIP3    H172319   5.202   1.670   0.370 -0.8963 -0.8219 -0.2254
16968TIP3    H272320   5.257   1.557   0.285  1.6485  1.6387 -2.0278
16969TIP3   OH272321   2.801   4.758   0.175  0.0349  0.4625  0.2244
16969TIP3    H172322   2.794   4.787   0.266  0.6544  1.0867  0.0898
16969TIP3    H272323   2.714   4.772   0.138  0.1194  1.4620  0.3775
16970TIP3   OH272324   0.003   0.693  14.184 -0.2629  0.4007  0.2521
16970TIP3    H172325   0.009   0.789  14.187  1.0783  0.3125  1.2614
16970TIP3    H272326   0.044   0.664  14.265  0.5934 -1.0860 -0.6671
16971TIP3   OH272327   6.021   3.838  14.506 -0.2860 -0.0360  0.0102
16971TIP3    H172328   6.072   3.832  14.587  0.8843  0.6569 -0.6530
16971TIP3    H272329   6.063   3.776  14.446  0.5393  1.3646 -0.9161
16972TIP3   OH272330   1.603   5.891   1.190 -0.0918 -0.3301  0.0646
16972TIP3    H172331   1.693   5.863   1.208 -0.2921 -0.0761  1.5209
16972TIP3    H272332   1.609   5.985   1.176  0.0482 -0.5105 -1.1940
16973TIP3   OH272333   3.996   3.223   6.493  0.3973  0.5945 -0.6206
16973TIP3    H172334   4.080   3.178   6.503  0.0357  0.2651  1.5206
16973TIP3    H272335   3.978   3.260   6.580 -1.6147  0.7460 -1.0389
16974TIP3   OH272336   5.630   4.953  13.194 -0.0396 -0.3077  0.5906
16974TIP3    H172337   5.642   4.876  13.249 -0.3675 -1.9032 -1.4264
16974TIP3    H272338   5.535   4.961  13.185 -0.0039 -1.2675 -1.2035
16975TIP3   OH272339   2.489   2.992  15.916 -0.1296  0.5260  0.3398
16975TIP3    H172340   2.452   3.028  15.996 -0.1258  1.8116 -0.2120
16975TIP3    H272341   2.578   3.029  15.912 -0.1728  0.5808 -0.3054
16976TIP3   OH272342   5.484   3.704  16.995 -0.2356  0.6077 -0.1930
16976TIP3    H172343   5.532   3.679  17.073 -0.0117  0.8869 -0.2389
16976TIP3    H272344   5.418   3.766  17.026 -0.6053  0.1873 -0.1225
16977TIP3   OH272345   2.123   5.942  12.339  0.3667  0.1810  0.3381
16977TIP3    H172346   2.055   5.966  12.276  0.7106  2.0632  0.6090
16977TIP3    H272347   2.074   5.912  12.416 -0.1426  0.4161  0.1152
16978TIP3   OH272348   0.940   3.504   3.745  0.5025  0.3782  0.3081
16978TIP3    H172349   0.849   3.490   3.771  0.7664  0.0904  1.1316
16978TIP3    H272350   0.981   3.417   3.752  0.6753  0.3645 -0.7552
16979TIP3   OH272351   2.052   1.435   5.407  0.0437 -0.6932 -0.0669
16979TIP3    H172352   2.009   1.478   5.482 -0.2029  1.3311 -1.2940
16979TIP3    H272353   2.078   1.349   5.440 -0.5131 -0.0566  2.1897
16980TIP3   OH272354   5.561   3.469   2.355 -0.5918  0.5036 -0.4016
16980TIP3    H172355   5.540   3.544   2.412 -3.0175  0.2344 -0.8216
16980TIP3    H272356   5.489   3.408   2.369  0.9825 -1.4886 -0.5946
16981TIP3   OH272357   1.567   1.350   1.690  0.4310  0.3407  0.5357
16981TIP3    H172358   1.646   1.329   1.740 -0.7473  0.7036  2.6561
16981TIP3    H272359   1.517   1.408   1.747 -0.7780  1.2067 -1.3060
16982TIP3   OH272360   1.369   1.629  15.126 -0.0816 -0.3463 -0.2163
16982TIP3    H172361   1.463   1.645  15.120 -0.2540  0.2052 -2.2745
16982TIP3    H272362   1.363   1.538  15.154  1.0063  0.2111  2.0595
16983TIP3   OH272363   1.265   0.698   5.684 -0.5105  0.1210 -0.2608
16983TIP3    H172364   1.271   0.764   5.615  0.2551  0.3320  0.0017
16983TIP3    H272365   1.320   0.731   5.755 -2.4913  0.6728  1.1079
16984TIP3   OH272366   6.157   4.670  11.585  0.3032  0.7160  0.3100
16984TIP3    H172367   6.111   4.592  11.552  1.1709  0.2905  0.0516
16984TIP3    H272368   6.250   4.646  11.579  0.5563  1.5379  0.8431
16985TIP3   OH272369   6.188   4.689   0.080  0.4254 -0.4217 -0.0643
16985TIP3    H172370   6.167   4.760   0.019 -0.7248 -1.4651 -0.9438
16985TIP3    H272371   6.187   4.610   0.026 -2.4166 -1.6275  1.5470
16986TIP3   OH272372   3.082   1.208  13.455 -0.4353 -0.4645  0.3130
16986TIP3    H172373   3.001   1.250  13.424  0.1974  0.8755  0.4351
16986TIP3    H272374   3.077   1.213  13.550  0.3251  0.7183  0.3118
16987TIP3   OH272375   3.003   4.317  12.973  0.1549 -0.0275 -0.0912
16987TIP3    H172376   2.950   4.339  12.897  1.2710 -0.5835 -1.0697
16987TIP3    H272377   2.967   4.233  13.004 -1.2368  0.8970  0.9272
16988TIP3   OH272378   3.047   4.606   6.501 -0.3764  0.3983  0.3708
16988TIP3    H172379   3.081   4.670   6.439 -0.6901  0.6046  0.4068
16988TIP3    H272380   3.079   4.635   6.586  2.8789 -1.7107  0.0360
16989TIP3   OH272381   4.580   2.268  16.573 -0.1312 -0.1980 -0.0393
16989TIP3    H172382   4.519   2.304  16.509 -0.4795 -1.3167 -0.3567
16989TIP3    H272383   4.602   2.182  16.539  2.3108  0.4736 -0.3845
16990TIP3   OH272384   2.203   1.076   6.018  0.1026  0.2608 -0.3788
16990TIP3    H172385   2.290   1.098   6.052  0.1816 -0.6231  0.0300
16990TIP3    H272386   2.208   0.982   6.000 -0.7938  0.1898 -0.2810
16991TIP3   OH272387   4.639   1.892  13.529  0.1030  0.3311  0.2284
16991TIP3    H172388   4.583   1.914  13.455  1.9773  1.0720 -1.0289
16991TIP3    H272389   4.646   1.973  13.579 -0.6624 -0.0069  0.9091
16992TIP3   OH272390   6.107   4.844  14.127 -0.2233 -0.7569 -0.1269
16992TIP3    H172391   6.099   4.817  14.219 -2.0392 -1.5856 -0.4864
16992TIP3    H272392   6.113   4.761  14.079  1.9980 -0.3316 -0.7259
16993TIP3   OH272393   5.857   0.022   6.046 -0.2196  0.2301 -0.1698
16993TIP3    H172394   5.770  -0.012   6.064  0.2440 -0.9082  0.0272
16993TIP3    H272395   5.907  -0.054   6.018  1.3092  0.4065  1.8593
16994TIP3   OH272396   3.654   2.169  12.880  0.4604 -0.3037  0.6943
16994TIP3    H172397   3.733   2.220  12.865  0.2086 -0.0507  0.2030
16994TIP3    H272398   3.686   2.084  12.911  0.8991 -0.0268  1.0130
16995TIP3   OH272399   2.659   0.107   1.976  0.3321  0.3853  0.3264
16995TIP3    H172400   2.570   0.078   1.997  0.8732 -1.6892 -0.0557
16995TIP3    H272401   2.646   0.187   1.925 -1.4102 -0.7403 -1.1476
16996TIP3   OH272402   5.443   2.019  14.380  0.0788 -0.4750  0.2860
16996TIP3    H172403   5.476   1.974  14.458  1.8072 -0.3364 -0.3122
16996TIP3    H272404   5.513   2.081  14.356 -2.1281  2.5277  1.0057
16997TIP3   OH272405   4.015   4.780  15.566 -0.2353  0.1772 -0.3297
16997TIP3    H172406   4.055   4.694  15.559 -1.1658 -0.3663  0.7146
16997TIP3    H272407   4.019   4.801  15.659 -1.8971  0.3285 -0.2683
16998TIP3   OH272408   3.431   4.398  11.141  0.4154 -0.2940  0.7832
16998TIP3    H172409   3.386   4.424  11.061  0.8504  0.7113  0.8581
16998TIP3    H272410   3.521   4.428  11.130 -0.1059  2.4504  2.7570
16999TIP3   OH272411   6.325   4.528  10.812 -0.2671 -0.1158 -0.6229
16999TIP3    H172412   6.386   4.454  10.803 -1.1511 -1.2835  2.0882
16999TIP3    H272413   6.253   4.507  10.753 -1.3202 -2.4043  1.3184
17000TIP3   OH272414   4.150   0.589   0.213 -0.0086  0.0828  0.5752
17000TIP3    H172415   4.201   0.542   0.146 -0.1386  1.6218 -0.6444
17000TIP3    H272416   4.211   0.598   0.287  1.3973  1.4791 -0.6844
17001TIP3   OH272417   4.365   1.724  12.829 -0.0581  0.2521  0.5542
17001TIP3    H172418   4.322   1.695  12.910  1.4630 -1.4400  0.8182
17001TIP3    H272419   4.329   1.667  12.761  0.9765 -0.4915  0.6081
17002TIP3   OH272420   6.390   6.080  16.687  0.0432 -0.3781  0.0544
17002TIP3    H172421   6.437   6.101  16.606 -1.4376 -0.6240 -0.9066
17002TIP3    H272422   6.377   5.985  16.683 -1.1066 -0.2279 -0.0414
17003TIP3   OH272423   3.784   1.872  15.095  0.4625  0.4482  0.3022
17003TIP3    H172424   3.835   1.798  15.062 -0.6444  0.0571 -0.5710
17003TIP3    H272425   3.826   1.949  15.056  0.4833  0.1443 -0.2881
17004TIP3   OH272426   5.358   2.720   5.111 -0.7811  0.1606  0.1570
17004TIP3    H172427   5.413   2.750   5.184  1.9329  1.5746 -2.2519
17004TIP3    H272428   5.311   2.798   5.082 -0.8169 -0.0766 -0.4281
17005TIP3   OH272429   3.441   3.520  12.794 -0.3387  0.6722 -0.2070
17005TIP3    H172430   3.411   3.430  12.780  1.4387 -0.0503  0.2883
17005TIP3    H272431   3.524   3.525  12.747  0.1228  1.7166  0.6673
17006TIP3   OH272432   2.004   0.483   3.299 -0.3660  0.3782  0.0081
17006TIP3    H172433   2.028   0.392   3.283 -3.0477 -0.3899 -0.1568
17006TIP3    H272434   2.013   0.494   3.394  0.1135  0.0030  0.0107
17007TIP3   OH272435   3.494   4.139  11.273  0.1015  0.4505 -0.0085
17007TIP3    H172436   3.454   4.220  11.239  0.9010  0.3813 -1.1822
17007TIP3    H272437   3.463   4.070  11.214  0.6524  0.1529  0.0423
17008TIP3   OH272438   0.810   1.435  15.140 -0.9105  0.1752  0.5511
17008TIP3    H172439   0.767   1.389  15.067  1.0718  0.7690 -1.0956
17008TIP3    H272440   0.883   1.378  15.165 -1.1668  0.3016  1.6492
17009TIP3   OH272441   5.075   1.586  15.578 -1.0299  0.1091 -0.1207
17009TIP3    H172442   5.118   1.542  15.505 -1.1828 -0.2275 -0.0118
17009TIP3    H272443   5.146   1.626  15.628 -0.4901 -2.6989  1.5896
17010TIP3   OH272444   3.807   3.976  12.661 -0.2289 -0.0094 -0.3599
17010TIP3    H172445   3.885   3.941  12.703  0.4706  0.2008 -1.4708
17010TIP3    H272446   3.826   3.974  12.568 -0.7639  1.8961 -0.5436
17011TIP3   OH272447   4.647   0.072   1.520 -0.3748  0.3142  0.2817
17011TIP3    H172448   4.660   0.091   1.612 -3.0693  1.8830  0.4488
17011TIP3    H272449   4.661   0.156   1.476  1.4507 -0.5298 -0.8645
17012TIP3   OH272450   1.557   4.523  12.577 -0.0189 -0.2446 -0.4077
17012TIP3    H172451   1.633   4.572  12.547 -0.0056  0.3676  0.5987
17012TIP3    H272452   1.524   4.480  12.498  1.2689 -0.4047 -0.8940
17013TIP3   OH272453   5.243   6.111  16.083  0.4537  0.1709 -0.1624
17013TIP3    H172454   5.176   6.136  16.146 -1.6480  1.6394 -2.7703
17013TIP3    H272455   5.196   6.100  16.000  2.8478 -2.8176 -1.3629
17014TIP3   OH272456   2.446   0.652  15.886  0.4318  0.5719 -0.1008
17014TIP3    H172457   2.542   0.654  15.880  0.4014  1.5717 -0.5129
17014TIP3    H272458   2.421   0.744  15.899 -0.5540  0.5337 -1.5103
17015TIP3   OH272459   6.347   3.269   5.610  0.4123 -0.6892  0.0914
17015TIP3    H172460   6.328   3.245   5.701 -0.9326  0.9459  0.2986
17015TIP3    H272461   6.422   3.328   5.616 -0.4970  0.4892  0.3307
17016TIP3   OH272462   0.895   0.568   4.330 -0.2197  1.0540  0.1450
17016TIP3    H172463   0.805   0.552   4.358 -0.4964  2.4260  0.1122
17016TIP3    H272464   0.946   0.501   4.375 -1.2505  0.2884  0.2054
17017TIP3   OH272465   4.468   0.637   6.002 -0.9152  0.2919  0.0917
17017TIP3    H172466   4.525   0.706   5.969 -0.2551 -1.0865 -1.8385
17017TIP3    H272467   4.405   0.682   6.059 -0.1713  2.3723 -0.6631
17018TIP3   OH272468   4.277   2.272  16.734 -0.0083  0.7161 -0.1838
17018TIP3    H172469   4.273   2.299  16.826 -0.4696 -1.8316  0.6453
17018TIP3    H272470   4.368   2.286  16.708  0.5749 -0.1548  1.2523
17019TIP3   OH272471   1.863   4.615   5.167 -0.4251  0.8878  0.3666
17019TIP3    H172472   1.850   4.628   5.261  0.6724 -2.0541  1.0342
17019TIP3    H272473   1.958   4.620   5.155 -0.6622  3.8915 -1.1466
17020TIP3   OH272474   0.551   3.191  15.649 -0.3246 -0.3355 -0.3461
17020TIP3    H172475   0.592   3.258  15.593  0.5914  0.1218  0.8354
17020TIP3    H272476   0.458   3.195  15.626 -0.3776  1.7107  0.0257
17021TIP3   OH272477   4.803   0.644  15.502  0.1113 -0.5672  0.0597
17021TIP3    H172478   4.815   0.737  15.486 -1.2498 -0.5414 -1.0620
17021TIP3    H272479   4.778   0.608  15.416 -0.6397 -1.7194  0.7294
17022TIP3   OH272480   3.177   5.925  16.532  0.3929  0.0473  0.7343
17022TIP3    H172481   3.122   5.847  16.538  0.2392 -0.0332 -1.2059
17022TIP3    H272482   3.120   5.997  16.558  0.6533 -0.4722  2.9525
17023TIP3   OH272483   2.397   3.744   1.303 -0.2768  0.1729  0.4347
17023TIP3    H172484   2.394   3.811   1.371  1.2486 -1.4491  2.2008
17023TIP3    H272485   2.356   3.667   1.343 -1.7948 -0.1077 -1.4678
17024TIP3   OH272486   2.542   6.674  14.280 -0.4143  0.3846  0.3609
17024TIP3    H172487   2.503   6.587  14.267 -0.6846  0.6182 -0.4489
17024TIP3    H272488   2.468   6.732  14.293 -0.1901  0.2834  2.4591
17025TIP3   OH272489   2.602   0.174  13.907  0.1630  0.0360  0.5700
17025TIP3    H172490   2.558   0.123  13.840 -0.7821  0.5156  0.8032
17025TIP3    H272491   2.605   0.263  13.871  0.8952  0.0199  0.5839
17026TIP3   OH272492   2.384   3.670   2.647  0.3219  0.8011  0.2650
17026TIP3    H172493   2.410   3.722   2.724 -0.4563 -0.9382  1.7974
17026TIP3    H272494   2.288   3.672   2.648  0.3059  0.7970 -0.7086
17027TIP3   OH272495   4.493   4.399  16.254  0.1632  0.0671  0.3027
17027TIP3    H172496   4.435   4.364  16.321 -1.2187  0.7105 -0.5173
17027TIP3    H272497   4.467   4.353  16.174  1.6472 -0.5395  0.1274
17028TIP3   OH272498   1.449   3.110  16.438  1.1145  0.4789 -0.0809
17028TIP3    H172499   1.525   3.120  16.496 -0.5732 -0.6289  2.5028
17028TIP3    H272500   1.436   3.015  16.431  0.6932  0.6163 -1.5420
17029TIP3   OH272501   5.506   2.967   4.937 -0.1538 -0.4150 -0.5015
17029TIP3    H172502   5.481   3.006   5.021  0.9341  0.8622 -0.7346
17029TIP3    H272503   5.542   3.040   4.887  1.2226 -1.5672 -1.2654
17030TIP3   OH272504   1.201   2.851   0.181  0.0916 -0.3582 -0.2559
17030TIP3    H172505   1.292   2.851   0.152  0.4210 -0.9998  0.7072
17030TIP3    H272506   1.150   2.877   0.104  1.1083  0.2825 -0.7282
17031TIP3   OH272507   1.839   1.398  15.867 -0.7553 -0.6454 -0.0896
17031TIP3    H172508   1.808   1.309  15.850 -0.1970 -1.1444  1.3578
17031TIP3    H272509   1.839   1.405  15.963  0.8817  0.2931 -0.1335
17032TIP3   OH272510   1.761   1.965  14.436  0.2236 -0.3962  0.0265
17032TIP3    H172511   1.715   1.951  14.518 -1.7222  0.4833 -0.8551
17032TIP3    H272512   1.743   2.057  14.414  1.5438 -0.3271 -0.8938
17033TIP3   OH272513   0.060   6.690   1.269 -0.2986  0.3477  0.2150
17033TIP3    H172514   0.095   6.650   1.189 -0.9538  0.2887 -0.0532
17033TIP3    H272515   0.127   6.753   1.295 -0.8817  1.7400 -1.4592
17034TIP3   OH272516   6.379   3.942   6.140 -0.1177  0.6737 -0.5366
17034TIP3    H172517   6.348   3.930   6.050  0.5114  0.4827 -0.7330
17034TIP3    H272518   6.382   4.037   6.152  0.1816  0.7059 -0.8549
17035TIP3   OH272519   0.561   4.274   2.953  0.1864  0.2030  0.0861
17035TIP3    H172520   0.638   4.298   2.903 -0.8891 -0.7194 -2.1111
17035TIP3    H272521   0.558   4.178   2.951 -1.6231  0.2365 -0.8985
17036TIP3   OH272522   3.169   2.438  11.906 -0.4523  0.1763 -0.2575
17036TIP3    H172523   3.106   2.403  11.969  0.8044  1.1019  1.6160
17036TIP3    H272524   3.233   2.368  11.894 -0.1201  0.3722  0.3419
17037TIP3   OH272525   3.754   5.995   6.135  0.1376 -0.8199 -0.0202
17037TIP3    H172526   3.683   6.039   6.088  1.3368  0.4775 -0.6797
17037TIP3    H272527   3.742   6.021   6.227 -0.4043 -0.8596 -0.0780
17038TIP3   OH272528   1.466   4.203   6.533  0.2741 -0.1878  0.4503
17038TIP3    H172529   1.528   4.146   6.578 -0.2609 -0.5412  0.7524
17038TIP3    H272530   1.395   4.216   6.596  0.0146  0.1634  0.0900
17039TIP3   OH272531   0.942   0.790  15.649 -0.0153  0.1333 -0.0780
17039TIP3    H172532   0.938   0.847  15.726  0.3946 -0.5795  0.4860
17039TIP3    H272533   0.975   0.846  15.579 -1.9743  1.2276 -0.1729
17040TIP3   OH272534   3.944   3.153   0.187  0.2021  0.4114 -0.2809
17040TIP3    H172535   3.965   3.171   0.096 -1.5031  0.0539 -0.7710
17040TIP3    H272536   3.964   3.235   0.233  1.5472  0.4382 -0.8573
17041TIP3   OH272537   3.722   1.540   0.318  0.0428  0.4159 -0.3491
17041TIP3    H172538   3.718   1.617   0.375 -1.2467  0.7381 -0.8550
17041TIP3    H272539   3.638   1.496   0.331  0.4526 -0.4782 -0.6674
17042TIP3   OH272540   3.218   1.728   1.596 -0.6262 -1.1205  0.5258
17042TIP3    H172541   3.168   1.782   1.656  2.1685  2.2367  0.1672
17042TIP3    H272542   3.171   1.734   1.513 -0.8672  0.0333  0.7318
17043TIP3   OH272543   5.200   2.601  15.716 -0.0907  0.2358 -0.5735
17043TIP3    H172544   5.206   2.598  15.811 -1.9594  0.2404 -0.4095
17043TIP3    H272545   5.288   2.625  15.687  1.4055 -2.7424  0.9642
17044TIP3   OH272546   6.414   3.520  11.371  0.3437 -0.7353 -0.7538
17044TIP3    H172547   6.412   3.448  11.308  0.2071 -2.2988  0.9500
17044TIP3    H272548   6.497   3.508  11.418  0.4291  0.3892 -0.5889
17045TIP3   OH272549   3.318   0.431  15.469 -0.1145  0.2932 -0.5861
17045TIP3    H172550   3.222   0.429  15.462 -0.2781 -1.5549  1.2737
17045TIP3    H272551   3.343   0.341  15.489  1.8340  1.0843  0.8769
17046TIP3   OH272552   4.562   0.777   3.914  0.0786 -0.3012  0.0789
17046TIP3    H172553   4.632   0.808   3.857  0.6283 -0.9418  0.3862
17046TIP3    H272554   4.553   0.685   3.892  0.2155 -0.5274  0.9253
17047TIP3   OH272555   6.579   3.108   2.088 -0.0930  0.0083  0.3303
17047TIP3    H172556   6.670   3.099   2.116 -0.9300  0.0611  3.4087
17047TIP3    H272557   6.532   3.136   2.166 -2.7976 -0.0045 -1.1533
17048TIP3   OH272558   5.625   1.805  14.830  0.4198  0.1691  0.1992
17048TIP3    H172559   5.691   1.824  14.897  2.2880  0.6759 -1.6735
17048TIP3    H272560   5.644   1.866  14.760 -1.9937  0.2051 -0.5125
17049TIP3   OH272561   3.096   2.424  15.566  0.1474  0.2354  0.0375
17049TIP3    H172562   3.137   2.338  15.552 -0.0656  0.2237 -0.5631
17049TIP3    H272563   3.095   2.435  15.661 -0.1494 -0.5892  0.1362
17050TIP3   OH272564   3.663   6.186   4.152  0.0646  0.4986  0.1299
17050TIP3    H172565   3.643   6.176   4.058 -1.6007  1.5830  0.3333
17050TIP3    H272566   3.599   6.130   4.196  1.1386 -0.3727  0.6458
17051TIP3   OH272567   1.619   0.421   5.318  0.1327 -0.4225 -0.4288
17051TIP3    H172568   1.592   0.512   5.304 -1.6920 -0.9433 -0.5573
17051TIP3    H272569   1.657   0.420   5.405 -1.8470  0.0990  0.5076
17052TIP3   OH272570   2.489   2.281   5.911  0.0695  0.3433 -0.6751
17052TIP3    H172571   2.439   2.230   5.847 -0.0581 -0.1269 -0.2116
17052TIP3    H272572   2.534   2.348   5.859  1.1092 -0.9113 -1.4542
17053TIP3   OH272573   0.462   0.131  14.420  0.3509 -0.0095 -0.1737
17053TIP3    H172574   0.426   0.051  14.459 -0.3116  0.2870 -0.1630
17053TIP3    H272575   0.553   0.134  14.451  0.3168 -0.6397  0.0045
17054TIP3   OH272576   1.312   0.409   1.387 -0.2731 -0.3072 -0.5453
17054TIP3    H172577   1.386   0.394   1.328  1.1782 -0.2569  1.1481
17054TIP3    H272578   1.316   0.503   1.406 -1.9688  0.0797 -1.8635
17055TIP3   OH272579   4.935   0.554   3.225 -0.1523  0.6821 -0.0920
17055TIP3    H172580   4.944   0.628   3.284 -1.7182  0.4801  0.4487
17055TIP3    H272581   4.863   0.502   3.262  0.2576 -0.5908 -0.9928
17056TIP3   OH272582   3.796   2.410  17.178 -0.3483 -0.1824 -0.5588
17056TIP3    H172583   3.710   2.420  17.135 -0.0847  0.7012 -0.9110
17056TIP3    H272584   3.859   2.421  17.107  0.1510  2.9157  0.1926
17057TIP3   OH272585   4.085   2.542  14.846 -0.6565  0.8498  0.2795
17057TIP3    H172586   4.162   2.591  14.872 -1.4921  2.2653  0.1945
17057TIP3    H272587   4.093   2.534  14.751 -0.4591  0.7114  0.3078
17058TIP3   OH272588   4.722   2.314  12.516 -0.3242 -0.0906 -0.5936
17058TIP3    H172589   4.676   2.373  12.456 -0.5601 -2.4679 -2.9880
17058TIP3    H272590   4.665   2.238  12.522 -0.1319 -0.0875  2.5350
17059TIP3   OH272591   5.062   4.939  17.323 -0.0111 -0.1230 -0.1711
17059TIP3    H172592   5.004   4.879  17.370  1.3205 -0.0494  1.6547
17059TIP3    H272593   5.056   4.910  17.231 -1.2378 -1.4851  0.2891
17060TIP3   OH272594   3.063   0.293   4.424  0.2975  0.6261  0.2340
17060TIP3    H172595   3.020   0.349   4.360 -0.8679 -0.0935  0.3641
17060TIP3    H272596   2.998   0.282   4.494  1.8321  2.1217  2.0112
17061TIP3   OH272597   3.956   3.988   5.782  0.0381 -0.2650  0.6011
17061TIP3    H172598   4.021   3.933   5.826 -0.9336 -2.1023 -0.1387
17061TIP3    H272599   3.941   4.061   5.842  1.0109 -1.0856  1.8782
17062TIP3   OH272600   6.029   3.477   2.900  0.0898 -1.1950 -0.2208
17062TIP3    H172601   6.019   3.459   2.994  1.2280  0.5695  0.2794
17062TIP3    H272602   6.053   3.569   2.895 -3.0700 -0.3405 -2.4704
17063TIP3   OH272603   4.863   6.061  17.142  0.0655 -0.2467  0.4965
17063TIP3    H172604   4.922   5.988  17.121  2.2720  1.4457  0.4096
17063TIP3    H272605   4.903   6.103  17.219 -1.3033  0.7022  0.7234
17064TIP3   OH272606   2.926   4.073   4.420  0.4265  0.0000  0.1799
17064TIP3    H172607   2.949   3.995   4.471 -0.3821 -1.5230 -1.6628
17064TIP3    H272608   2.990   4.076   4.349 -0.9988 -0.4761 -1.1887
17065TIP3   OH272609   4.122   5.615  14.314 -0.4692  0.7148  0.3192
17065TIP3    H172610   4.159   5.704  14.315 -1.2965  1.0747 -0.1593
17065TIP3    H272611   4.027   5.628  14.320 -0.5386 -0.1912  1.4360
17066TIP3   OH272612   0.573   2.571   4.945 -0.0809  0.3469 -0.8026
17066TIP3    H172613   0.649   2.584   4.888  1.0513 -0.0642  0.5462
17066TIP3    H272614   0.563   2.476   4.949 -0.6648  0.3977 -0.9363
17067TIP3   OH272615   2.784   2.094   2.638 -0.6719 -0.5377 -0.1154
17067TIP3    H172616   2.719   2.145   2.685 -1.5129  0.6956 -2.4391
17067TIP3    H272617   2.734   2.024   2.595 -0.8946  1.3517 -3.2232
17068TIP3   OH272618   0.029   3.808   1.974  0.3291 -0.2234  0.7308
17068TIP3    H172619  -0.015   3.870   2.032  1.1943  1.0862  0.0281
17068TIP3    H272620   0.105   3.779   2.023  1.6281  1.6645 -0.0718
17069TIP3   OH272621   6.231   4.726   6.788 -0.0119  0.1598 -0.4559
17069TIP3    H172622   6.139   4.747   6.801 -0.0068 -0.1800  0.1514
17069TIP3    H272623   6.262   4.792   6.725 -0.1227  1.7063  1.0185
17070TIP3   OH272624   5.732   1.508   3.861 -0.0250  0.0558 -0.0992
17070TIP3    H172625   5.761   1.471   3.777 -0.7471  0.0873 -0.3721
17070TIP3    H272626   5.670   1.444   3.896  0.5295 -0.1180  0.5805
17071TIP3   OH272627   2.794   1.066  11.712 -0.0980 -0.2515 -0.3914
17071TIP3    H172628   2.747   0.984  11.696  0.7257 -1.1491  1.4824
17071TIP3    H272629   2.844   1.081  11.632 -0.4594 -1.4263 -0.8621
17072TIP3   OH272630   6.379   4.801  16.349  0.4826  0.3824 -0.1122
17072TIP3    H172631   6.334   4.824  16.431  1.3098  0.5706  0.2969
17072TIP3    H272632   6.338   4.856  16.283  0.4071  0.8688  0.3321
17073TIP3   OH272633   1.947   2.775   5.449 -0.1897 -0.6326  0.0749
17073TIP3    H172634   1.947   2.864   5.482  1.4478 -0.6193  0.1421
17073TIP3    H272635   1.976   2.783   5.358 -1.3562 -0.9899 -0.3532
17074TIP3   OH272636   4.693   6.694   3.457 -0.3488  0.1675  0.2739
17074TIP3    H172637   4.696   6.638   3.534 -0.5484  1.4905  1.2972
17074TIP3    H272638   4.668   6.636   3.385 -0.5058 -1.0378  1.2737
17075TIP3   OH272639   0.739   2.527  16.322  0.0868  0.3225  0.1848
17075TIP3    H172640   0.689   2.470  16.263 -0.7341  2.0031 -0.8123
17075TIP3    H272641   0.686   2.529  16.402  1.0587 -1.7308  0.9645
17076TIP3   OH272642   0.920   4.528   3.082 -0.3410  0.0093 -0.0535
17076TIP3    H172643   0.924   4.469   3.157  0.0546  0.3772  0.2238
17076TIP3    H272644   0.827   4.540   3.064 -0.6904  2.9289  2.8060
17077TIP3   OH272645   5.155   1.169  12.628  0.1922  0.2062 -0.3028
17077TIP3    H172646   5.140   1.264  12.628  0.4266  0.2722  1.2105
17077TIP3    H272647   5.082   1.133  12.678 -0.6471 -0.5929 -2.0095
17078TIP3   OH272648   1.893   5.190   3.857  0.2962  0.5394 -0.5312
17078TIP3    H172649   1.800   5.206   3.873  0.4014 -1.2045  2.8224
17078TIP3    H272650   1.913   5.114   3.912  3.8052  1.1174 -0.8029
17079TIP3   OH272651   5.630   0.992  10.988  0.4545  0.6196 -0.5768
17079TIP3    H172652   5.603   0.920  10.931  1.2040  0.1408 -0.3438
17079TIP3    H272653   5.549   1.026  11.024  0.1897 -1.3034  0.7536
17080TIP3   OH272654   2.502   2.276  11.746 -0.8125 -0.2341 -0.2509
17080TIP3    H172655   2.558   2.280  11.669  2.2084 -0.1350  1.7989
17080TIP3    H272656   2.469   2.365  11.757 -1.6930 -0.3584 -1.6474
17081TIP3   OH272657   3.925   2.819   6.093 -0.4075 -0.1163  0.0034
17081TIP3    H172658   3.920   2.759   6.167  0.1010  0.3838  0.4513
17081TIP3    H272659   3.966   2.768   6.024  1.1489  0.0548  0.7621
17082TIP3   OH272660   4.673   4.627   1.826 -0.2668 -0.0281 -0.2736
17082TIP3    H172661   4.643   4.542   1.858 -1.1696  0.6924  0.8596
17082TIP3    H272662   4.621   4.643   1.747 -0.1100 -0.5199 -0.4754
17083TIP3   OH272663   1.136   3.249   1.741 -0.0317  0.2890 -0.6349
17083TIP3    H172664   1.148   3.183   1.809  0.8917  0.4224 -0.6500
17083TIP3    H272665   1.062   3.301   1.771 -0.0700 -0.0722 -0.0754
17084TIP3   OH272666   2.960   0.111   4.153  0.7614 -0.2494  0.1184
17084TIP3    H172667   2.885   0.106   4.094  0.9637  0.8019 -0.2409
17084TIP3    H272668   2.952   0.033   4.208 -0.8853  0.1328  0.4515
17085TIP3   OH272669   2.896   1.741   2.896 -0.5160 -0.0192  0.0659
17085TIP3    H172670   2.883   1.820   2.948 -0.0345 -0.1578  0.3974
17085TIP3    H272671   2.924   1.773   2.810 -3.1269  0.3202 -0.7699
17086TIP3   OH272672   3.473   2.694  11.672 -0.7623  0.4981 -0.3635
17086TIP3    H172673   3.459   2.737  11.587 -0.1372 -0.6547 -1.0699
17086TIP3    H272674   3.562   2.659  11.667 -1.3339 -1.0953  0.0662
17087TIP3   OH272675   1.110   0.233  12.641  0.2162  0.1444  0.0971
17087TIP3    H172676   1.093   0.225  12.735  3.0282 -0.0404  0.6954
17087TIP3    H272677   1.098   0.145  12.606 -0.1370  0.0590  0.4347
17088TIP3   OH272678   1.175   0.586  16.854 -0.2115 -0.0101 -0.1951
17088TIP3    H172679   1.106   0.571  16.789 -0.6069  1.3923 -0.1459
17088TIP3    H272680   1.256   0.561  16.810 -0.7458 -2.1003 -0.1089
17089TIP3   OH272681   4.754   5.605  14.268 -0.1980  0.0323  0.1401
17089TIP3    H172682   4.848   5.607  14.250 -0.3870  0.3306 -0.8788
17089TIP3    H272683   4.713   5.608  14.181 -1.1537  0.2997  0.5875
17090TIP3   OH272684   6.025   3.405   1.394  0.2580 -0.0354 -0.2178
17090TIP3    H172685   6.098   3.432   1.450  1.3427 -0.3520 -1.4566
17090TIP3    H272686   5.972   3.348   1.450  1.1255 -0.0557  0.5985
17091TIP3   OH272687   5.980   0.450   2.881 -0.5314  0.2743  0.0420
17091TIP3    H172688   5.950   0.394   2.953  0.9555  1.5883  1.7880
17091TIP3    H272689   6.005   0.389   2.812  0.1975 -1.2159  1.5424
17092TIP3   OH272690   2.542   6.133   3.437 -0.0433 -0.4440  0.2496
17092TIP3    H172691   2.494   6.188   3.499  1.4341  0.2220  0.8357
17092TIP3    H272692   2.527   6.174   3.352 -0.4650 -0.2171  0.4330
17093TIP3   OH272693   0.660   3.979  11.092 -0.4141 -0.3335 -0.5776
17093TIP3    H172694   0.656   4.030  11.173 -1.2422  0.0613 -0.8546
17093TIP3    H272695   0.747   3.995  11.058 -1.0267  1.8922 -1.2723
17094TIP3   OH272696   1.753   6.578   4.111 -0.3677 -0.5806 -0.6059
17094TIP3    H172697   1.714   6.528   4.183  0.7303 -0.6111 -0.0055
17094TIP3    H272698   1.759   6.516   4.039  3.1804 -2.1919  0.8228
17095TIP3   OH272699   3.906   1.861   3.289  0.1868  0.0679  0.2944
17095TIP3    H172700   3.844   1.790   3.308  1.4877 -1.0920  0.3628
17095TIP3    H272701   3.913   1.909   3.371 -0.6599  0.2629  0.2663
17096TIP3   OH272702   3.013   6.538   2.619 -0.0136 -0.1857 -0.1074
17096TIP3    H172703   3.052   6.601   2.680  2.2055 -0.6925 -0.9065
17096TIP3    H272704   3.035   6.572   2.532 -0.9821 -0.7673 -0.5952
17097TIP3   OH272705   1.995   4.322   0.256  0.2285 -0.3716 -0.7945
17097TIP3    H172706   1.949   4.387   0.310 -1.9764 -0.5703 -2.2858
17097TIP3    H272707   2.017   4.369   0.176  2.1656 -0.4738 -0.3717
17098TIP3   OH272708   6.650   0.440  14.116 -0.2906  0.2019 -0.3201
17098TIP3    H172709   6.744   0.457  14.119  0.0067 -1.0248 -1.7046
17098TIP3    H272710   6.616   0.502  14.052 -0.1926 -0.2603 -0.8264
17099TIP3   OH272711   2.579   0.962  16.499 -0.2146 -0.0662  0.6027
17099TIP3    H172712   2.500   0.919  16.466 -0.2369 -0.3185  0.9738
17099TIP3    H272713   2.569   1.053  16.473 -1.5479  0.3202  2.2473
17100TIP3   OH272714   4.853   5.168  12.959 -0.1910 -0.1089 -0.1474
17100TIP3    H172715   4.797   5.232  12.916 -1.5362 -1.5586 -0.6448
17100TIP3    H272716   4.878   5.106  12.890  0.8347 -0.3070  0.3762
17101TIP3   OH272717   5.703   4.140  14.488  0.2853 -0.2703 -0.5463
17101TIP3    H172718   5.727   4.052  14.519  0.9371  0.1710  0.2369
17101TIP3    H272719   5.735   4.143  14.398 -0.4723 -1.1168 -0.8641
17102TIP3   OH272720   2.193   4.262  17.013  0.3127  0.5489 -0.0951
17102TIP3    H172721   2.255   4.317  16.966  1.7985 -0.1536  0.9729
17102TIP3    H272722   2.111   4.312  17.013  1.3222  2.2569 -0.0695
17103TIP3   OH272723   3.552   2.607   1.372 -0.3111 -0.2276 -0.4599
17103TIP3    H172724   3.644   2.602   1.397 -0.7620  1.6004  2.0236
17103TIP3    H272725   3.544   2.692   1.327 -0.5198 -1.1352 -2.2151
17104TIP3   OH272726   3.690   1.551   2.036 -0.2979  0.1023 -0.0476
17104TIP3    H172727   3.744   1.471   2.035  0.7391  0.7734  0.2800
17104TIP3    H272728   3.658   1.559   1.946  0.0197 -0.4072 -0.2138
17105TIP3   OH272729   2.166   1.364  14.722  0.2276  0.2588  0.0750
17105TIP3    H172730   2.086   1.347  14.672 -0.1392  0.9858  0.4076
17105TIP3    H272731   2.179   1.284  14.774 -0.1388  0.0401 -0.1624
17106TIP3   OH272732   0.984   3.418   5.621  0.0429 -0.1895  0.7526
17106TIP3    H172733   0.969   3.337   5.572 -1.9110  1.0484 -0.9075
17106TIP3    H272734   0.901   3.435   5.665  0.2170  1.1446  0.6254
17107TIP3   OH272735   5.018   5.122   4.191  0.1815 -0.7570 -0.6387
17107TIP3    H172736   4.924   5.104   4.187 -0.2705  0.2806  2.4529
17107TIP3    H272737   5.035   5.136   4.285  3.3645 -0.5948 -1.1567
17108TIP3   OH272738   2.715   3.566   4.573 -0.4373 -0.3389  0.4848
17108TIP3    H172739   2.731   3.518   4.492 -1.7221  0.0818 -0.0514
17108TIP3    H272740   2.635   3.617   4.556 -0.0124  0.7581  1.5729
17109TIP3   OH272741   0.706   0.154  11.247  0.1324 -0.5775  0.4429
17109TIP3    H172742   0.793   0.194  11.252 -0.1183 -0.0164  0.3028
17109TIP3    H272743   0.696   0.107  11.330  1.3079 -2.1734 -0.2543
17110TIP3   OH272744   0.989   1.586  14.227 -0.2254 -0.4139 -0.1429
17110TIP3    H172745   0.987   1.599  14.322 -1.5979 -0.5986 -0.1220
17110TIP3    H272746   1.081   1.590  14.204 -0.0138  1.8791  0.8713
17111TIP3   OH272747   2.536   0.295   3.340 -0.8027 -0.1819  1.0170
17111TIP3    H172748   2.454   0.343   3.331 -1.4410 -0.8824  2.6872
17111TIP3    H272749   2.510   0.203   3.332  0.1484 -0.3690 -0.4369
17112TIP3   OH272750   2.024   0.921  14.628 -0.1138 -0.0726  0.1839
17112TIP3    H172751   1.958   0.904  14.695 -1.3708  1.9628 -0.4433
17112TIP3    H272752   2.004   0.859  14.558  1.5602 -2.6109  1.7944
17113TIP3   OH272753   6.675   2.484   4.669  0.7260 -0.1259 -0.6467
17113TIP3    H172754   6.622   2.410   4.638  1.1434 -0.4185 -0.6853
17113TIP3    H272755   6.757   2.476   4.619  1.1610 -0.2247  0.0614
17114TIP3   OH272756   6.685   6.389   3.874 -0.1037 -0.0871  0.0806
17114TIP3    H172757   6.650   6.473   3.904 -0.2768 -0.5110  1.1024
17114TIP3    H272758   6.762   6.412   3.822 -0.8267  0.7626 -0.6451
17115TIP3   OH272759   5.232   5.390  11.750  0.3496  0.2829 -0.4444
17115TIP3    H172760   5.280   5.330  11.693 -1.1062 -0.8441 -0.5585
17115TIP3    H272761   5.151   5.409  11.701  0.6372  2.1164 -0.2732
17116TIP3   OH272762   0.314   5.231   3.610  0.5817 -0.4715 -0.4258
17116TIP3    H172763   0.232   5.264   3.647  1.3768 -1.8777  2.9611
17116TIP3    H272764   0.366   5.310   3.593  0.1072  0.3143  1.4933
17117TIP3   OH272765   0.352   5.163  16.491  0.0589  0.5433 -0.0105
17117TIP3    H172766   0.352   5.092  16.555  0.0480 -0.3359 -0.9811
17117TIP3    H272767   0.296   5.230  16.531 -0.4348 -0.2332  0.6380
17118TIP3   OH272768   2.040   5.692  16.648  0.5041  0.2454 -0.2065
17118TIP3    H172769   1.944   5.688  16.653  0.5121 -0.2770 -0.3206
17118TIP3    H272770   2.063   5.779  16.680 -0.1502  1.2354 -2.2432
17119TIP3   OH272771   3.253   1.047   2.496 -0.4098  0.4699 -0.3903
17119TIP3    H172772   3.259   1.109   2.569  2.4902 -1.0474  0.8562
17119TIP3    H272773   3.332   1.063   2.445 -0.4193 -1.0707 -0.9478
17120TIP3   OH272774   5.841   1.588  11.192 -0.6262  0.2519  0.0879
17120TIP3    H172775   5.809   1.528  11.125  0.3870  0.6364 -0.7625
17120TIP3    H272776   5.810   1.674  11.164  0.7082  0.5600 -0.4867
17121TIP3   OH272777   1.921   4.472  13.875 -0.6317 -0.0893  0.2354
17121TIP3    H172778   2.010   4.506  13.861 -1.2394  2.5837  2.1133
17121TIP3    H272779   1.868   4.516  13.807 -1.4958  3.5208  2.9238
17122TIP3   OH272780   5.815   0.990   3.256 -0.5148 -0.5798 -0.2084
17122TIP3    H172781   5.884   0.939   3.299 -0.5875 -1.3504 -0.9799
17122TIP3    H272782   5.742   0.928   3.250 -1.5122  0.3941  1.1485
17123TIP3   OH272783   0.158   0.666   5.387  0.6171  0.1331 -0.2198
17123TIP3    H172784   0.213   0.598   5.426 -1.5942 -0.5603  1.9160
17123TIP3    H272785   0.162   0.739   5.449 -3.6160 -1.2950  2.1451
17124TIP3   OH272786   0.725   2.104   3.170  0.0451  0.1495 -0.0994
17124TIP3    H172787   0.688   2.191   3.151  1.6771  0.7089 -0.8796
17124TIP3    H272788   0.820   2.117   3.167  0.3211 -1.5747  0.2291
17125TIP3   OH272789   5.972   2.922  11.613  0.3437  0.2705 -0.1950
17125TIP3    H172790   5.892   2.930  11.560  0.2848 -1.3028 -0.3836
17125TIP3    H272791   5.964   2.838  11.657  1.1358  0.8372  1.1228
17126TIP3   OH272792   2.008   2.769   1.888 -0.2110 -0.1953  0.3853
17126TIP3    H172793   2.002   2.676   1.864 -0.9178  0.1851 -0.9961
17126TIP3    H272794   1.925   2.787   1.933 -2.2232  0.8000 -3.3303
17127TIP3   OH272795   6.385   0.013   1.635 -0.4115 -0.1353 -0.0499
17127TIP3    H172796   6.328  -0.062   1.651 -0.2014 -0.3967 -0.5246
17127TIP3    H272797   6.472  -0.017   1.663 -0.6698  0.6049  1.6604
17128TIP3   OH272798   3.676   2.133  11.698 -0.2710  0.3430  0.1852
17128TIP3    H172799   3.617   2.057  11.695 -1.3772  1.2172 -1.6689
17128TIP3    H272800   3.617   2.209  11.701  0.7908  1.1826  0.2609
17129TIP3   OH272801   6.519   6.741  13.448 -0.2610 -0.1023 -0.0874
17129TIP3    H172802   6.430   6.741  13.486 -0.5720 -0.0579 -0.8048
17129TIP3    H272803   6.525   6.824  13.401 -0.3028 -0.6720 -1.1081
17130TIP3   OH272804   4.241   0.583   5.511  0.2071  0.1240 -0.1281
17130TIP3    H172805   4.275   0.609   5.597  0.4903  0.6538 -0.3950
17130TIP3    H272806   4.193   0.502   5.528  1.0466 -0.2891  0.3746
17131TIP3   OH272807   0.134   0.064  15.385  0.2604 -0.1637 -0.0290
17131TIP3    H172808   0.101  -0.025  15.380  1.1301 -0.5752  1.1436
17131TIP3    H272809   0.085   0.105  15.456  1.2999 -0.3751  0.8378
17132TIP3   OH272810   4.152   5.872   2.881 -0.7237  0.2537  0.0553
17132TIP3    H172811   4.094   5.829   2.818 -1.2323  2.5983 -1.1841
17132TIP3    H272812   4.102   5.948   2.911  0.9829  1.2958  0.3617
17133TIP3   OH272813   1.461   1.577  16.607 -0.1273  0.0550 -0.3081
17133TIP3    H172814   1.473   1.672  16.615  1.8022 -0.2828  3.4988
17133TIP3    H272815   1.550   1.543  16.596 -0.5026 -1.3700  0.6955
17134TIP3   OH272816   6.181   3.445  17.363 -0.1217 -0.0561  0.3021
17134TIP3    H172817   6.106   3.449  17.304  0.6959  0.0709 -0.7562
17134TIP3    H272818   6.257   3.461  17.307  0.7215 -0.3939  1.3107
17135TIP3   OH272819   5.632   5.589   0.949  0.8058 -0.6537 -0.5403
17135TIP3    H172820   5.676   5.648   1.010  1.5521 -0.9409 -0.7917
17135TIP3    H272821   5.623   5.640   0.868 -0.7792 -0.0404 -0.0183
17136TIP3   OH272822   1.780   2.178   0.230  0.6126  0.5306  0.2742
17136TIP3    H172823   1.794   2.102   0.287 -0.1020  1.2436  1.4439
17136TIP3    H272824   1.865   2.193   0.189  0.5732 -1.3647 -0.6029
17137TIP3   OH272825   5.516   0.781   0.488  0.2356 -0.1706  0.2561
17137TIP3    H172826   5.576   0.710   0.462  2.1291  1.4983 -0.2219
17137TIP3    H272827   5.530   0.789   0.582  1.3820  0.6739  0.0438
17138TIP3   OH272828   4.489   1.750  15.603 -0.1952 -0.5759 -0.3545
17138TIP3    H172829   4.504   1.701  15.522 -1.1924 -1.1618 -0.1996
17138TIP3    H272830   4.576   1.759  15.642  0.6672  1.5780 -2.5198
17139TIP3   OH272831   6.030   1.836  11.874 -0.4385 -0.2858 -0.1092
17139TIP3    H172832   5.972   1.775  11.829 -0.9418 -0.9529  1.3924
17139TIP3    H272833   6.075   1.783  11.939  1.7191  0.2574 -1.0509
17140TIP3   OH272834   6.573   4.391  10.993  0.0872 -0.0288 -0.1822
17140TIP3    H172835   6.666   4.372  10.985  0.3671  0.5340  1.3967
17140TIP3    H272836   6.535   4.358  10.911  1.6484 -0.2791 -0.8510
17141TIP3   OH272837   1.712   2.593   2.881 -0.9909  1.0813 -0.1235
17141TIP3    H172838   1.650   2.662   2.907 -2.5469  0.0274 -0.8874
17141TIP3    H272839   1.675   2.556   2.801 -0.8934 -1.4480  0.9058
17142TIP3   OH272840   4.705   1.960  15.773  0.0205  0.4843  0.2521
17142TIP3    H172841   4.675   1.920  15.854 -0.1604  2.5008  1.2512
17142TIP3    H272842   4.800   1.970  15.786  0.2066 -0.4137 -0.3671
17143TIP3   OH272843   2.980   3.303  17.012 -0.0537  0.3800  0.0037
17143TIP3    H172844   3.059   3.303  16.957 -0.6098  1.5926 -0.8400
17143TIP3    H272845   2.915   3.350  16.960 -0.7431  1.1592  1.5129
17144TIP3   OH272846   2.550   1.952   5.086 -0.3472  0.1783  0.6139
17144TIP3    H172847   2.489   1.987   5.151 -1.2236  1.9160 -1.0337
17144TIP3    H272848   2.618   1.910   5.138 -2.2114 -0.6369  2.5612
17145TIP3   OH272849   0.659   5.408  11.892  0.0814  0.3123  0.2767
17145TIP3    H172850   0.658   5.392  11.986 -0.3170 -0.1720  0.1930
17145TIP3    H272851   0.575   5.451  11.874  0.3083  0.7288  0.1952
17146TIP3   OH272852   1.734   0.417   3.789 -1.1376 -0.2885 -0.5572
17146TIP3    H172853   1.675   0.341   3.792 -2.0145  0.3904  1.7414
17146TIP3    H272854   1.676   0.493   3.799  0.0203  0.4297  1.3711
17147TIP3   OH272855   3.729   3.174  13.545 -0.5490 -0.3563  0.1709
17147TIP3    H172856   3.782   3.173  13.624  0.1113  1.0074 -0.2051
17147TIP3    H272857   3.793   3.164  13.474 -1.3291 -3.9041 -0.2024
17148TIP3   OH272858   5.964   1.585  13.702 -0.5945 -0.3847  1.2033
17148TIP3    H172859   5.954   1.491  13.685  2.3711 -0.0971 -4.7494
17148TIP3    H272860   6.038   1.591  13.762  1.6259 -2.0639 -1.1482
17149TIP3   OH272861   6.716   2.993   0.651  0.5952 -0.2916 -0.3263
17149TIP3    H172862   6.677   2.980   0.564 -0.0111 -0.9750  0.0412
17149TIP3    H272863   6.685   2.919   0.703 -1.2767  1.4684  1.2524
17150TIP3   OH272864   4.748   2.511   4.246  0.4007 -0.9133  0.0528
17150TIP3    H172865   4.732   2.499   4.339  0.1863 -0.3603  0.0875
17150TIP3    H272866   4.684   2.577   4.218  0.9925 -0.4918 -0.3199
17151TIP3   OH272867   1.944   4.664   1.321  0.1445  0.0294  0.1229
17151TIP3    H172868   1.951   4.619   1.405 -2.4572 -0.3807  0.2045
17151TIP3    H272869   2.032   4.658   1.284  1.0972 -0.7594  2.2968
17152TIP3   OH272870   5.508   2.844   1.145 -0.0909  0.3230  0.5155
17152TIP3    H172871   5.574   2.910   1.168  0.5275 -0.4963  1.1725
17152TIP3    H272872   5.432   2.866   1.199  0.2581  0.2601  1.0389
17153TIP3   OH272873   0.647   4.462  13.721  0.9865  0.2780  0.2768
17153TIP3    H172874   0.733   4.437  13.756  0.2370 -2.7800  0.1264
17153TIP3    H272875   0.663   4.474  13.627  0.9438 -2.4275 -0.1593
17154TIP3   OH272876   5.647   0.878  14.872 -0.0527  0.2416  0.2461
17154TIP3    H172877   5.613   0.903  14.787 -2.2251  1.4604  1.3800
17154TIP3    H272878   5.695   0.955  14.903  0.8029 -0.2264  0.1119
17155TIP3   OH272879   0.434   1.488  11.213 -0.6031  0.3783  0.2691
17155TIP3    H172880   0.371   1.524  11.275  0.1338  1.5875  0.3627
17155TIP3    H272881   0.493   1.561  11.194  0.2894 -0.4900 -0.4307
17156TIP3   OH272882   5.204   2.793   0.150 -1.2975  0.2582  0.9258
17156TIP3    H172883   5.172   2.704   0.166 -1.3833  0.0225 -0.4441
17156TIP3    H272884   5.294   2.793   0.183 -1.4384 -0.1956  1.3274
17157TIP3   OH272885   0.595   4.413   6.259  0.5737  0.3470 -0.0897
17157TIP3    H172886   0.665   4.348   6.251  1.0909  0.6924  1.3320
17157TIP3    H272887   0.641   4.495   6.274 -0.1259  0.4522  1.6358
17158TIP3   OH272888   0.609   5.770  12.387  0.9003 -0.1156  0.2462
17158TIP3    H172889   0.558   5.697  12.423  1.7835 -1.0756 -0.3895
17158TIP3    H272890   0.607   5.836  12.455  0.3102 -0.8379  0.9572
17159TIP3   OH272891   5.964   4.929  16.206 -0.1358 -0.0501  0.2746
17159TIP3    H172892   5.915   4.875  16.144 -1.0543  2.2451 -1.1791
17159TIP3    H272893   5.900   4.949  16.275 -0.5007  0.8686 -0.3062
17160TIP3   OH272894   1.039   2.562  13.838 -0.3993 -0.2046 -0.5772
17160TIP3    H172895   1.015   2.608  13.758 -0.5557 -1.0496 -1.0308
17160TIP3    H272896   1.129   2.590  13.855 -1.1106  1.7240  0.2374
17161TIP3   OH272897   1.481   3.342  12.604  0.0786 -0.0997  0.2216
17161TIP3    H172898   1.429   3.323  12.682 -0.7643  0.6486 -0.1335
17161TIP3    H272899   1.543   3.409  12.633 -1.0581  1.1124 -0.0111
17162TIP3   OH272900   5.637   4.618   3.648 -0.5376  0.1944 -0.4251
17162TIP3    H172901   5.673   4.705   3.633  0.4876 -0.2820 -0.8296
17162TIP3    H272902   5.637   4.576   3.562 -0.1029 -0.5415 -0.0800
17163TIP3   OH272903   3.037   5.442   1.574  0.6545 -0.5330 -0.4169
17163TIP3    H172904   3.014   5.530   1.603  1.0134 -0.6234  0.1645
17163TIP3    H272905   3.133   5.440   1.575  0.6576 -0.7951 -0.8435
17164TIP3   OH272906   0.360   0.134  13.067 -0.0161 -0.3181  0.4176
17164TIP3    H172907   0.359   0.090  13.152  0.4721 -2.6377 -0.6829
17164TIP3    H272908   0.452   0.130  13.039 -0.0918  0.8270 -0.0188
17165TIP3   OH272909   1.746   1.973  14.736 -0.2690  0.3402  0.6646
17165TIP3    H172910   1.709   1.885  14.742  0.4710 -0.0571 -0.3283
17165TIP3    H272911   1.767   1.996  14.827  0.6679 -1.0312  0.8310
17166TIP3   OH272912   5.844   2.638   5.713  0.5823  0.6932 -0.1364
17166TIP3    H172913   5.830   2.693   5.635  5.4302  2.0569 -0.3440
17166TIP3    H272914   5.823   2.696   5.786  0.2578  0.9022 -0.3895
17167TIP3   OH272915   5.175   3.998   0.788 -0.2882  0.6960 -0.1991
17167TIP3    H172916   5.198   4.091   0.796 -0.5411  0.6725  0.8813
17167TIP3    H272917   5.080   3.997   0.783 -0.3141  0.4643  0.3080
17168TIP3   OH272918   1.473   2.018  16.665  0.8307 -0.0392 -0.7430
17168TIP3    H172919   1.451   1.932  16.628 -0.6694  0.7857 -1.9102
17168TIP3    H272920   1.392   2.069  16.656  1.3893  1.2026  0.8412
17169TIP3   OH272921   1.966   6.307  15.686 -0.2286  0.3048  0.0923
17169TIP3    H172922   1.972   6.369  15.613 -1.4723 -0.8999 -1.0972
17169TIP3    H272923   2.021   6.234  15.659 -0.3943  0.0154  0.5366
17170TIP3   OH272924   5.276   4.218   5.718  0.2730  0.3564 -0.7322
17170TIP3    H172925   5.343   4.275   5.755  0.2602  0.4426 -0.8417
17170TIP3    H272926   5.323   4.138   5.695  0.7379  1.0970 -2.5710
17171TIP3   OH272927   1.474   3.257  14.779 -0.5333  0.4163  0.9351
17171TIP3    H172928   1.531   3.225  14.708 -1.5810 -1.0188  0.6973
17171TIP3    H272929   1.426   3.330  14.741 -0.8718 -0.1596  0.2378
17172TIP3   OH272930   5.066   4.351  15.585 -0.5161 -0.1407 -0.3027
17172TIP3    H172931   5.160   4.356  15.572 -0.5071 -0.3072 -0.2966
17172TIP3    H272932   5.028   4.391  15.506 -0.4346  0.3137 -0.1188
17173TIP3   OH272933   4.718   3.014   4.941  0.0418  0.4079  0.3348
17173TIP3    H172934   4.712   2.991   4.848 -1.9941 -1.5146  0.8605
17173TIP3    H272935   4.703   2.932   4.987 -2.4612  1.8789  2.3777
17174TIP3   OH272936   3.426   0.645  15.329 -0.0698  0.1781  0.1743
17174TIP3    H172937   3.401   0.575  15.389  1.5426  0.5363  1.3325
17174TIP3    H272938   3.401   0.612  15.242 -1.7794 -0.6651  0.9242
17175TIP3   OH272939   3.948   2.570   3.240 -0.3869  0.1997  0.1786
17175TIP3    H172940   4.031   2.525   3.258 -0.0729 -1.3033 -4.0148
17175TIP3    H272941   3.973   2.662   3.233  0.5646  0.0103  0.7670
17176TIP3   OH272942   1.237   5.967  14.541 -0.6946  0.1220  0.3181
17176TIP3    H172943   1.238   5.891  14.600 -0.5461 -1.0821 -1.1757
17176TIP3    H272944   1.156   5.959  14.491 -0.1415  0.3057 -0.6424
17177TIP3   OH272945   2.243   3.798  13.893  0.7327 -0.0973  0.5317
17177TIP3    H172946   2.200   3.740  13.955  1.9261  0.7220  2.2051
17177TIP3    H272947   2.173   3.852  13.857  0.4160  2.9465  5.0100
17178TIP3   OH272948   3.728   5.456   3.720  0.0218 -0.0839  0.3099
17178TIP3    H172949   3.750   5.416   3.636  0.8442 -0.2472  0.6001
17178TIP3    H272950   3.782   5.410   3.784 -1.5458 -0.9027  1.1290
17179TIP3   OH272951   1.942   3.763   6.174 -0.2844  0.3353  0.5288
17179TIP3    H172952   1.998   3.777   6.251  0.6335 -1.9185  0.3348
17179TIP3    H272953   1.853   3.773   6.208  0.1237  0.4894  1.6208
17180TIP3   OH272954   0.623   1.173   5.865 -0.2739  0.2357  0.1150
17180TIP3    H172955   0.673   1.151   5.786 -0.4503  0.2592 -0.0044
17180TIP3    H272956   0.601   1.265   5.855 -0.5524  0.1642  0.0466
17181TIP3   OH272957   1.520   2.597   2.126 -0.4006  0.2217 -0.3858
17181TIP3    H172958   1.448   2.563   2.179 -0.3805  0.5643 -0.1314
17181TIP3    H272959   1.477   2.637   2.050 -0.3520 -1.5572 -1.3849
17182TIP3   OH272960   0.425   3.044  13.171  0.4672 -0.4182  0.4611
17182TIP3    H172961   0.500   3.018  13.225  0.8896  0.4243  0.3049
17182TIP3    H272962   0.439   2.999  13.087 -0.3378 -1.9476  1.1234
17183TIP3   OH272963   5.751   5.437  13.135 -0.3389 -0.3811 -0.6389
17183TIP3    H172964   5.703   5.477  13.062 -0.7311  0.9464  0.2878
17183TIP3    H272965   5.831   5.489  13.142 -0.5415 -0.1655  0.1798
17184TIP3   OH272966   5.765   4.806   0.693  0.0941  0.2595 -0.4983
17184TIP3    H172967   5.770   4.726   0.641 -1.6398 -0.0184 -0.3060
17184TIP3    H272968   5.773   4.777   0.784  0.5958  0.4370 -0.4870
17185TIP3   OH272969   3.866   5.608  12.698 -0.0767  0.7193 -0.2148
17185TIP3    H172970   3.935   5.663  12.737 -0.0976 -0.4253  1.5308
17185TIP3    H272971   3.911   5.529  12.670 -0.4637  0.5218 -0.2890
17186TIP3   OH272972   3.129   3.229   3.278 -0.0080 -0.6949 -0.2015
17186TIP3    H172973   3.087   3.171   3.341 -0.7359 -2.6908 -2.4149
17186TIP3    H272974   3.138   3.177   3.199  0.9710  1.6812 -1.7647
17187TIP3   OH272975   5.131   4.256   0.962  0.5656 -0.0973 -0.3022
17187TIP3    H172976   5.119   4.341   1.005  1.5615 -1.2523  2.4252
17187TIP3    H272977   5.079   4.195   1.014  1.0119 -1.4299 -1.3693
17188TIP3   OH272978   1.882   6.753  15.486 -0.0415 -0.1883 -0.3726
17188TIP3    H172979   1.908   6.662  15.502 -1.1670 -0.3488  0.7779
17188TIP3    H272980   1.943   6.805  15.538 -0.1641 -0.3659 -0.0497
17189TIP3   OH272981   5.286   5.281   2.311  0.0621  0.1192 -0.2891
17189TIP3    H172982   5.211   5.223   2.312  0.7912 -0.8436  0.0307
17189TIP3    H272983   5.311   5.290   2.403  1.1331 -0.6352 -0.4948
17190TIP3   OH272984   4.904   6.159  12.420 -0.6590 -0.4887 -0.1748
17190TIP3    H172985   4.861   6.142  12.336  0.8668  2.1700 -1.6089
17190TIP3    H272986   4.894   6.253  12.434  0.7287 -0.5562  1.7115
17191TIP3   OH272987   5.958   3.923   1.696  0.1610  0.0997  0.7165
17191TIP3    H172988   5.976   3.906   1.788  0.6740  0.5647  0.7057
17191TIP3    H272989   6.003   3.852   1.649 -0.9558 -0.7297  0.8672
17192TIP3   OH272990   6.698   0.447  16.146 -0.3777  0.2422  0.1426
17192TIP3    H172991   6.720   0.447  16.053 -1.8520 -0.7994 -0.2298
17192TIP3    H272992   6.642   0.523  16.158 -0.2845  0.3076  0.1681
17193TIP3   OH272993   2.960   2.361   2.094 -0.3044 -0.1232 -0.0658
17193TIP3    H172994   2.963   2.266   2.102 -1.4392  0.0002  4.1791
17193TIP3    H272995   3.039   2.392   2.139  0.9558  1.0524 -2.8428
17194TIP3   OH272996   4.807   0.549   5.344 -0.2277  0.0230  0.1620
17194TIP3    H172997   4.842   0.497   5.416 -0.3175  1.6988  1.4648
17194TIP3    H272998   4.882   0.597   5.309 -0.3432 -0.1476 -0.3396
17195TIP3   OH272999   1.562   0.770  11.928  0.6725 -0.2712  0.3386
17195TIP3    H173000   1.657   0.769  11.918  0.6827 -1.1190  0.4550
17195TIP3    H273001   1.539   0.863  11.934  1.8897 -0.0314  4.0018
17196TIP3   OH273002   4.358   6.530   2.438 -0.7235  0.3665  0.0554
17196TIP3    H173003   4.274   6.574   2.426 -1.7348 -0.7568  2.3141
17196TIP3    H273004   4.357   6.458   2.375 -0.6132  1.4147 -1.1828
17197TIP3   OH273005   1.448   0.054   5.953  0.0282 -0.3306 -0.0259
17197TIP3    H173006   1.378   0.119   5.948 -0.2051 -0.4852  0.9898
17197TIP3    H273007   1.445   0.022   6.043 -0.8128 -2.8126 -0.8551
17198TIP3   OH273008   5.435   0.193   6.407 -0.0167 -0.4994  0.4614
17198TIP3    H173009   5.443   0.277   6.362 -0.8244  0.3943  1.8687
17198TIP3    H273010   5.523   0.156   6.406  1.1855  1.9779  2.7084
17199TIP3   OH273011   0.204   3.652  11.244 -0.3148  0.1967 -0.1060
17199TIP3    H173012   0.297   3.672  11.237 -0.0723 -1.0819 -1.1386
17199TIP3    H273013   0.182   3.665  11.336  1.1893 -0.6774  0.4025
17200TIP3   OH273014   3.785   0.835   4.835 -0.3517  0.1596 -0.0007
17200TIP3    H173015   3.862   0.779   4.839  0.8631  1.7694  0.6236
17200TIP3    H273016   3.775   0.855   4.742  0.3805  0.4266 -0.0303
17201TIP3   OH273017   5.358   2.832   5.735 -0.1074  0.0332  0.4176
17201TIP3    H173018   5.387   2.743   5.717 -0.2693 -0.1268  0.9177
17201TIP3    H273019   5.437   2.885   5.728 -0.2431  0.0669 -1.2056
17202TIP3   OH273020   4.596   0.874   0.976 -0.0245  0.2652 -0.1549
17202TIP3    H173021   4.575   0.884   0.883 -1.6485 -0.2365  0.1204
17202TIP3    H273022   4.603   0.779   0.989 -0.3839  0.2978  0.3291
17203TIP3   OH273023   1.802   0.395  12.307  0.0963 -0.6115  0.4141
17203TIP3    H173024   1.889   0.420  12.276 -0.7442 -0.6404 -2.2728
17203TIP3    H273025   1.799   0.300  12.295 -0.2033 -0.6512  0.7965
17204TIP3   OH273026   4.410   5.014  16.548 -0.0619 -0.6362 -0.2570
17204TIP3    H173027   4.410   4.992  16.641  2.1675 -1.0661 -0.3099
17204TIP3    H273028   4.404   5.109  16.545  0.1010 -0.6089  0.3352
17205TIP3   OH273029   6.730   4.093  10.934 -0.9494  0.1988  0.0996
17205TIP3    H173030   6.749   4.056  11.020 -3.3268 -0.9669  0.1905
17205TIP3    H273031   6.816   4.100  10.891  0.1251 -0.4716  2.0431
17206TIP3   OH273032   2.086   5.739  11.563 -0.2554  0.1049  0.5348
17206TIP3    H173033   2.021   5.752  11.632  1.8286 -0.1654  2.7186
17206TIP3    H273034   2.081   5.646  11.541 -0.2420 -0.0420  1.1304
17207TIP3   OH273035   2.008   3.697  14.444 -0.1870  0.0570  0.4575
17207TIP3    H173036   1.917   3.721  14.459 -0.3156  0.6923 -1.1588
17207TIP3    H273037   2.006   3.602  14.430 -0.3559 -0.1873  1.9398
17208TIP3   OH273038   0.019   2.625  11.753  0.5082 -0.6939  0.2723
17208TIP3    H173039  -0.036   2.694  11.716  0.5024  0.1379  1.7625
17208TIP3    H273040   0.090   2.615  11.690  2.8922  3.7266  1.8157
17209TIP3   OH273041   6.697   2.164  13.709 -0.6486  0.3189 -0.3236
17209TIP3    H173042   6.709   2.252  13.744 -2.4652  0.4170  0.1730
17209TIP3    H273043   6.623   2.173  13.648  0.0828 -0.5905 -1.3808
17210TIP3   OH273044   6.020   6.263   2.881  0.0410 -0.0874 -0.3232
17210TIP3    H173045   5.931   6.230   2.893  0.4416 -1.4183 -0.7482
17210TIP3    H273046   6.029   6.334   2.944 -1.4670  0.3733 -0.5951
17211TIP3   OH273047   4.735   0.323  13.559  0.3256  0.2901  0.2621
17211TIP3    H173048   4.828   0.321  13.539  0.2476 -1.0187 -0.0566
17211TIP3    H273049   4.719   0.412  13.590  1.3043  1.1134 -1.4476
17212TIP3   OH273050   3.456   3.926   0.965 -0.4651  0.1981  0.3248
17212TIP3    H173051   3.485   3.908   0.875 -2.5935 -0.6064 -0.2561
17212TIP3    H273052   3.445   4.021   0.968 -0.0513  0.2657 -0.1477
17213TIP3   OH273053   6.173   4.575  16.772  0.3221 -0.0812 -0.0184
17213TIP3    H173054   6.205   4.654  16.729 -0.2319 -0.3549 -0.9753
17213TIP3    H273055   6.093   4.601  16.817  0.4435  0.0223  0.1373
17214TIP3   OH273056   0.436   5.474   0.693 -0.1962  0.2461 -0.5065
17214TIP3    H173057   0.356   5.429   0.719 -0.2235 -0.2955 -1.4671
17214TIP3    H273058   0.504   5.408   0.700  0.0531  0.5250 -0.3046
17215TIP3   OH273059   2.111   2.835  12.670  0.7020  0.4932 -0.3489
17215TIP3    H173060   2.165   2.809  12.744 -1.5363 -1.7106  0.6625
17215TIP3    H273061   2.055   2.904  12.703 -1.6886 -1.8336  0.7882
17216TIP3   OH273062   1.125   3.609   5.190 -0.4306 -0.0067 -0.5804
17216TIP3    H173063   1.167   3.620   5.105 -0.7426  0.9027 -0.6213
17216TIP3    H273064   1.069   3.686   5.200 -2.2575 -1.2675 -0.6238
17217TIP3   OH273065   3.962   3.758   4.164 -0.2883  0.6167  0.3109
17217TIP3    H173066   3.892   3.706   4.203 -1.6857  1.1006 -1.4049
17217TIP3    H273067   3.922   3.843   4.147  1.1366  1.3584  0.5148
17218TIP3   OH273068   1.425   4.884   2.950 -0.3445 -0.4550  0.1777
17218TIP3    H173069   1.428   4.887   2.854  0.6430  1.5477  0.2161
17218TIP3    H273070   1.363   4.813   2.970 -1.7800  0.0944 -1.9483
17219TIP3   OH273071   6.341   4.212   1.180  0.3512  0.2111  0.3536
17219TIP3    H173072   6.333   4.117   1.188 -0.5001  0.1576 -0.8072
17219TIP3    H273073   6.349   4.244   1.270  0.8147 -0.9622  0.7466
17220TIP3   OH273074   0.461   2.234   3.613 -0.2205 -0.3443  0.1625
17220TIP3    H173075   0.378   2.233   3.660  0.3130 -1.2142  1.1055
17220TIP3    H273076   0.443   2.184   3.533 -0.9772  0.6911 -0.3543
17221TIP3   OH273077   6.458   1.368   1.335  0.2834  0.4712  0.1476
17221TIP3    H173078   6.551   1.355   1.316  0.3118  1.0582 -0.1441
17221TIP3    H273079   6.451   1.461   1.358  0.0251  0.0878  1.7617
17222TIP3   OH273080   1.112   3.376   5.874 -0.2913 -0.0456 -0.4361
17222TIP3    H173081   1.092   3.460   5.914  0.6980  0.6603 -1.3597
17222TIP3    H273082   1.108   3.393   5.780  0.9277 -0.7540 -0.6362
17223TIP3   OH273083   3.903   2.492  14.119  0.6542 -0.5462  0.3512
17223TIP3    H173084   3.842   2.522  14.051 -0.0219 -0.0296  1.1631
17223TIP3    H273085   3.987   2.531  14.095  0.3238 -0.0073  0.0541
17224TIP3   OH273086   3.537   0.294   4.724 -0.3262  0.3130 -0.2749
17224TIP3    H173087   3.488   0.326   4.800  0.1115 -0.1502  0.2196
17224TIP3    H273088   3.528   0.362   4.658 -2.5265 -0.2078 -0.5965
17225TIP3   OH273089   1.825   5.777  15.362 -0.2751  0.1491 -0.3592
17225TIP3    H173090   1.767   5.835  15.312  0.2555  1.9612  1.0106
17225TIP3    H273091   1.796   5.786  15.453 -0.0459 -1.6433 -0.0591
17226TIP3   OH273092   1.289   1.090   0.006  0.0182 -0.0210  0.0742
17226TIP3    H173093   1.299   1.048   0.091 -1.0499 -1.8105 -0.6284
17226TIP3    H273094   1.197   1.075  -0.018  0.4656 -0.2133 -1.7141
17227TIP3   OH273095   3.476   2.694  13.741  0.2302 -0.0427 -0.3636
17227TIP3    H173096   3.519   2.657  13.664  1.8218 -0.3822  0.6254
17227TIP3    H273097   3.418   2.762  13.707  0.9089 -0.1872 -1.8513
17228TIP3   OH273098   3.652   5.357   2.167 -0.2859 -0.0851  0.1930
17228TIP3    H173099   3.621   5.445   2.143 -1.1245  0.0574  1.6994
17228TIP3    H273100   3.743   5.356   2.138  0.1661  1.7853  1.3533
17229TIP3   OH273101   1.423   6.509   1.083 -0.3885  0.6504  0.1082
17229TIP3    H173102   1.481   6.434   1.098 -0.5155  0.8508  1.7612
17229TIP3    H273103   1.341   6.485   1.125 -1.0269  1.0139 -0.8858
17230TIP3   OH273104   0.985   5.970  14.038  0.0525 -0.8300 -0.5865
17230TIP3    H173105   0.983   6.016  13.955  2.2644  0.6692  0.0881
17230TIP3    H273106   0.923   6.018  14.094 -1.4798 -1.8764 -1.3211
17231TIP3   OH273107   1.095   3.891   1.488 -0.5125 -0.7648 -0.5510
17231TIP3    H173108   1.152   3.820   1.516 -0.3378 -0.2856  0.3573
17231TIP3    H273109   1.024   3.848   1.440  0.0670 -1.4573 -0.7986
17232TIP3   OH273110   0.759   2.434  12.115  0.6262 -0.2777 -0.0466
17232TIP3    H173111   0.841   2.388  12.132  1.6091  1.2733 -0.4215
17232TIP3    H273112   0.778   2.492  12.041 -0.5969  0.6152  0.2938
17233TIP3   OH273113   1.972   0.339   2.420  0.3630  0.3826 -0.3349
17233TIP3    H173114   1.928   0.284   2.485  2.0391  0.6594  1.1276
17233TIP3    H273115   1.962   0.292   2.338 -0.0010 -1.0820  0.5041
17234TIP3   OH273116   5.426   0.567   3.067  0.4321 -0.7087 -0.6611
17234TIP3    H173117   5.453   0.505   3.135  1.3230  0.0242 -0.3197
17234TIP3    H273118   5.508   0.595   3.026  0.3582  2.0618  0.8197
17235TIP3   OH273119   2.771   0.785  10.787  0.2059  0.1034 -0.4493
17235TIP3    H173120   2.805   0.736  10.862 -0.6042 -0.2020 -0.2785
17235TIP3    H273121   2.848   0.830  10.752  1.3128 -2.3518 -1.4460
17236TIP3   OH273122   5.701   4.617  11.364 -0.0276  0.3152 -0.1349
17236TIP3    H173123   5.651   4.606  11.283  0.3192  0.7932 -0.4230
17236TIP3    H273124   5.642   4.588  11.433  0.1018 -1.2652 -0.6502
17237TIP3   OH273125   5.564   4.279   4.422 -0.0994 -0.6284  0.1802
17237TIP3    H173126   5.626   4.285   4.349  1.6590  1.6274  1.7020
17237TIP3    H273127   5.589   4.199   4.468 -0.9840 -1.8735 -1.4192
17238TIP3   OH273128   1.373   3.133   4.334 -0.0979  0.4926  0.1589
17238TIP3    H173129   1.289   3.095   4.309 -0.9087  2.0817  0.3056
17238TIP3    H273130   1.391   3.200   4.268  1.1087  0.1044  0.0732
17239TIP3   OH273131   0.778   5.662  16.290 -0.1464 -0.2220  0.2426
17239TIP3    H173132   0.735   5.635  16.371  1.5840  1.4478  1.8187
17239TIP3    H273133   0.860   5.613  16.289  0.8185  1.3130  0.6671
17240TIP3   OH273134   1.611   6.049   2.823  0.1641 -0.2386  0.0451
17240TIP3    H173135   1.524   6.073   2.790 -0.4267 -1.0990  0.9488
17240TIP3    H273136   1.623   5.958   2.799 -1.0965 -1.5425  3.6925
17241TIP3   OH273137   4.809   5.275   3.913  0.5294  0.4535  0.1872
17241TIP3    H173138   4.805   5.312   3.825  0.1597  1.4646  0.6140
17241TIP3    H273139   4.869   5.201   3.905  0.3713  0.4308 -0.9482
17242TIP3   OH273140   5.393   5.330   2.913  0.9912 -0.6734  0.0659
17242TIP3    H173141   5.303   5.306   2.894  1.0360 -0.4199 -0.4706
17242TIP3    H273142   5.409   5.410   2.863  1.5586 -0.7956  0.0386
17243TIP3   OH273143   5.036   4.740   4.685  0.5781 -0.0697  0.3240
17243TIP3    H173144   5.127   4.741   4.714  0.6647  0.0135  0.0509
17243TIP3    H273145   5.041   4.730   4.590  0.2713 -2.2304  0.4817
17244TIP3   OH273146   6.608   5.772  15.809  0.1371  0.1864  0.5242
17244TIP3    H173147   6.531   5.829  15.807 -0.4939 -0.6632 -0.7176
17244TIP3    H273148   6.599   5.722  15.890 -0.8000 -0.1179  0.2472
17245TIP3   OH273149   3.631   2.828  16.658  0.5065  0.9217 -0.9188
17245TIP3    H173150   3.557   2.834  16.598  0.4480  2.7121 -0.7252
17245TIP3    H273151   3.669   2.741  16.641 -0.1710  0.9392 -2.7415
17246TIP3   OH273152   4.214   2.246  15.663  0.2613 -0.8705 -0.2032
17246TIP3    H173153   4.143   2.198  15.706 -0.4026 -1.2870 -1.7215
17246TIP3    H273154   4.254   2.181  15.605 -0.1543  0.1914 -1.7208
17247TIP3   OH273155   1.362   3.999   0.282 -0.5192  0.8846  0.0120
17247TIP3    H173156   1.312   3.919   0.261  0.8682  0.7076 -3.1820
17247TIP3    H273157   1.299   4.070   0.268 -0.7821  0.5054 -0.8446
17248TIP3   OH273158   0.300   0.262   3.708  0.2253 -0.2351  0.4094
17248TIP3    H173159   0.381   0.287   3.753  0.5231  0.2639 -0.3819
17248TIP3    H273160   0.233   0.317   3.748  0.6379  0.8454 -0.3274
17249TIP3   OH273161   4.282   5.994  15.097 -0.3260  0.5092  0.4983
17249TIP3    H173162   4.325   5.911  15.119  0.9251  0.8772 -0.4160
17249TIP3    H273163   4.287   5.999  15.002  0.0454  1.8398  0.5683
17250TIP3   OH273164   5.551   4.709  12.742  0.1303 -0.0344 -0.6219
17250TIP3    H173165   5.536   4.801  12.765 -0.5615 -0.5515  1.2041
17250TIP3    H273166   5.625   4.683  12.798 -0.3531 -0.8571 -0.3628
17251TIP3   OH273167   1.971   5.851  12.551 -0.8458 -0.3875  0.3789
17251TIP3    H173168   2.038   5.800  12.596 -0.2678 -1.0800 -1.2122
17251TIP3    H273169   1.914   5.786  12.511  0.5584  0.0696 -2.6498
17252TIP3   OH273170   2.128   5.336  11.297  0.1460  0.2218  0.9361
17252TIP3    H173171   2.202   5.301  11.248  1.1768  2.5459  0.7176
17252TIP3    H273172   2.062   5.353  11.230  0.1214 -0.0919  0.8779
17253TIP3   OH273173   3.999   0.779  17.404 -0.6106  0.5828 -0.0783
17253TIP3    H173174   4.091   0.788  17.429 -0.4313 -0.1676 -0.4398
17253TIP3    H273175   3.956   0.855  17.443 -0.0132  0.4274  0.9233
17254TIP3   OH273176   1.699   1.274   0.138  0.4070  0.5112  0.0306
17254TIP3    H173177   1.670   1.362   0.163  0.0746  0.9235 -1.6512
17254TIP3    H273178   1.783   1.288   0.095 -0.4290  0.2548 -1.7810
17255TIP3   OH273179   0.935   5.945   4.141  0.5994  0.0091 -1.0447
17255TIP3    H173180   0.986   5.997   4.203  2.0303 -0.1758 -2.0025
17255TIP3    H273181   0.902   6.008   4.078  2.2917 -0.1658 -2.1769
17256TIP3   OH273182   5.738   2.624   2.259  0.0045 -0.3071 -0.3372
17256TIP3    H173183   5.687   2.693   2.300  0.8116  0.0176  0.1505
17256TIP3    H273184   5.749   2.652   2.168  0.2857  0.1738 -0.1528
17257TIP3   OH273185   0.920   0.284  15.387 -0.4037  0.1303  0.2764
17257TIP3    H173186   0.920   0.189  15.400 -1.9369 -0.1441 -1.3489
17257TIP3    H273187   0.904   0.320  15.474 -2.4358 -1.2458  0.5394
17258TIP3   OH273188   1.466   5.296  11.701 -0.1069 -0.2449  0.0682
17258TIP3    H173189   1.437   5.215  11.657 -1.6238  0.9194 -1.1925
17258TIP3    H273190   1.549   5.317  11.659 -0.2047 -0.6095 -0.3250
17259TIP3   OH273191   0.285   4.428  14.034  0.7906 -0.1549  0.4475
17259TIP3    H173192   0.331   4.434  13.950  0.4952  0.3794  0.3228
17259TIP3    H273193   0.314   4.505  14.083 -0.5438  0.6226  0.0752
17260TIP3   OH273194   1.463   3.449  11.320  0.0634  0.4128 -0.0495
17260TIP3    H173195   1.393   3.474  11.259 -0.6568  2.4500  1.4788
17260TIP3    H273196   1.448   3.356  11.337 -1.4370  0.4864 -0.8175
17261TIP3   OH273197   2.169   5.915  17.218 -0.5999 -0.0276  0.3117
17261TIP3    H173198   2.135   5.825  17.221 -0.9247  0.0640 -0.4206
17261TIP3    H273199   2.238   5.913  17.152 -2.0459  0.7166 -1.2882
17262TIP3   OH273200   3.330   2.100  11.436 -0.1335 -0.5530  0.1813
17262TIP3    H173201   3.326   2.069  11.346  0.8970 -0.9581  0.2623
17262TIP3    H273202   3.362   2.025  11.486  0.3113 -0.0145  0.7217
17263TIP3   OH273203   2.061   2.681  15.290  0.1287  0.1491  0.0604
17263TIP3    H173204   2.135   2.640  15.245 -0.9317 -1.8889  0.0588
17263TIP3    H273205   1.994   2.613  15.293 -1.5978  1.7766  0.4755
17264TIP3   OH273206   0.026   0.051  15.118 -0.3182  0.1415  0.3285
17264TIP3    H173207   0.120   0.050  15.098 -0.5296  0.1087 -0.7458
17264TIP3    H273208   0.020   0.101  15.199  0.6013  0.4042  0.2560
17265TIP3   OH273209   5.733   0.475   0.925  0.1324 -0.0541  0.7010
17265TIP3    H173210   5.647   0.517   0.922 -0.5230 -1.3535 -0.8032
17265TIP3    H273211   5.740   0.441   1.014 -0.9732  0.0078  0.8313
17266TIP3   OH273212   1.045   0.607  11.831 -0.8077 -0.3062 -0.3668
17266TIP3    H173213   0.988   0.657  11.772 -0.4416  1.1348  0.4455
17266TIP3    H273214   1.115   0.574  11.775  0.9268  3.1346 -0.4675
17267TIP3   OH273215   5.371   1.830  13.155  0.9578 -0.2361 -0.3427
17267TIP3    H173216   5.327   1.902  13.110  1.2537 -1.0559 -2.0464
17267TIP3    H273217   5.446   1.808  13.099  0.5539 -2.2158 -0.2042
17268TIP3   OH273218   3.781   6.039   0.851  0.5683 -0.2731  0.0087
17268TIP3    H173219   3.710   5.980   0.878 -1.5409  1.6557 -0.9183
17268TIP3    H273220   3.793   6.021   0.758  1.6398 -0.8899  0.2559
17269TIP3   OH273221   0.650   1.575  12.122 -0.4387  0.2998 -0.1573
17269TIP3    H173222   0.607   1.489  12.114 -1.0640  0.6952 -1.3148
17269TIP3    H273223   0.689   1.574  12.210  0.1098 -1.4101 -0.3777
17270TIP3   OH273224   4.986   1.110   3.147 -0.2413 -0.0727 -0.4881
17270TIP3    H173225   4.909   1.055   3.162 -1.1792  1.0384 -1.1669
17270TIP3    H273226   4.952   1.198   3.137  1.1489  0.4791 -0.5895
17271TIP3   OH273227   6.088   4.516  15.903 -0.0902  0.2440 -0.5280
17271TIP3    H173228   6.107   4.601  15.942  3.0414 -0.8609  0.7101
17271TIP3    H273229   6.169   4.492  15.859 -0.7872 -2.2249 -0.5956
17272TIP3   OH273230   1.782   6.028  16.087 -0.1081  0.1567  0.1692
17272TIP3    H173231   1.753   5.944  16.123  0.8113  0.1347  0.8883
17272TIP3    H273232   1.814   6.007  16.000  0.5679 -0.3294  0.5274
17273TIP3   OH273233   6.415   6.259  11.270  0.5218 -0.3784 -0.5325
17273TIP3    H173234   6.322   6.268  11.289  1.1419  3.0020  1.5226
17273TIP3    H273235   6.419   6.186  11.208 -3.3742 -1.1075 -0.1749
17274TIP3   OH273236   5.030   3.509   5.266 -0.2373 -0.0805  0.0550
17274TIP3    H173237   5.094   3.449   5.228 -2.6524 -2.7602 -0.1176
17274TIP3    H273238   5.018   3.479   5.356 -0.7309  0.8544  0.3160
17275TIP3   OH273239   0.440   0.125  16.682  0.2332 -0.1045 -0.0918
17275TIP3    H173240   0.493   0.155  16.756  0.6674 -0.4674 -0.2489
17275TIP3    H273241   0.499   0.128  16.607 -0.3244  0.6699 -0.5129
17276TIP3   OH273242   0.371   3.354  13.815 -0.2175  0.4554  0.4547
17276TIP3    H173243   0.357   3.357  13.909 -3.0532  0.9215  0.0976
17276TIP3    H273244   0.294   3.396  13.777 -2.4262 -5.0731 -2.3373
17277TIP3   OH273245   4.680   2.032  17.292 -0.2351  0.3568 -0.0709
17277TIP3    H173246   4.690   2.104  17.230  2.4073  2.4844  2.5484
17277TIP3    H273247   4.621   2.065  17.359 -0.2090 -0.4835  0.3843
17278TIP3   OH273248   0.108   0.598   4.539 -0.2327  0.4344 -0.5375
17278TIP3    H173249   0.112   0.600   4.635 -0.3719  0.9146 -0.5417
17278TIP3    H273250   0.021   0.565   4.519 -0.1990  0.3219 -0.4982
17279TIP3   OH273251   6.609   1.541   4.788 -0.6151 -0.3285 -0.5283
17279TIP3    H173252   6.571   1.470   4.839  0.1190 -0.2269  0.1784
17279TIP3    H273253   6.656   1.595   4.852 -0.1311  0.1062 -1.2242
17280TIP3   OH273254   0.356   6.487   4.973  0.0697  0.6468  0.8251
17280TIP3    H173255   0.303   6.415   4.940 -0.9419  1.8705 -0.3202
17280TIP3    H273256   0.387   6.456   5.058 -1.4722 -0.5860  0.9896
17281TIP3   OH273257   2.046   1.203   1.551  0.0607 -0.0698  0.0987
17281TIP3    H173258   2.105   1.222   1.478 -0.9832 -0.9822 -1.0240
17281TIP3    H273259   1.976   1.268   1.542  0.3887  0.4142  0.8751
17282TIP3   OH273260   2.335   0.832   3.020  0.2135  0.5449  0.4558
17282TIP3    H173261   2.356   0.739   3.016 -0.3545  0.3578  1.5585
17282TIP3    H273262   2.409   0.872   3.065 -0.2400  0.3836  1.3645
17283TIP3   OH273263   0.902   3.604  12.476  0.2604  0.1576 -0.1669
17283TIP3    H173264   0.834   3.540  12.455 -0.4972 -0.9732  4.5159
17283TIP3    H273265   0.979   3.576  12.427 -0.5948 -3.2251  0.1972
17284TIP3   OH273266   2.457   0.337  15.471  0.2778 -0.5037 -0.0699
17284TIP3    H173267   2.546   0.319  15.502  1.3861  0.8318 -2.1903
17284TIP3    H273268   2.469   0.402  15.402 -2.3801 -0.3027 -0.4448
17285TIP3   OH273269   3.746   5.971   5.245  1.1873 -0.0929 -0.2031
17285TIP3    H173270   3.832   5.971   5.203  0.6841 -0.1574 -1.2628
17285TIP3    H273271   3.742   6.054   5.291  1.9412 -0.2238  0.1237
17286TIP3   OH273272   2.136   5.849   4.063 -0.1322 -0.5209  0.6061
17286TIP3    H173273   2.151   5.943   4.073 -0.0183 -0.4625 -0.0474
17286TIP3    H273274   2.177   5.827   3.979 -1.3325 -0.8853  0.0859
17287TIP3   OH273275   3.485   5.962  13.657 -0.4414  0.0591 -0.5890
17287TIP3    H173276   3.468   6.050  13.621  0.6995  0.6849  0.3364
17287TIP3    H273277   3.463   5.903  13.585 -0.9496  1.1092 -1.3401
17288TIP3   OH273278   0.573   2.697   0.716  0.0922 -0.0374  0.0669
17288TIP3    H173279   0.640   2.687   0.648 -0.8347  0.2814 -0.9340
17288TIP3    H273280   0.605   2.645   0.789  0.8859 -0.8278 -0.8089
17289TIP3   OH273281   5.873   5.691  11.283  0.0489  0.3279  0.2942
17289TIP3    H173282   5.837   5.753  11.347 -0.6890  2.6795 -2.1917
17289TIP3    H273283   5.922   5.746  11.222 -1.8979 -1.2506 -2.9285
17290TIP3   OH273284   2.906   0.654  13.068 -0.2868 -0.6463  0.2566
17290TIP3    H173285   2.829   0.601  13.047 -0.3177 -0.6391  0.3511
17290TIP3    H273286   2.917   0.644  13.163 -0.0499 -0.8123  0.2145
17291TIP3   OH273287   1.754   0.778  12.217  0.3020 -0.3560  0.3202
17291TIP3    H173288   1.762   0.706  12.279  1.4831 -0.4407  0.0930
17291TIP3    H273289   1.774   0.739  12.132  2.0331  0.4401  0.3311
17292TIP3   OH273290   0.383   6.542   3.016  0.7075  0.6909  0.2382
17292TIP3    H173291   0.305   6.488   3.028 -0.3764  1.0599 -3.7695
17292TIP3    H273292   0.410   6.565   3.105 -1.6259 -2.3433  1.9470
17293TIP3   OH273293   4.153   1.877   5.692 -0.2901 -0.0579  0.2466
17293TIP3    H173294   4.228   1.824   5.718 -0.6543 -1.1022 -0.7550
17293TIP3    H273295   4.090   1.815   5.655  0.1158  1.2322 -2.9399
17294TIP3   OH273296   3.182   6.165  11.484  1.0354  0.6468  0.3283
17294TIP3    H173297   3.244   6.104  11.444 -0.3088  0.1751 -1.1093
17294TIP3    H273298   3.135   6.204  11.411 -0.0645  1.3210  1.3574
17295TIP3   OH273299   2.453   6.229   2.473 -0.1181 -0.2971 -0.2775
17295TIP3    H173300   2.389   6.158   2.482 -2.2942  1.7223  1.3669
17295TIP3    H273301   2.499   6.230   2.557  0.6830 -0.4318 -0.7060
17296TIP3   OH273302   6.242   5.675   5.651 -0.0132 -0.0619 -0.2067
17296TIP3    H173303   6.331   5.702   5.672  0.7105 -1.2912 -1.5080
17296TIP3    H273304   6.239   5.674   5.555 -0.8983 -1.5816 -0.1961
17297TIP3   OH273305   6.433   2.714  14.524  0.7287 -0.4172  0.0144
17297TIP3    H173306   6.418   2.777  14.453 -2.6589 -0.2492  0.6832
17297TIP3    H273307   6.375   2.640  14.503  1.2302 -1.3081  1.5483
17298TIP3   OH273308   0.004   3.117  11.418 -0.2886 -0.2827 -0.5940
17298TIP3    H173309  -0.062   3.086  11.357 -0.6304  0.8314 -0.8253
17298TIP3    H273310   0.028   3.204  11.385  0.6809 -0.3227 -0.0442
17299TIP3   OH273311   6.190   5.571  14.479  0.6295 -0.1356 -0.3996
17299TIP3    H173312   6.158   5.525  14.401 -0.9509  1.8416 -0.9779
17299TIP3    H273313   6.149   5.524  14.552  0.1351 -0.5064 -0.9032
17300TIP3   OH273314   4.272   4.151   2.490  0.1106 -0.1413  0.2265
17300TIP3    H173315   4.232   4.065   2.494 -3.0653  1.2273  0.9812
17300TIP3    H273316   4.235   4.198   2.565 -0.1871  2.5890 -1.4955
17301TIP3   OH273317   5.949   6.062  13.912 -0.2978  0.0742  0.2398
17301TIP3    H173318   5.880   6.027  13.856 -1.2671  0.7733  0.9580
17301TIP3    H273319   5.976   6.144  13.869 -0.2922  0.0737  0.2417
17302TIP3   OH273320   0.454   5.704  12.166  0.0102 -0.2912  0.2212
17302TIP3    H173321   0.464   5.617  12.205 -0.4907 -0.0365  0.9264
17302TIP3    H273322   0.491   5.764  12.231 -0.3749  0.0970  0.0820
17303TIP3   OH273323   1.539   1.169   2.422 -0.1030  0.4587  0.5416
17303TIP3    H173324   1.630   1.157   2.446  0.1885 -0.5514 -0.9247
17303TIP3    H273325   1.534   1.259   2.388  0.1723  0.7438  1.2327
17304TIP3   OH273326   0.402   4.917  12.169 -0.3451  0.0427 -0.8785
17304TIP3    H173327   0.344   4.846  12.198  1.5372 -1.0051  0.5643
17304TIP3    H273328   0.401   4.980  12.241  2.3009 -1.3089  0.5178
17305TIP3   OH273329   1.884   2.427  14.127  0.7472  0.8641  0.1109
17305TIP3    H173330   1.920   2.384  14.050  2.0211  1.2093  0.4845
17305TIP3    H273331   1.903   2.520  14.113 -0.9275  1.1918 -0.1454
17306TIP3   OH273332   2.757   3.903   2.922  0.3518  0.8558  0.1931
17306TIP3    H173333   2.777   3.810   2.928 -0.6975  0.5813 -0.3372
17306TIP3    H273334   2.794   3.941   3.002  1.9407  0.2247 -0.1917
17307TIP3   OH273335   4.687   1.276   4.778 -0.0736  0.8138 -0.2034
17307TIP3    H173336   4.662   1.185   4.798  1.5302  0.0645 -1.3703
17307TIP3    H273337   4.667   1.324   4.858 -1.3643 -0.4709  0.3017
17308TIP3   OH273338   1.190   4.378  16.153 -0.1478  0.0581 -0.2059
17308TIP3    H173339   1.248   4.445  16.189 -0.1303 -0.8578  1.5749
17308TIP3    H273340   1.248   4.309  16.123 -0.2111  0.4496 -1.3101
17309TIP3   OH273341   1.762   4.899   3.014 -0.0022 -0.4795 -0.5777
17309TIP3    H173342   1.808   4.815   3.004  0.8462 -0.1214  0.1142
17309TIP3    H273343   1.709   4.908   2.935  0.3518 -1.3923 -0.9287
17310TIP3   OH273344   3.314   1.746   0.537  0.4498  0.1806  0.0416
17310TIP3    H173345   3.294   1.656   0.562  0.7877 -0.3687 -1.5448
17310TIP3    H273346   3.404   1.743   0.507  0.3746  0.9922 -0.2853
17311TIP3   OH273347   1.743   0.177   0.846 -0.1140 -0.4926 -0.1602
17311TIP3    H173348   1.771   0.265   0.872  1.7652 -1.1013 -0.0196
17311TIP3    H273349   1.814   0.119   0.875 -0.5995 -1.8830 -1.5957
17312TIP3   OH273350   0.123   5.003   1.843  0.2136  0.1435 -0.0488
17312TIP3    H173351   0.185   4.983   1.773  0.7732  0.9278  0.2105
17312TIP3    H273352   0.143   4.940   1.912 -1.8450 -2.1816 -1.4068
17313TIP3   OH273353   0.764   1.475  11.594 -0.4015 -0.2515  0.1637
17313TIP3    H173354   0.831   1.504  11.656  0.2756 -0.8564 -0.2620
17313TIP3    H273355   0.688   1.453  11.648 -0.0431 -0.1579  0.7107
17314TIP3   OH273356   6.523   5.229  14.313  0.2119  0.4404  0.1954
17314TIP3    H173357   6.533   5.190  14.226  2.9946  1.0369  0.1632
17314TIP3    H273358   6.429   5.224  14.330 -0.0027 -3.6746 -0.9700
17315TIP3   OH273359   3.972   3.158  11.999  0.1260  0.6559  0.5167
17315TIP3    H173360   3.938   3.241  11.965 -0.2052  0.0410 -0.6834
17315TIP3    H273361   3.894   3.104  12.012  0.4057  0.2781  0.6148
17316TIP3   OH273362   6.417   5.992  12.252 -0.8657  0.1896 -0.4826
17316TIP3    H173363   6.506   5.960  12.238 -0.0478  1.3908  1.5495
17316TIP3    H273364   6.428   6.082  12.282 -2.6472 -0.1401  1.3961
17317TIP3   OH273365   4.544   3.014   2.936 -0.7830 -0.0810  0.4082
17317TIP3    H173366   4.542   2.994   2.842  2.8604  0.2312  0.1108
17317TIP3    H273367   4.553   2.929   2.979 -1.5685 -0.1570  0.4378
17318TIP3   OH273368   6.118   6.706  11.387 -0.0547  0.4080  0.1547
17318TIP3    H173369   6.128   6.783  11.331 -1.1469 -0.5792 -1.5008
17318TIP3    H273370   6.206   6.670  11.394  0.1266  0.5959 -0.9291
17319TIP3   OH273371   5.520   1.708  14.484 -0.1197 -0.4456 -0.0707
17319TIP3    H173372   5.472   1.725  14.566  0.4621  1.3851 -0.0663
17319TIP3    H273373   5.461   1.740  14.415  0.9919  1.7446 -0.0701
17320TIP3   OH273374   0.438   2.242   0.705 -0.2330 -0.5291  0.5415
17320TIP3    H173375   0.407   2.332   0.711 -1.0678 -0.7389 -0.4122
17320TIP3    H273376   0.482   2.226   0.789 -1.4081  0.2696  1.3328
17321TIP3   OH273377   3.745   0.608   5.263  1.1280  0.4383  0.0097
17321TIP3    H173378   3.714   0.664   5.193  0.9860  1.1742  0.6453
17321TIP3    H273379   3.840   0.607   5.252  1.4384  2.9655  1.4944
17322TIP3   OH273380   4.011   0.041   3.865 -0.9792  0.6417  0.0274
17322TIP3    H173381   4.003   0.090   3.782 -2.5597  1.0577  0.3871
17322TIP3    H273382   3.948   0.083   3.923 -0.2255  0.0480  1.3122
17323TIP3   OH273383   5.020   1.989  11.469 -0.1233 -0.1549  0.5834
17323TIP3    H173384   5.108   1.968  11.440  0.1037  2.1002 -0.6493
17323TIP3    H273385   4.964   1.923  11.428  1.0679 -2.8226  2.9597
17324TIP3   OH273386   4.856   2.777   2.920  0.0933  0.2553  0.0416
17324TIP3    H173387   4.919   2.789   2.991  0.6177  1.9506 -0.6461
17324TIP3    H273388   4.772   2.764   2.963  0.8186 -1.7346  0.9823
17325TIP3   OH273389   0.285   0.733  15.807  0.4021 -0.5086 -0.2665
17325TIP3    H173390   0.272   0.638  15.799 -0.0103 -0.4110 -0.7869
17325TIP3    H273391   0.268   0.751  15.899 -3.5140 -0.3625 -0.8797
17326TIP3   OH273392   0.727   5.545   4.162 -0.2073  0.4215 -0.1788
17326TIP3    H173393   0.778   5.533   4.082 -0.4882  1.4808 -0.5381
17326TIP3    H273394   0.794   5.556   4.230  0.0405 -1.3465 -0.0851
17327TIP3   OH273395   4.591   5.605  14.798 -0.3555  0.0760 -0.5704
17327TIP3    H173396   4.506   5.580  14.834 -0.9628 -0.9616 -2.5701
17327TIP3    H273397   4.588   5.701  14.794 -0.3805  0.2214  1.6971
17328TIP3   OH273398   5.861   1.758  14.048  0.4941  0.3531  0.6021
17328TIP3    H173399   5.932   1.804  14.003  1.9384 -0.5137  1.9015
17328TIP3    H273400   5.871   1.782  14.140 -1.2554  0.6253  0.7660
17329TIP3   OH273401   5.058   4.772   2.921  0.4760 -0.4014  0.7131
17329TIP3    H173402   4.992   4.796   2.986  0.3448 -0.3790  0.5738
17329TIP3    H273403   5.084   4.683   2.944  1.5897  0.1795  1.7495
17330TIP3   OH273404   2.414   0.086   0.958  0.3313 -0.7298 -0.0506
17330TIP3    H173405   2.359   0.154   0.999  1.9681  0.1355  0.8355
17330TIP3    H273406   2.374   0.071   0.873 -0.1452  1.3024 -0.2413
17331TIP3   OH273407   4.231   5.373  15.300  0.1645  0.4995  0.5496
17331TIP3    H173408   4.143   5.347  15.329 -0.2711 -0.7693 -1.7080
17331TIP3    H273409   4.271   5.409  15.379 -2.0402  0.2623  1.8965
17332TIP3   OH273410   1.085   1.953   4.186  0.9273 -0.3385  0.4179
17332TIP3    H173411   1.079   1.880   4.248  1.8681  0.7970  1.9094
17332TIP3    H273412   1.008   2.007   4.205  0.6614 -0.5180 -0.1336
17333TIP3   OH273413   3.544   0.002  14.498  0.2353 -0.4443  0.2321
17333TIP3    H173414   3.474  -0.064  14.500  0.6045 -0.8334  1.0316
17333TIP3    H273415   3.623  -0.048  14.478  0.6637 -0.4255  1.7272
17334TIP3   OH273416   2.337   6.310   1.587 -0.1917  0.0129 -0.3816
17334TIP3    H173417   2.375   6.226   1.611 -0.8912 -0.7759 -1.8824
17334TIP3    H273418   2.306   6.347   1.670 -0.6106 -1.5817  0.2049
17335TIP3   OH273419   2.816   2.354   5.644  0.1271  0.1825  0.1684
17335TIP3    H173420   2.857   2.428   5.599  0.9838 -0.8836 -0.8783
17335TIP3    H273421   2.887   2.290   5.655  0.0725  0.4961  3.4374
17336TIP3   OH273422   0.110   4.039   1.787  0.5925  0.2572  0.2320
17336TIP3    H173423   0.131   4.016   1.877 -0.7196  0.3501  0.5919
17336TIP3    H273424   0.118   3.958   1.738  1.7797  0.3036  0.3248
17337TIP3   OH273425   1.098   4.793  15.733  0.0293  0.3529 -0.0041
17337TIP3    H173426   1.098   4.875  15.684 -0.5082 -0.6240 -1.7112
17337TIP3    H273427   1.075   4.818  15.823  2.0870  2.3231  0.0475
17338TIP3   OH273428   4.712   5.152   2.392  0.2403 -0.1548 -0.1498
17338TIP3    H173429   4.750   5.182   2.309 -1.2377  2.2650 -0.0568
17338TIP3    H273430   4.727   5.057   2.392 -0.3989 -0.3875 -3.5524
17339TIP3   OH273431   0.056   3.149   1.068 -0.9501 -0.2590 -0.3086
17339TIP3    H173432   0.082   3.104   1.149 -1.3032  0.0664 -0.0094
17339TIP3    H273433  -0.029   3.189   1.090 -0.6750  0.4910 -0.5946
17340TIP3   OH273434   3.782   3.535   3.892 -0.0761  0.2195 -0.0988
17340TIP3    H173435   3.698   3.490   3.893  1.1938 -2.3257 -0.3121
17340TIP3    H273436   3.781   3.589   3.971 -0.5794 -2.4879  1.8658
17341TIP3   OH273437   2.623   2.384   0.538 -0.1679 -0.4291 -0.3395
17341TIP3    H173438   2.638   2.392   0.632 -0.8423  0.5565 -0.2945
17341TIP3    H273439   2.695   2.432   0.498 -1.1179  1.2007 -0.2258
17342TIP3   OH273440   5.905   1.126   1.152  0.6902 -0.0374 -0.7543
17342TIP3    H173441   5.993   1.164   1.165  0.6547 -0.4311  0.8590
17342TIP3    H273442   5.876   1.103   1.241 -1.2154  0.4430 -1.2055
17343TIP3   OH273443   6.614   6.406  14.229  0.6571 -0.0056  0.8133
17343TIP3    H173444   6.570   6.473  14.280  0.5056  0.4122  0.1447
17343TIP3    H273445   6.555   6.330  14.232 -0.3121  0.6653 -0.3865
17344TIP3   OH273446   0.014   2.498   3.888 -0.0359  0.0020  0.4547
17344TIP3    H173447  -0.019   2.588   3.884 -1.2062 -0.4318 -0.1567
17344TIP3    H273448   0.080   2.494   3.819  0.1161  0.4337  0.5765
17345TIP3   OH273449   1.824   3.904   3.891  0.2796  0.1169  0.0492
17345TIP3    H173450   1.909   3.915   3.849  0.0997 -1.4835 -0.8090
17345TIP3    H273451   1.764   3.883   3.820 -0.4650 -0.5638  0.8490
17346TIP3   OH273452   1.104   4.533   0.585  0.8165 -0.4594 -0.0155
17346TIP3    H173453   1.050   4.481   0.645  0.4874 -1.7832 -1.3939
17346TIP3    H273454   1.049   4.609   0.564  0.2403 -0.8614  0.0161
17347TIP3   OH273455   6.616   5.869   2.237 -0.7095 -0.3045 -0.0494
17347TIP3    H173456   6.691   5.929   2.232 -1.8945  1.1613 -1.2396
17347TIP3    H273457   6.541   5.926   2.253 -1.7521 -1.6132 -0.1450
17348TIP3   OH273458   5.503   6.439  13.417  0.7111  0.3727 -0.1090
17348TIP3    H173459   5.570   6.385  13.374  1.7107  0.2068  1.5976
17348TIP3    H273460   5.552   6.501  13.470 -0.3854  3.2226 -2.1631
17349TIP3   OH273461   5.102   5.524  14.009 -0.0401 -0.2818  0.5113
17349TIP3    H173462   5.077   5.568  13.928  0.8496  3.2894  1.9827
17349TIP3    H273463   5.197   5.512  14.002  0.1432  0.6387  1.2426
17350TIP3   OH273464   5.630   0.944  17.262 -0.1466  0.1833 -0.8101
17350TIP3    H173465   5.543   0.960  17.299 -0.6772  1.1586 -2.3584
17350TIP3    H273466   5.617   0.950  17.167  1.9146  2.0761 -1.0503
17351TIP3   OH273467   2.050   2.651   3.662  0.7834  0.4436 -0.3895
17351TIP3    H173468   1.977   2.612   3.615 -0.2219  2.9766 -1.0813
17351TIP3    H273469   2.017   2.669   3.750  0.6507  1.2935 -0.6031
17352TIP3   OH273470   1.155   6.076   3.554  0.3552 -0.3156 -0.0501
17352TIP3    H173471   1.082   6.094   3.494  1.1937 -1.0647 -1.3387
17352TIP3    H273472   1.233   6.081   3.499  1.3101  0.6916  1.3549
17353TIP3   OH273473   0.488   4.289   2.652  0.2282  0.3380 -0.4381
17353TIP3    H173474   0.431   4.212   2.656  0.5140 -0.0026 -2.1604
17353TIP3    H273475   0.574   4.256   2.680  0.2694  0.1138 -0.8257
17354TIP3   OH273476   5.141   2.285  13.973 -0.3455 -0.0250  0.4015
17354TIP3    H173477   5.087   2.224  14.023  0.8061 -2.0892 -0.7178
17354TIP3    H273478   5.088   2.307  13.896 -0.8936  0.7204  0.9673
17355TIP3   OH273479   4.924   2.368  13.797  0.1474  0.2977  0.3250
17355TIP3    H173480   4.937   2.458  13.768 -0.9452  0.4077  0.1451
17355TIP3    H273481   4.949   2.315  13.721  2.0068  0.3659  0.8367
17356TIP3   OH273482   3.449   0.391  15.020  0.0342  0.1853 -0.0219
17356TIP3    H173483   3.420   0.482  15.029 -0.0829 -0.0070  2.0789
17356TIP3    H273484   3.378   0.347  14.974 -0.5380  0.8580  0.2089
17357TIP3   OH273485   2.321   6.319   5.780  0.2692 -0.0651 -0.2348
17357TIP3    H173486   2.352   6.349   5.865  1.1404 -0.6288 -0.3377
17357TIP3    H273487   2.242   6.268   5.799 -0.5322  1.2465  0.0530
17358TIP3   OH273488   3.104   0.962   4.665 -0.3918  0.4623  0.2251
17358TIP3    H173489   3.143   0.899   4.726  0.4469  1.7652  1.0715
17358TIP3    H273490   3.116   0.922   4.579  1.2572  0.0085  0.6337
17359TIP3   OH273491   4.068   3.531  15.017 -0.0260  0.0593  0.0352
17359TIP3    H173492   4.131   3.473  14.974  1.6217 -1.0401  3.5397
17359TIP3    H273493   4.079   3.513  15.111 -3.2516  2.2851  1.0175
17360TIP3   OH273494   1.548   2.388  12.027  0.3405 -0.3154 -0.7592
17360TIP3    H173495   1.643   2.381  12.020  0.1929 -1.4089 -2.0841
17360TIP3    H273496   1.519   2.409  11.938 -0.8026 -2.3514 -0.9209
17361TIP3   OH273497   6.566   3.013  13.228  0.2088 -0.0419  0.8494
17361TIP3    H173498   6.548   2.930  13.272  0.1716 -0.4890  0.0032
17361TIP3    H273499   6.490   3.027  13.171  1.9034 -1.3893 -1.9315
17362TIP3   OH273500   2.654   3.925  14.102  0.3539  0.1390 -0.5488
17362TIP3    H173501   2.677   3.945  14.012 -0.3100  1.9330 -0.3522
17362TIP3    H273502   2.588   3.856  14.095  0.3609  0.2149 -1.4325
17363TIP3   OH273503   0.293   2.770  13.016  0.5718 -0.1003  0.1420
17363TIP3    H173504   0.225   2.838  13.026  1.2233  0.5409  0.2744
17363TIP3    H273505   0.244   2.688  13.019 -0.1237  0.3222  1.0025
17364TIP3   OH273506   4.368   4.652  13.415 -0.5040 -0.1649 -0.0233
17364TIP3    H173507   4.428   4.676  13.343 -1.1840  0.7645 -0.3007
17364TIP3    H273508   4.420   4.664  13.494 -0.7809  2.3700 -0.1355
17365TIP3   OH273509   6.166   2.339  14.124  0.1860 -0.2952  0.6469
17365TIP3    H173510   6.241   2.301  14.169  0.6831  0.2332  0.2871
17365TIP3    H273511   6.176   2.312  14.033  0.7157  0.9111  0.3254
17366TIP3   OH273512   3.342   5.898  12.200  0.0142  0.1117  0.2319
17366TIP3    H173513   3.436   5.884  12.187 -0.2982 -2.8585  0.4909
17366TIP3    H273514   3.320   5.970  12.140  2.1210 -0.2940 -1.1506
17367TIP3   OH273515   3.312   2.656  11.082  0.4205 -0.4342  0.2615
17367TIP3    H173516   3.289   2.748  11.070  1.9922 -0.0439 -0.0635
17367TIP3    H273517   3.247   2.608  11.030 -0.5688  0.4603  0.6351
17368TIP3   OH273518   1.061   5.660   3.434 -0.0111  0.2937  0.3164
17368TIP3    H173519   1.087   5.751   3.447  1.2127  0.1409 -0.7960
17368TIP3    H273520   1.012   5.661   3.351  2.7485 -0.4614 -1.4566
17369TIP3   OH273521   4.349   1.726  13.809  0.5344 -0.4206 -0.2075
17369TIP3    H173522   4.317   1.783  13.739  4.0621  0.5956 -1.1873
17369TIP3    H273523   4.273   1.671  13.832 -1.8174  1.7598 -2.1496
17370TIP3   OH273524   2.821   3.900   2.252  0.2655  0.3611  0.0292
17370TIP3    H173525   2.807   3.835   2.321  1.3488 -0.1273 -0.2042
17370TIP3    H273526   2.889   3.957   2.286 -2.0627  2.7028  1.1282
17371TIP3   OH273527   0.130   1.631   0.727 -0.1296 -0.0072  0.6219
17371TIP3    H173528   0.065   1.593   0.786 -0.3716  2.7573  2.3473
17371TIP3    H273529   0.090   1.714   0.699  2.7704  2.1344  2.2785
17372TIP3   OH273530   3.522   1.171  16.294 -0.3002  0.0603 -0.5748
17372TIP3    H173531   3.525   1.076  16.297 -1.8433  0.0141  1.1235
17372TIP3    H273532   3.442   1.191  16.245  0.6300  0.5405 -1.9761
17373TIP3   OH273533   1.537   3.616   3.219 -0.0143  0.4577  0.2556
17373TIP3    H173534   1.613   3.576   3.178  0.2154  2.3005 -1.2748
17373TIP3    H273535   1.463   3.561   3.193  0.4151  0.3793 -0.8293
17374TIP3   OH273536   4.104   4.569   3.520 -0.4297 -0.1144  0.3779
17374TIP3    H173537   4.134   4.519   3.444  0.1068 -0.3449  0.7384
17374TIP3    H273538   4.173   4.558   3.585 -0.3661  1.0123  0.5059
17375TIP3   OH273539   2.348   1.013  14.959  0.5764  0.0869  0.4007
17375TIP3    H173540   2.318   1.040  15.045 -0.3052  1.8707 -0.4261
17375TIP3    H273541   2.294   1.062  14.897  0.7560 -1.5953 -1.2035
17376TIP3   OH273542   6.379   0.033  12.621 -0.2967 -0.2023 -0.3208
17376TIP3    H173543   6.382   0.096  12.693  0.0885  0.4579 -0.8929
17376TIP3    H273544   6.470   0.010  12.605 -0.5283 -2.0197  0.8014
17377TIP3   OH273545   2.332   5.174  14.048  0.3538  0.1094 -0.2379
17377TIP3    H173546   2.269   5.204  13.982 -0.4030 -1.6238 -0.3460
17377TIP3    H273547   2.416   5.176  14.002  0.1546  0.8860 -0.5998
17378TIP3   OH273548   1.145   6.386  13.874 -0.3428  0.0257  0.0529
17378TIP3    H173549   1.229   6.342  13.886 -1.9785 -4.0165 -1.4011
17378TIP3    H273550   1.167   6.469  13.831  2.9361 -0.0593  1.2740
17379TIP3   OH273551   1.354   6.299  14.159 -0.0069 -0.4314 -0.2829
17379TIP3    H173552   1.319   6.249  14.233  0.3002 -3.0674 -1.7706
17379TIP3    H273553   1.413   6.238  14.115  0.5342  1.3481 -2.1806
17380TIP3   OH273554   1.536   1.759   0.693  0.6669 -0.3475 -0.1696
17380TIP3    H173555   1.591   1.796   0.761 -1.9510  1.1183  1.3305
17380TIP3    H273556   1.516   1.834   0.635 -0.2095 -0.6637 -0.2996
17381TIP3   OH273557   0.951   4.351  14.804 -0.0952 -0.1809  0.1421
17381TIP3    H173558   0.989   4.399  14.730  0.3909 -0.1347  0.4135
17381TIP3    H273559   0.984   4.396  14.881 -0.5175 -0.2931  0.3881
17382TIP3   OH273560   0.533   1.894   5.594 -0.1635 -0.7063  0.9233
17382TIP3    H173561   0.551   1.814   5.545  2.0320 -0.6270  1.5135
17382TIP3    H273562   0.444   1.881   5.628 -0.7883 -1.8164 -0.9634
17383TIP3   OH273563   5.777   3.829  14.350  0.2462  0.1065 -0.0930
17383TIP3    H173564   5.832   3.810  14.274  2.4387  0.9292  1.1994
17383TIP3    H273565   5.838   3.840  14.422 -1.4711  2.5823  1.1539
17384TIP3   OH273566   2.827   5.240   3.324 -0.3401 -0.2020 -0.1851
17384TIP3    H173567   2.893   5.181   3.358  0.0266  0.6837  0.6926
17384TIP3    H273568   2.860   5.328   3.345 -1.1577  0.2975 -0.9034
17385TIP3   OH273569   2.527   5.452   0.802  0.1921  0.4445 -0.2112
17385TIP3    H173570   2.482   5.526   0.762  0.5434  0.1925 -1.1070
17385TIP3    H273571   2.585   5.491   0.867 -0.6519  0.8354  0.3139
17386TIP3   OH273572   4.478   6.058   0.888  0.5933  0.1870 -0.2766
17386TIP3    H173573   4.520   6.093   0.810 -1.1887 -1.6301 -2.1685
17386TIP3    H273574   4.389   6.095   0.886 -0.0009 -1.1800 -0.0800
17387TIP3   OH273575   5.657   4.200  11.160 -0.1310  0.5041 -0.0867
17387TIP3    H173576   5.728   4.155  11.114 -1.5227 -2.4673  0.4438
17387TIP3    H273577   5.674   4.293  11.145  3.2367 -0.1084 -0.8409
17388TIP3   OH273578   0.735   3.693  13.688  0.2263 -0.9132  0.1768
17388TIP3    H173579   0.729   3.598  13.695 -1.0743 -0.7864  1.0291
17388TIP3    H273580   0.770   3.721  13.772 -0.8907 -0.5425  0.5402
17389TIP3   OH273581   6.611   2.068  16.171  0.3673 -0.2338  0.0785
17389TIP3    H173582   6.573   2.151  16.142  0.2498 -0.1231  0.5348
17389TIP3    H273583   6.690   2.058  16.118 -0.8101 -0.9793 -1.6184
17390TIP3   OH273584   3.182   0.048  13.418 -0.3945 -0.0515 -0.2210
17390TIP3    H173585   3.170  -0.046  13.431 -0.2165 -0.2600 -1.4512
17390TIP3    H273586   3.174   0.061  13.323 -3.6149  1.6345  0.1482
17391TIP3   OH273587   0.299   5.183  15.429 -0.0073 -0.5231  0.6424
17391TIP3    H173588   0.266   5.264  15.390  2.1094  0.1709  0.1751
17391TIP3    H273589   0.315   5.205  15.521  0.0789 -0.5779  0.6401
17392TIP3   OH273590   2.579   3.742  16.017 -0.0037  0.0969  0.4397
17392TIP3    H173591   2.671   3.765  16.030  0.4685 -1.4210  0.0236
17392TIP3    H273592   2.575   3.707  15.928 -1.0759  0.4915  0.3101
17393TIP3   OH273593   1.041   5.642  15.419 -0.3037  0.0326 -0.4239
17393TIP3    H173594   1.010   5.553  15.400 -1.0081  0.6432 -2.2693
17393TIP3    H273595   1.128   5.646  15.379 -2.0769  1.5530 -4.5994
17394TIP3   OH273596   3.208   5.367  17.045 -0.6688  0.1645  1.1781
17394TIP3    H173597   3.140   5.423  17.009 -2.4454 -1.6805  1.4986
17394TIP3    H273598   3.210   5.291  16.986  1.0104  0.0773  1.2848
17395TIP3   OH273599   0.202   4.260  10.529  0.0898 -0.9953 -0.3845
17395TIP3    H173600   0.264   4.263  10.603 -2.0618 -1.1582  1.5377
17395TIP3    H273601   0.131   4.204  10.560 -2.4677  1.5497 -1.2591
17396TIP3   OH273602   3.199   3.585  14.068 -0.3142  0.2401 -0.2631
17396TIP3    H173603   3.261   3.657  14.078  2.3774 -1.8181 -0.9894
17396TIP3    H273604   3.204   3.538  14.151 -1.6009  0.5184 -0.0113
17397TIP3   OH273605   2.771   0.213  15.015 -0.3345 -0.2390 -0.7221
17397TIP3    H173606   2.784   0.124  14.983  2.5560 -0.4701  0.7855
17397TIP3    H273607   2.753   0.264  14.936 -0.2750 -1.8524 -1.8363
17398TIP3   OH273608   6.496   0.070   0.819  0.4879 -0.1409  0.4505
17398TIP3    H173609   6.535   0.035   0.900 -1.2368 -2.9366  0.1932
17398TIP3    H273610   6.540   0.022   0.749  1.3803  1.6777 -0.2827
17399TIP3   OH273611   2.314   5.053  15.899  0.2645 -0.1310  1.0515
17399TIP3    H173612   2.256   5.109  15.951  0.1442  0.6526  0.0889
17399TIP3    H273613   2.402   5.083  15.922  0.2582 -0.5528  1.6507
17400TIP3   OH273614   0.783   3.489   5.794 -0.6838 -0.2991 -0.3973
17400TIP3    H173615   0.697   3.529   5.809  0.1090  1.3156  0.0360
17400TIP3    H273616   0.843   3.540   5.848  0.8086 -0.3679 -1.9090
17401TIP3   OH273617   1.343   6.743  11.725  0.2011  0.0229 -0.0396
17401TIP3    H173618   1.275   6.743  11.793 -0.6323 -0.0357 -0.8513
17401TIP3    H273619   1.390   6.660  11.738 -0.6050 -0.4645 -0.1574
17402TIP3   OH273620   1.835   4.288  14.620 -0.0220  0.1978  0.2113
17402TIP3    H173621   1.871   4.322  14.702  0.2444 -1.5970  0.8932
17402TIP3    H273622   1.775   4.218  14.647 -0.8517  0.3748 -1.0907
17403TIP3   OH273623   1.775   0.224  16.722  0.0279  0.1884  0.3542
17403TIP3    H173624   1.855   0.258  16.761  0.7990 -0.4162 -0.6642
17403TIP3    H273625   1.802   0.147  16.673 -0.7999  1.2078 -1.8240
17404TIP3   OH273626   1.663   1.744   1.477 -0.1705  0.3383  0.3886
17404TIP3    H173627   1.686   1.803   1.406 -0.5007 -1.0201 -0.9130
17404TIP3    H273628   1.607   1.678   1.436 -0.3469 -0.5056  1.9039
17405TIP3   OH273629   0.912   0.475  17.193  0.1230 -0.1704 -0.2686
17405TIP3    H173630   0.822   0.485  17.223  0.5306 -0.5841  1.1865
17405TIP3    H273631   0.929   0.553  17.140  0.0649  1.8810  2.5053
17406TIP3   OH273632   4.937   5.045  10.898 -0.2918 -0.3124 -1.0945
17406TIP3    H173633   4.880   5.072  10.827 -0.0643 -0.6905 -1.4255
17406TIP3    H273634   4.945   4.950  10.887 -0.8679 -0.4929 -0.1166
17407TIP3   OH273635   4.228   0.697  13.891  0.1231 -0.2122 -0.2920
17407TIP3    H173636   4.309   0.647  13.889  0.1541 -0.2600  1.1547
17407TIP3    H273637   4.241   0.765  13.826  1.0417 -0.6409 -0.5818
17408TIP3   OH273638   1.494   4.957  16.944  0.2570  0.0718  0.3987
17408TIP3    H173639   1.560   4.917  16.888 -0.9020 -1.8645  0.3255
17408TIP3    H273640   1.526   4.943  17.033  0.8597  0.8896  0.3266
17409TIP3   OH273641   5.432   3.273   6.458  0.0391 -0.1747  0.2229
17409TIP3    H173642   5.367   3.336   6.426  0.2616  0.7170  1.4753
17409TIP3    H273643   5.397   3.188   6.432 -0.0162  0.4483 -1.9573
17410TIP3   OH273644   6.210   4.545   5.792  0.0662  0.2178  0.0216
17410TIP3    H173645   6.282   4.606   5.778 -0.0901  0.1915 -1.0305
17410TIP3    H273646   6.131   4.596   5.771 -0.2689  0.3629  1.5378
17411TIP3   OH273647   0.556   5.912   0.936 -0.0334 -0.0101  0.3137
17411TIP3    H173648   0.519   5.845   0.878 -1.2815  0.8763  0.0472
17411TIP3    H273649   0.562   5.869   1.021  2.5535 -1.5823 -0.5713
17412TIP3   OH273650   3.215   4.180   1.112 -0.0106 -0.1872  0.0819
17412TIP3    H173651   3.149   4.244   1.136 -0.2424 -0.5787  0.5092
17412TIP3    H273652   3.275   4.227   1.054 -0.1936  0.4041  0.3658
17413TIP3   OH273653   4.340   6.027  16.721  0.2685 -0.3635 -0.1713
17413TIP3    H173654   4.384   5.949  16.753 -2.0020 -1.6087  0.0853
17413TIP3    H273655   4.313   6.074  16.800 -1.4628 -1.1789 -0.2352
17414TIP3   OH273656   5.086   1.898   0.958 -0.1761  0.7609 -0.2597
17414TIP3    H173657   5.039   1.963   1.010 -1.9719  1.4823 -2.5787
17414TIP3    H273658   5.043   1.902   0.872  1.7323 -1.2913 -1.3914
17415TIP3   OH273659   1.378   4.140   0.016 -0.1232 -0.0970 -0.2919
17415TIP3    H173660   1.342   4.124  -0.071 -1.0915  1.3431 -0.1937
17415TIP3    H273661   1.331   4.080   0.073 -0.3643 -0.1958 -0.5940
17416TIP3   OH273662   3.715   2.804  12.929 -0.4475  0.0789  0.8559
17416TIP3    H173663   3.787   2.742  12.923 -0.7454 -0.2523  0.6130
17416TIP3    H273664   3.693   2.806  13.022 -1.4978 -1.4457  0.6770
17417TIP3   OH273665   1.279   2.182   3.509  0.2230  0.1384  0.5572
17417TIP3    H173666   1.197   2.160   3.464  0.5031  0.3078 -0.0364
17417TIP3    H273667   1.348   2.147   3.453  0.5761  0.3472  0.8569
17418TIP3   OH273668   1.940   0.216   3.216 -0.1772 -0.1486 -0.4926
17418TIP3    H173669   1.897   0.202   3.300  0.1153 -1.3350 -0.5233
17418TIP3    H273670   1.872   0.196   3.151 -0.0116 -0.5792 -0.5365
17419TIP3   OH273671   6.652   1.715   1.022  0.1961 -0.5713 -0.0744
17419TIP3    H173672   6.669   1.649   0.956 -0.9392  0.8284 -1.8797
17419TIP3    H273673   6.733   1.765   1.029  0.6349 -1.3375  0.3315
17420TIP3   OH273674   4.136   4.291   3.409 -0.1067 -0.5442  0.5035
17420TIP3    H173675   4.177   4.205   3.402  2.5093  0.6770 -1.0150
17420TIP3    H273676   4.122   4.304   3.503  1.1977 -1.8944  0.9220
17421TIP3   OH273677   2.732   4.778   2.908  0.0386  0.0353 -0.3754
17421TIP3    H173678   2.773   4.848   2.958  0.9123 -1.0313  0.4713
17421TIP3    H273679   2.713   4.817   2.823 -0.5117  1.5989  0.4197
17422TIP3   OH273680   2.381   3.768   1.756 -0.6888  0.7158  0.7739
17422TIP3    H173681   2.305   3.723   1.794  0.6115 -1.7006  0.7757
17422TIP3    H273682   2.427   3.803   1.831 -0.6163  0.1403  1.0074
17423TIP3   OH273683   1.584   3.591   0.344 -0.5004  0.1300 -0.0122
17423TIP3    H173684   1.520   3.529   0.377  1.3130 -2.8760 -1.6479
17423TIP3    H273685   1.638   3.613   0.420 -0.9649 -0.5719  0.5263
17424TIP3   OH273686   0.413   3.607   5.168  0.2228 -0.1987  0.7093
17424TIP3    H173687   0.348   3.662   5.211 -0.0524 -1.7173  2.3635
17424TIP3    H273688   0.496   3.633   5.209  0.6516  1.3464 -1.0026
17425TIP3   OH273689   6.117   3.466   4.631 -0.4155 -0.4244  0.6163
17425TIP3    H173690   6.133   3.426   4.717  0.0832 -0.1896  0.6347
17425TIP3    H273691   6.098   3.557   4.650 -1.5629 -0.6454  0.5739
17426TIP3   OH273692   6.187   4.095  14.595 -0.1653  0.3751 -0.0577
17426TIP3    H173693   6.150   4.024  14.543  0.0499 -0.6618  1.1449
17426TIP3    H273694   6.262   4.056  14.639  0.9024  1.7871 -0.5742
17427TIP3   OH273695   6.379   1.332  16.299 -0.2301  0.0001 -0.1191
17427TIP3    H173696   6.398   1.323  16.206 -1.7919 -0.8016 -0.3924
17427TIP3    H273697   6.440   1.399  16.330  1.3357 -0.7863 -1.3807
17428TIP3   OH273698   2.035   3.551   6.054 -0.8252 -0.2102 -0.3459
17428TIP3    H173699   1.996   3.638   6.051 -4.1403 -1.5337 -0.2823
17428TIP3    H273700   2.068   3.542   6.143 -0.9235  0.8094 -0.1990
17429TIP3   OH273701   5.277   4.421   4.248  0.1917 -0.0729 -0.0299
17429TIP3    H173702   5.300   4.440   4.339 -1.8798  0.0294  0.5218
17429TIP3    H273703   5.277   4.325   4.243  1.3618 -0.0763 -0.2411
17430TIP3   OH273704   0.080   3.305   2.801 -0.2155  0.4516  0.0739
17430TIP3    H173705   0.052   3.267   2.718  0.5295  0.5105 -0.2073
17430TIP3    H273706   0.055   3.239   2.866 -1.9008  0.9236 -0.0412
17431TIP3   OH273707   6.288   0.530   5.203 -0.5958  0.1511 -0.0388
17431TIP3    H173708   6.280   0.437   5.180 -0.6326  0.0443  0.3825
17431TIP3    H273709   6.259   0.534   5.294  1.1168  0.2722  0.5391
17432TIP3   OH273710   2.401   6.132   1.957 -0.2766  0.0234  0.2131
17432TIP3    H173711   2.372   6.044   1.980  0.3999 -0.7556 -1.7030
17432TIP3    H273712   2.322   6.177   1.926 -0.4882 -0.1201  0.5349
17433TIP3   OH273713   3.020   4.042  14.524 -0.4310  0.2874  0.8715
17433TIP3    H173714   2.959   4.115  14.537  0.5000  1.0584  1.0323
17433TIP3    H273715   2.996   3.979  14.592 -0.3742  1.0430  1.6158
17434TIP3   OH273716   3.230   3.124   1.931 -1.2909 -0.1422 -0.3085
17434TIP3    H173717   3.307   3.103   1.880  0.0125 -0.4408  1.6638
17434TIP3    H273718   3.210   3.215   1.907  1.4636  0.9870  1.1692
17435TIP3   OH273719   5.237   1.828  11.284  0.7150 -0.4776  0.4930
17435TIP3    H173720   5.206   1.863  11.200  2.1518 -1.6908 -0.6156
17435TIP3    H273721   5.330   1.813  11.270  0.6961 -2.0998  1.8050
17436TIP3   OH273722   3.498   3.270   1.973 -0.6002  0.2396 -0.5968
17436TIP3    H173723   3.432   3.340   1.974  0.5031  1.4057 -3.0019
17436TIP3    H273724   3.457   3.200   1.924 -0.7651  0.1811 -0.3790
17437TIP3   OH273725   1.114   1.161   5.045 -0.3855  0.1348  0.6882
17437TIP3    H173726   1.099   1.108   4.966 -1.2976  0.4144  0.6612
17437TIP3    H273727   1.208   1.154   5.061 -0.4387 -1.2423  0.5046
17438TIP3   OH273728   1.324   1.372   3.854  0.7161  0.4008  0.2296
17438TIP3    H173729   1.417   1.349   3.848  0.7367  0.8561 -2.6697
17438TIP3    H273730   1.322   1.449   3.910  1.9005 -0.3621  1.3906
17439TIP3   OH273731   0.737   4.674  12.656  0.4951 -0.5552 -0.3957
17439TIP3    H173732   0.766   4.605  12.596 -0.3326 -0.9259 -0.3913
17439TIP3    H273733   0.682   4.731  12.602 -1.4054 -1.6698  0.2885
17440TIP3   OH273734   3.864   6.479   0.676 -0.5066 -0.1592 -0.2099
17440TIP3    H173735   3.886   6.411   0.740  0.5537 -0.0747 -0.4586
17440TIP3    H273736   3.855   6.559   0.729  2.2135  0.2937 -0.3008
17441TIP3   OH273737   5.081   0.888   4.155 -0.3734  0.2312 -0.2417
17441TIP3    H173738   5.112   0.957   4.214  1.2438  1.0483 -1.9466
17441TIP3    H273739   4.991   0.871   4.183 -1.6291  4.5083 -1.0153
17442TIP3   OH273740   3.989   3.857  13.882 -0.4343  0.5222  0.3479
17442TIP3    H173741   3.957   3.899  13.962 -1.3799  0.2403  0.1361
17442TIP3    H273742   4.026   3.774  13.911  0.0381  0.8125  0.5894
17443TIP3   OH273743   6.455   0.211   3.295  0.2943  0.3082 -0.1012
17443TIP3    H173744   6.531   0.267   3.282  0.2613  0.3151 -0.2613
17443TIP3    H273745   6.381   0.266   3.269  0.1208  0.7129  1.1303
17444TIP3   OH273746   3.403   3.505  15.412  0.0601 -0.2926  0.3446
17444TIP3    H173747   3.371   3.422  15.376 -0.1449  0.4019 -1.1188
17444TIP3    H273748   3.358   3.573  15.363  0.3644  0.7151  1.3994
17445TIP3   OH273749   3.992   0.836   1.223 -0.2075 -0.4182 -0.1913
17445TIP3    H173750   3.914   0.863   1.174  0.3918  0.2665 -0.7806
17445TIP3    H273751   3.965   0.842   1.315 -1.2053 -1.3028 -0.4046
17446TIP3   OH273752   2.929   1.642  11.706  0.3943  0.0667 -0.1082
17446TIP3    H173753   3.007   1.640  11.649  0.8115  1.0374  0.4093
17446TIP3    H273754   2.943   1.570  11.767  2.0896  1.6152  1.4726
17447TIP3   OH273755   6.306   1.854  12.029 -0.1016 -0.0330 -0.3895
17447TIP3    H173756   6.257   1.919  12.079  0.6005  0.9824 -1.0087
17447TIP3    H273757   6.301   1.775  12.084 -1.9663  0.1621 -0.1884
17448TIP3   OH273758   3.933   1.603  15.018 -0.6490 -0.2582 -0.0621
17448TIP3    H173759   3.919   1.620  14.925 -0.2123 -3.2493 -0.7742
17448TIP3    H273760   3.859   1.548  15.043 -1.0516  0.9517  1.5444
17449TIP3   OH273761   3.223   1.392   1.113 -0.0478 -0.2341 -0.3966
17449TIP3    H173762   3.232   1.487   1.100 -1.3671 -0.1365 -0.7175
17449TIP3    H273763   3.227   1.381   1.208  0.6503  0.0707 -0.3808
17450TIP3   OH273764   4.390   2.184   4.051 -0.1218 -0.3332 -0.3434
17450TIP3    H173765   4.338   2.103   4.054 -0.6041 -0.1441 -2.2617
17450TIP3    H273766   4.354   2.232   3.977  2.0901  0.2972 -1.0795
17451TIP3   OH273767   4.108   3.553  13.515  0.9108  0.2697  0.4615
17451TIP3    H173768   4.047   3.526  13.446 -0.2210 -0.2466  1.6234
17451TIP3    H273769   4.092   3.646  13.526  0.7082  0.2410  0.4104
17452TIP3   OH273770   5.946   1.601  16.842 -0.5564  0.0309  0.4691
17452TIP3    H173771   5.905   1.687  16.848 -0.0827  0.2910  0.0645
17452TIP3    H273772   6.038   1.620  16.823 -0.4735 -0.5670  0.2618
17453TIP3   OH273773   4.471   6.131   3.189 -0.4083 -0.2553  0.3547
17453TIP3    H173774   4.387   6.086   3.180 -0.5367  0.1915 -0.7564
17453TIP3    H273775   4.500   6.147   3.099 -0.2495  1.6620  0.7021
17454TIP3   OH273776   2.175   4.618  13.921 -0.5573 -0.0835  0.4448
17454TIP3    H173777   2.119   4.571  13.984  2.4771 -0.6154  3.0173
17454TIP3    H273778   2.212   4.691  13.971 -0.8696  1.8150 -1.9062
17455TIP3   OH273779   4.543   2.720   5.490 -0.1053 -0.3284  0.0333
17455TIP3    H173780   4.538   2.660   5.565 -2.0854 -0.1086  0.1294
17455TIP3    H273781   4.452   2.748   5.475  0.6265  1.9026 -0.6345
17456TIP3   OH273782   2.714   0.769  11.979 -0.0522  0.1895 -0.0954
17456TIP3    H173783   2.640   0.776  11.918 -0.6898  0.6779  0.7042
17456TIP3    H273784   2.703   0.682  12.019  1.2792 -0.8061 -1.7861
17457TIP3   OH273785   6.473   5.255   2.757 -0.1738 -0.3935  0.4484
17457TIP3    H173786   6.532   5.250   2.832 -0.2651  0.2449  0.5729
17457TIP3    H273787   6.466   5.349   2.738  0.8690 -0.6115 -1.1765
17458TIP3   OH273788   0.600   2.189   4.209 -0.3321  0.2572  0.2912
17458TIP3    H173789   0.523   2.222   4.255 -0.2053  1.8036 -0.5299
17458TIP3    H273790   0.633   2.265   4.161  0.8423 -0.7461 -0.5460
17459TIP3   OH273791   6.544   5.956  14.179 -0.0924 -0.1920  0.0639
17459TIP3    H173792   6.514   5.917  14.097  1.2494 -1.8699  0.3171
17459TIP3    H273793   6.586   5.884  14.225  2.5915  1.5580  0.5381
17460TIP3   OH273794   5.403   2.204   0.737  0.1308 -0.3165 -0.2210
17460TIP3    H173795   5.465   2.244   0.798 -1.9156  0.6558  1.3619
17460TIP3    H273796   5.364   2.279   0.691 -2.1651 -0.5602  1.1859
17461TIP3   OH273797   2.834   4.127  14.122  0.2686 -0.5509  0.1051
17461TIP3    H173798   2.883   4.046  14.133 -0.9798 -1.5430 -1.2162
17461TIP3    H273799   2.818   4.134  14.028 -1.0095  0.3927  0.3584
17462TIP3   OH273800   2.506   0.336  16.805  0.3628  0.1100  0.4161
17462TIP3    H173801   2.532   0.303  16.719 -0.8069  1.5760 -0.5555
17462TIP3    H273802   2.429   0.284  16.829  0.0978  0.3545  0.1061
17463TIP3   OH273803   4.962   6.382   1.059 -0.1077  0.5474  0.3158
17463TIP3    H173804   4.896   6.313   1.051  0.3148  0.1299  0.4255
17463TIP3    H273805   4.937   6.447   0.992 -0.0836 -0.0561 -0.2870
17464TIP3   OH273806   1.882   1.137   2.933  0.3961 -0.0492  0.2680
17464TIP3    H173807   1.839   1.134   2.848 -0.2325  2.1838  0.4516
17464TIP3    H273808   1.956   1.076   2.925 -1.0994 -1.8101 -0.9861
17465TIP3   OH273809   4.317   0.262  15.189 -0.0128 -0.6252 -0.3478
17465TIP3    H173810   4.353   0.196  15.129  2.2942 -0.7354  1.0052
17465TIP3    H273811   4.389   0.325  15.200 -1.2756  0.7433  0.3758
17466TIP3   OH273812   4.872   5.520   3.725 -0.0560 -0.7510 -0.6786
17466TIP3    H173813   4.941   5.500   3.788  0.0309  1.3935 -0.0240
17466TIP3    H273814   4.919   5.549   3.647 -0.2154 -0.9790 -0.8623
17467TIP3   OH273815   4.293   3.750  12.804  0.4109  0.2032 -0.2565
17467TIP3    H173816   4.258   3.661  12.801 -0.5307  0.5029  1.1291
17467TIP3    H273817   4.375   3.744  12.756  0.9991 -1.7194  0.8549
17468TIP3   OH273818   1.761   1.489  17.221 -0.2051 -0.1604  0.3047
17468TIP3    H173819   1.757   1.518  17.130 -1.4609 -0.4944  0.2266
17468TIP3    H273820   1.675   1.449  17.237  0.2611 -0.7724  1.4128
17469TIP3   OH273821   2.535   2.494   6.127  0.1482  0.2323  0.3390
17469TIP3    H173822   2.561   2.465   6.039 -0.8519  2.5950 -0.8236
17469TIP3    H273823   2.597   2.564   6.149  2.7933 -2.6872  3.2627
17470TIP3   OH273824   4.496   0.710  12.543 -0.6257 -0.1579 -0.3423
17470TIP3    H173825   4.548   0.771  12.596  1.5628 -1.4179 -0.9079
17470TIP3    H273826   4.525   0.624  12.571 -2.0362 -0.9180 -1.1231
17471TIP3   OH273827   2.145   5.373  14.932 -0.1229 -0.1286 -0.2760
17471TIP3    H173828   2.082   5.383  15.004 -0.5779  0.6452 -0.7660
17471TIP3    H273829   2.159   5.462  14.900  0.1353 -0.4523 -1.0920
17472TIP3   OH273830   6.477   3.391  13.703  0.3920  0.2712 -0.3103
17472TIP3    H173831   6.569   3.367  13.688  0.2522  0.4517 -1.5981
17472TIP3    H273832   6.428   3.333  13.645 -0.2122  1.1052 -0.6442
17473TIP3   OH273833   1.575   4.056  15.907  0.5753 -0.1481 -0.2217
17473TIP3    H173834   1.497   4.012  15.874 -0.7144  0.0686  2.3247
17473TIP3    H273835   1.631   3.985  15.938  0.4974 -0.2132 -0.2297
17474TIP3   OH273836   3.181   5.126  16.870 -0.3252 -0.0276 -0.6784
17474TIP3    H173837   3.272   5.104  16.850 -0.5465 -0.9127 -0.7619
17474TIP3    H273838   3.138   5.041  16.885 -1.6937  0.1445 -2.9844
17475TIP3   OH273839   6.022   1.072   2.573  0.4747  0.7356 -0.6576
17475TIP3    H173840   6.070   1.151   2.600  1.8559 -0.9222  2.2717
17475TIP3    H273841   6.090   1.005   2.564 -0.9157 -0.7833 -0.2938
17476TIP3   OH273842   0.242   1.433   2.009  0.0159  0.0381 -0.5160
17476TIP3    H173843   0.235   1.438   1.914 -1.0909  2.0899 -0.3752
17476TIP3    H273844   0.334   1.453   2.028  0.3143 -0.6974 -1.1483
17477TIP3   OH273845   0.584   3.874  16.933 -0.5372  0.4958 -0.5158
17477TIP3    H173846   0.581   3.884  16.838  0.6618 -0.4122 -0.6695
17477TIP3    H273847   0.562   3.782  16.948 -0.0597  0.4653  0.0289
17478TIP3   OH273848   1.247   0.773  13.460  0.1885  0.4403  0.1217
17478TIP3    H173849   1.338   0.804  13.454  0.6422 -0.5876  1.2272
17478TIP3    H273850   1.216   0.808  13.544  0.2318 -0.7952  0.6852
17479TIP3   OH273851   5.677   2.419   0.740  0.2514 -0.3517  0.3365
17479TIP3    H173852   5.708   2.429   0.650  0.3850  0.2521  0.4443
17479TIP3    H273853   5.716   2.493   0.787 -0.2076 -0.3904  0.7845
17480TIP3   OH273854   4.248   6.413  15.955  0.8393 -0.6353  0.0344
17480TIP3    H173855   4.216   6.448  15.872 -0.2628 -0.4837  0.5019
17480TIP3    H273856   4.310   6.478  15.987 -0.1673  0.2448  0.2409
17481TIP3   OH273857   5.869   3.801  12.786 -0.3921  0.2834 -0.0355
17481TIP3    H173858   5.922   3.722  12.791 -2.8592 -1.4409  0.4312
17481TIP3    H273859   5.874   3.839  12.874  0.5052  0.4862 -0.1632
17482TIP3   OH273860   5.290   4.748   6.033  0.2631 -0.2616 -0.2162
17482TIP3    H173861   5.260   4.670   6.081 -1.7267 -0.2625 -1.3415
17482TIP3    H273862   5.339   4.712   5.959 -2.6948 -0.7064 -2.1336
17483TIP3   OH273863   3.403   6.067  11.361 -0.1842  0.0574  0.8082
17483TIP3    H173864   3.437   6.143  11.313  0.9028 -0.3521  0.9130
17483TIP3    H273865   3.410   5.995  11.299 -2.6171  0.2804  0.1773
17484TIP3   OH273866   6.510   5.368   1.423  0.3861 -0.7752  0.4783
17484TIP3    H173867   6.530   5.281   1.458  0.6177 -1.7899 -1.9909
17484TIP3    H273868   6.593   5.399   1.386 -0.1276 -0.3182 -0.3067
17485TIP3   OH273869   0.795   1.932   1.101  0.4063  0.3750 -0.4194
17485TIP3    H173870   0.781   1.873   1.027  0.3559  1.5612 -1.3987
17485TIP3    H273871   0.870   1.985   1.075  0.1563  1.0599  0.2069
17486TIP3   OH273872   4.924   6.369   3.349 -0.0480  0.2801 -0.3191
17486TIP3    H173873   4.879   6.292   3.314  0.1672 -1.2343  2.4154
17486TIP3    H273874   4.869   6.443   3.325 -3.4990 -1.3387  1.8556
17487TIP3   OH273875   1.273   0.716  16.341  0.3428 -0.2188 -0.7010
17487TIP3    H173876   1.197   0.706  16.397 -0.2074 -0.5026 -1.4804
17487TIP3    H273877   1.327   0.639  16.360  0.7212  0.2710  0.2637
17488TIP3   OH273878   4.181   1.834  14.682 -0.1682  0.0499  0.3789
17488TIP3    H173879   4.172   1.802  14.592  0.7204  0.3896  0.1600
17488TIP3    H273880   4.185   1.929  14.673 -2.5784  0.2868  1.0074
17489TIP3   OH273881   5.169   4.374  13.092 -0.4553 -0.0820  0.0014
17489TIP3    H173882   5.131   4.381  13.004 -1.5465 -0.3803  0.4377
17489TIP3    H273883   5.214   4.289  13.091 -0.0020  0.1576 -0.4370
17490TIP3   OH273884   5.704   4.319   3.045 -0.5445 -0.1291 -0.7023
17490TIP3    H173885   5.743   4.402   3.072 -2.2725  0.9534 -1.3685
17490TIP3    H273886   5.710   4.318   2.950 -0.2986 -0.8986 -0.6877
17491TIP3   OH273887   1.245   6.634   4.588 -0.0084 -0.1788  0.0996
17491TIP3    H173888   1.178   6.623   4.521 -0.9286  1.9651  0.5931
17491TIP3    H273889   1.245   6.550   4.635  0.0524 -1.4034 -1.9627
17492TIP3   OH273890   6.456   4.571  11.270 -0.4681 -0.2005 -0.3256
17492TIP3    H173891   6.539   4.524  11.266  0.1705  0.9118 -0.5908
17492TIP3    H273892   6.394   4.515  11.224  0.6905  0.0297 -2.3049
17493TIP3   OH273893   5.984   0.725  14.105  0.2074 -0.0905 -0.1359
17493TIP3    H173894   6.038   0.651  14.078  0.1040  0.0339 -0.6899
17493TIP3    H273895   6.046   0.788  14.141  0.3877 -0.1278 -0.3781
17494TIP3   OH273896   0.709   2.178   3.652 -0.0370  0.6206  0.7175
17494TIP3    H173897   0.624   2.220   3.638  0.2086  0.8096 -0.3282
17494TIP3    H273898   0.720   2.176   3.747 -0.9416  1.1399  0.8439
17495TIP3   OH273899   5.339   1.851   0.166 -0.1052 -0.0298  0.4144
17495TIP3    H173900   5.334   1.785   0.097  0.5521 -1.3673  1.6010
17495TIP3    H273901   5.252   1.850   0.206 -0.4216  0.6009 -0.2200
17496TIP3   OH273902   1.240   0.891   2.981  0.4743  0.2819  0.5198
17496TIP3    H173903   1.188   0.940   2.917 -0.1684  0.7068  1.3446
17496TIP3    H273904   1.190   0.899   3.063  1.2409 -0.3147  1.0539
17497TIP3   OH273905   5.566   6.273  15.174 -0.1574 -0.2978 -0.1577
17497TIP3    H173906   5.546   6.180  15.180 -1.7514 -0.0405 -0.7905
17497TIP3    H273907   5.501   6.315  15.230 -1.2920  0.5874 -2.0287
17498TIP3   OH273908   3.520   4.449  11.947 -0.1519 -0.0462  0.2871
17498TIP3    H173909   3.582   4.518  11.922 -0.4007 -0.0451 -0.3440
17498TIP3    H273910   3.513   4.457  12.042 -0.5689  1.1257  0.1743
17499TIP3   OH273911   0.015   6.100   0.132  0.6170  0.0964 -0.6084
17499TIP3    H173912  -0.016   6.174   0.079 -0.4220 -0.5385 -0.9240
17499TIP3    H273913   0.077   6.139   0.194  0.5221  1.1355 -1.1432
17500TIP3   OH273914   4.681   4.940  11.363  0.7482 -0.3168  0.0726
17500TIP3    H173915   4.763   4.975  11.330  1.0610 -0.8714  0.2593
17500TIP3    H273916   4.641   5.013  11.411  0.4718  0.3760 -1.1669
17501TIP3   OH273917   0.837   1.595  16.739 -0.6110 -0.4267  0.2145
17501TIP3    H173918   0.782   1.517  16.732 -2.4135  0.7857  0.1131
17501TIP3    H273919   0.780   1.661  16.779  0.1750  1.4577 -1.6126
17502TIP3   OH273920   0.327   2.400  12.957 -0.0971 -0.5312 -0.5104
17502TIP3    H173921   0.355   2.312  12.981 -1.6257 -1.3642 -1.5913
17502TIP3    H273922   0.293   2.438  13.039  1.2150 -0.6540  0.1127
17503TIP3   OH273923   4.428   6.568   6.701 -0.0490  0.0709 -0.5015
17503TIP3    H173924   4.466   6.496   6.753 -0.4879 -1.2862 -1.9758
17503TIP3    H273925   4.357   6.601   6.755 -0.5855 -1.4045 -0.2568
17504TIP3   OH273926   6.550   1.136  14.804  0.2453 -0.2396 -0.4503
17504TIP3    H173927   6.471   1.163  14.755  1.0029  0.5337 -1.2924
17504TIP3    H273928   6.571   1.050  14.768 -1.6740 -1.6837  1.6190
17505TIP3   OH273929   0.026   5.179  15.315  0.1524  0.1769 -0.8273
17505TIP3    H173930   0.117   5.154  15.333  0.1427  1.9741  2.5299
17505TIP3    H273931  -0.026   5.105  15.345  0.4575  0.4722  0.5316
17506TIP3   OH273932   0.481   1.272   4.158 -0.1772 -0.3485  0.2861
17506TIP3    H173933   0.450   1.346   4.107  2.7851  0.8067 -0.0602
17506TIP3    H273934   0.447   1.287   4.246 -0.8012  0.6294 -0.1087
17507TIP3   OH273935   2.072   6.581   3.037 -0.3308 -0.1215 -0.6211
17507TIP3    H173936   2.063   6.585   3.132 -0.5176 -1.6115 -0.5530
17507TIP3    H273937   2.151   6.631   3.017 -0.7621  0.9318  0.2149
17508TIP3   OH273938   6.174   2.541   3.033  0.0882  0.5185 -0.1241
17508TIP3    H173939   6.210   2.614   3.083 -0.3587  0.9705 -0.4557
17508TIP3    H273940   6.248   2.509   2.981  0.7710 -0.4404  1.3328
17509TIP3   OH273941   5.641   0.143   1.447  0.4806  0.0328  0.1335
17509TIP3    H173942   5.729   0.178   1.448  0.1196  0.9722 -0.1797
17509TIP3    H273943   5.616   0.143   1.355 -0.3218  1.0320  0.3322
17510TIP3   OH273944   1.776   3.605  11.790 -0.3285 -0.0799  0.0501
17510TIP3    H173945   1.685   3.614  11.763 -0.0013 -2.3335 -2.2522
17510TIP3    H273946   1.827   3.639  11.716  0.7572  1.0709  1.2631
17511TIP3   OH273947   1.654   4.146   2.056 -0.0631 -0.3889  0.2102
17511TIP3    H173948   1.677   4.109   1.970  0.4296 -3.2702  1.4544
17511TIP3    H273949   1.732   4.195   2.082 -0.3523  0.8322 -1.0850
17512TIP3   OH273950   3.709   0.742  14.790 -0.2077 -0.1689  0.3654
17512TIP3    H173951   3.752   0.662  14.820 -0.6183 -0.3100  0.5870
17512TIP3    H273952   3.694   0.727  14.697  0.5923  0.0534  0.1945
17513TIP3   OH273953   3.828   1.160  16.043 -0.0655 -0.0564 -0.0239
17513TIP3    H173954   3.842   1.169  16.137 -1.5373 -0.2619  0.2524
17513TIP3    H273955   3.901   1.107  16.012  0.4160 -0.0105  1.0096
17514TIP3   OH273956   5.967   0.334   4.284 -0.3294  0.2576  0.1931
17514TIP3    H173957   6.056   0.335   4.249 -0.2831  1.6917  0.3206
17514TIP3    H273958   5.914   0.299   4.212  0.2802 -0.2997  0.0036
17515TIP3   OH273959   6.030   2.655  11.726 -0.1644  0.4105  0.6168
17515TIP3    H173960   5.983   2.584  11.769 -0.3390 -0.9348 -1.6492
17515TIP3    H273961   6.081   2.612  11.657  0.2011  2.4159 -0.4518
17516TIP3   OH273962   0.397   4.692   5.204 -0.1586  0.0011 -0.0765
17516TIP3    H173963   0.363   4.780   5.221  0.6165  0.0574  1.3326
17516TIP3    H273964   0.325   4.646   5.160 -0.5424  1.3524 -0.9051
17517TIP3   OH273965   0.990   5.812  11.982 -1.2545 -0.3595  0.3736
17517TIP3    H173966   0.928   5.775  12.045  0.0240 -2.1582  0.6331
17517TIP3    H273967   1.004   5.742  11.917  1.5589 -0.5934  1.1004
17518TIP3   OH273968   0.490   0.179   1.721 -0.0973  0.4919 -0.2186
17518TIP3    H173969   0.456   0.242   1.784  0.2742  0.9859 -0.5056
17518TIP3    H273970   0.569   0.143   1.762  0.3239  1.0474 -0.5280
17519TIP3   OH273971   4.606   3.582  14.766 -0.0257  0.7398 -0.0751
17519TIP3    H173972   4.517   3.587  14.801  0.0522  1.5713  0.0343
17519TIP3    H273973   4.643   3.503  14.804 -0.9127  0.0490 -0.5898
17520TIP3   OH273974   3.837   5.713   3.691 -0.8819  0.3307 -0.5591
17520TIP3    H173975   3.928   5.690   3.671 -0.8260  0.2826 -0.2579
17520TIP3    H273976   3.790   5.630   3.688 -0.7659  0.2346  0.0693
17521TIP3   OH273977   5.540   1.363  16.565 -0.0763  0.6568  1.4690
17521TIP3    H173978   5.482   1.363  16.641  0.5732  2.0159  1.9945
17521TIP3    H273979   5.604   1.432  16.583 -0.2995  1.4693 -0.6069
17522TIP3   OH273980   1.173   4.798   0.006 -0.1557  0.2629  0.5885
17522TIP3    H173981   1.167   4.765   0.096  2.1457  0.3886  0.8268
17522TIP3    H273982   1.210   4.725  -0.044  0.4462  0.8527  0.1574
17523TIP3   OH273983   1.531   2.327   0.105  0.3362  0.7557  0.5513
17523TIP3    H173984   1.600   2.266   0.128  1.6735  2.3970  1.0978
17523TIP3    H273985   1.504   2.301   0.017  1.8777  0.2802  0.2006
17524TIP3   OH273986   2.489   4.341   5.644 -0.1813 -0.0696  0.4038
17524TIP3    H173987   2.481   4.270   5.707  0.7212 -1.4483 -0.9502
17524TIP3    H273988   2.493   4.298   5.559 -0.1987  1.6439 -0.5237
17525TIP3   OH273989   4.761   5.246  13.930 -1.0699  0.4153 -0.3890
17525TIP3    H173990   4.795   5.266  14.018 -0.9259 -1.1138 -0.0654
17525TIP3    H273991   4.668   5.230  13.943 -0.9043 -0.6277 -0.3360
17526TIP3   OH273992   2.195   5.427  12.372  0.1237  0.1882 -0.2049
17526TIP3    H173993   2.257   5.489  12.410 -0.3556  1.3006 -1.2026
17526TIP3    H273994   2.140   5.400  12.446 -0.2487  1.6537  0.0890
17527TIP3   OH273995   5.540   3.654  16.088 -0.5460  0.9954 -0.0108
17527TIP3    H173996   5.539   3.745  16.059 -1.1582  1.1265  0.4115
17527TIP3    H273997   5.487   3.653  16.168 -3.0674 -0.2423 -1.5574
17528TIP3   OH273998   6.015   1.480  11.522 -0.3075 -0.1270  0.1350
17528TIP3    H173999   5.928   1.445  11.505 -0.3802 -0.4222  1.0527
17528TIP3    H274000   6.060   1.411  11.571 -0.2046  0.7637  1.3385
17529TIP3   OH274001   6.197   5.967  11.382 -0.0177 -0.5516  0.0155
17529TIP3    H174002   6.138   5.982  11.456  0.9954  2.6663  0.3219
17529TIP3    H274003   6.284   5.959  11.421  0.3244 -0.6388 -0.7383
17530TIP3   OH274004   5.947   5.234  17.301 -0.0694  0.7125  0.2681
17530TIP3    H174005   5.938   5.182  17.221  1.2803  1.6748 -0.5557
17530TIP3    H274006   5.968   5.170  17.368  2.0179  0.1563 -0.8148
17531TIP3   OH274007   2.334   0.138   1.844  0.1010  0.0014  0.1084
17531TIP3    H174008   2.325   0.222   1.797  0.5470 -0.3413 -0.6104
17531TIP3    H274009   2.341   0.073   1.774 -2.2273 -0.8886  0.6472
17532TIP3   OH274010   0.239   6.067   0.306 -0.0781 -0.6404 -0.2434
17532TIP3    H174011   0.315   6.019   0.273  0.7245  1.2018 -1.1890
17532TIP3    H274012   0.275   6.148   0.341 -1.3970 -0.7181  1.3851
17533TIP3   OH274013   0.024   1.977  14.808 -0.0470 -0.0557 -0.1607
17533TIP3    H174014   0.061   1.948  14.892 -0.7889 -0.7169 -0.0503
17533TIP3    H274015   0.100   1.986  14.750  0.5738  1.1395  0.7749
17534TIP3   OH274016   4.832   0.938   2.758  0.3567  0.3109  0.3811
17534TIP3    H174017   4.919   0.919   2.794  0.2760  1.6230  1.3210
17534TIP3    H274018   4.816   1.030   2.781 -0.9173  0.3400 -0.5427
17535TIP3   OH274019   2.523   1.771   0.746 -0.4208  0.0241  0.0578
17535TIP3    H174020   2.530   1.844   0.685 -1.0737 -0.4929 -0.6545
17535TIP3    H274021   2.493   1.697   0.693  0.2457 -0.7794  0.7574
17536TIP3   OH274022   3.081   0.287   1.439 -0.2064  0.2249 -0.0267
17536TIP3    H174023   3.128   0.314   1.361  1.8930 -3.0590 -0.0513
17536TIP3    H274024   2.992   0.268   1.408 -0.0727  1.1826 -1.0776
17537TIP3   OH274025   2.144   3.105   5.610  0.0208 -0.0049 -0.0020
17537TIP3    H174026   2.082   3.048   5.655 -0.1165  0.4297  0.3686
17537TIP3    H274027   2.209   3.129   5.676 -0.4521  1.0257  0.1166
17538TIP3   OH274028   4.968   3.399  12.790 -0.1641  0.0129 -0.6513
17538TIP3    H174029   5.015   3.465  12.840 -2.1793 -1.1329  3.1879
17538TIP3    H274030   4.906   3.448  12.736 -0.0258  1.3484  0.3568
17539TIP3   OH274031   3.685   1.960   2.065 -0.4448 -0.5634  0.2055
17539TIP3    H174032   3.646   2.043   2.091  0.0761 -0.4726  0.7291
17539TIP3    H274033   3.659   1.898   2.133 -0.8881 -0.8446 -0.2199
17540TIP3   OH274034   3.128   5.824   2.103  0.1269 -0.6628 -0.5662
17540TIP3    H174035   3.073   5.757   2.063  0.7897 -0.3988 -1.9828
17540TIP3    H274036   3.067   5.880   2.151 -0.6834 -1.0727 -1.1035
17541TIP3   OH274037   3.208   1.191   0.044  0.4944  0.5762 -0.1656
17541TIP3    H174038   3.291   1.144   0.053  0.6232  0.6985 -0.6939
17541TIP3    H274039   3.141   1.124   0.056  0.6791  0.2020 -1.1646
17542TIP3   OH274040   5.114   1.133   1.991 -0.0577 -0.1306  0.5675
17542TIP3    H174041   5.152   1.156   2.076 -2.3956  2.4535  1.0579
17542TIP3    H274042   5.025   1.104   2.012 -0.4824 -0.0435 -0.9706
17543TIP3   OH274043   4.626   4.072  13.925  0.1357  0.5427  0.4990
17543TIP3    H174044   4.634   3.989  13.972 -1.1372  1.0603  1.7047
17543TIP3    H274045   4.593   4.048  13.838 -3.0399 -0.0696  1.7640
17544TIP3   OH274046   3.770   4.223   1.974  0.7195 -0.1903  0.3953
17544TIP3    H174047   3.820   4.180   1.904  0.0773 -1.7907  0.8838
17544TIP3    H274048   3.683   4.184   1.969  0.7607 -0.6093  2.2958
17545TIP3   OH274049   5.161   5.242  15.604 -0.2968  0.4864 -0.6486
17545TIP3    H174050   5.168   5.232  15.509 -1.0793 -1.6875 -0.5363
17545TIP3    H274051   5.067   5.247  15.621 -0.3589 -1.7825  0.1393
17546TIP3   OH274052   0.909   4.346  12.689  0.4703 -0.0969 -0.0640
17546TIP3    H174053   0.884   4.374  12.601 -0.6389 -0.2103  0.2062
17546TIP3    H274054   0.853   4.270  12.706 -0.0681  0.5653  1.1538
17547TIP3   OH274055   2.823   4.345   5.000 -1.0813 -0.2776 -0.6883
17547TIP3    H174056   2.861   4.426   4.965 -1.7057 -0.2449 -1.3040
17547TIP3    H274057   2.854   4.277   4.940  0.3225 -0.6765  0.4276
17548TIP3   OH274058   5.293   0.508   5.798 -0.4325  0.3480 -0.2235
17548TIP3    H174059   5.345   0.588   5.804  1.5627 -0.9292  0.1137
17548TIP3    H274060   5.351   0.444   5.757 -0.9479 -1.7590  2.1259
17549TIP3   OH274061   2.164   4.507   0.455 -0.2311  0.1028 -0.0287
17549TIP3    H174062   2.162   4.592   0.412 -1.4699 -0.7739 -1.8579
17549TIP3    H274063   2.203   4.448   0.389 -0.7818 -1.0275  0.6244
17550TIP3   OH274064   1.395   0.056  12.605 -0.5126 -0.6544  0.2449
17550TIP3    H174065   1.313   0.031  12.648 -1.5450 -1.0925 -1.8623
17550TIP3    H274066   1.464   0.028  12.666 -1.8533 -2.3323  1.0564
17551TIP3   OH274067   4.957   0.829  13.956  0.4057 -0.0552  0.0046
17551TIP3    H174068   5.018   0.899  13.982  1.4448  0.0453 -2.4684
17551TIP3    H274069   4.889   0.874  13.906  0.7286 -0.6980 -1.0396
17552TIP3   OH274070   0.217   0.876   5.555 -0.1052  0.0556 -0.2161
17552TIP3    H174071   0.263   0.954   5.585 -0.7210  0.6451 -0.7655
17552TIP3    H274072   0.129   0.884   5.593 -1.3576  1.5037 -3.1020
17553TIP3   OH274073   1.067   0.368   0.129 -0.8550 -0.4192  0.1772
17553TIP3    H174074   1.024   0.322   0.057  2.4626 -0.8217 -1.7374
17553TIP3    H274075   1.047   0.316   0.207 -1.0255 -2.4686 -1.1807
17554TIP3   OH274076   4.249   5.738   2.015 -0.1080  0.4749  0.3421
17554TIP3    H174077   4.334   5.730   2.059  0.4063  3.0841 -0.0076
17554TIP3    H274078   4.185   5.715   2.082  0.7988  1.1678  1.4962
17555TIP3   OH274079   5.257   5.431   4.374  0.3826 -0.5645  0.2561
17555TIP3    H174080   5.293   5.366   4.435 -1.5406 -1.1466  0.8551
17555TIP3    H274081   5.305   5.511   4.394  0.4062 -0.9568  1.9724
17556TIP3   OH274082   4.915   2.558   1.288 -0.7809 -0.0556 -0.1543
17556TIP3    H174083   4.998   2.573   1.243 -1.4800  0.5946 -1.2814
17556TIP3    H274084   4.934   2.490   1.352  0.5664 -0.0617 -0.5338
17557TIP3   OH274085   0.294   3.691   1.858  0.0964  0.1640  0.3876
17557TIP3    H174086   0.374   3.654   1.820 -1.3562 -2.9006 -0.0113
17557TIP3    H274087   0.319   3.716   1.947  1.3887 -1.4308  0.5284
17558TIP3   OH274088   3.302   3.659   0.463 -0.1452 -0.3297 -0.1136
17558TIP3    H174089   3.397   3.650   0.474 -0.3223 -0.9229  1.0938
17558TIP3    H274090   3.267   3.655   0.552 -1.2527  0.6547 -0.4785
17559TIP3   OH274091   2.274   0.176  15.344  0.3464 -0.0013 -0.0366
17559TIP3    H174092   2.342   0.234  15.379 -0.2646  0.6653  0.0469
17559TIP3    H274093   2.227   0.229  15.281 -2.0240  0.5343  2.0270
17560TIP3   OH274094   0.396   0.810   2.726 -0.5259 -0.1910  0.8288
17560TIP3    H174095   0.358   0.781   2.809  1.2543 -3.5098  0.6597
17560TIP3    H274096   0.478   0.854   2.751 -1.0790  0.8139  0.8993
17561TIP3   OH274097   1.533   5.607  12.373  0.4564 -0.3979 -0.4112
17561TIP3    H174098   1.477   5.529  12.368 -1.8082  1.0102  1.2752
17561TIP3    H274099   1.514   5.655  12.293 -0.6730 -0.0132  0.0721
17562TIP3   OH274100   4.359   5.050   3.881 -0.4086 -0.2441 -0.0500
17562TIP3    H174101   4.439   5.095   3.857  0.7642 -2.8152 -1.3217
17562TIP3    H274102   4.291   5.089   3.825  0.8330 -0.9577 -2.1551
17563TIP3   OH274103   3.356   5.232   0.222  0.2670  0.0078  0.7776
17563TIP3    H174104   3.435   5.182   0.243  0.5484  0.2238  0.2634
17563TIP3    H274105   3.380   5.323   0.240 -0.7128 -0.1362  3.1188
17564TIP3   OH274106   6.365   4.741   4.566 -0.6788  0.0021 -0.0690
17564TIP3    H174107   6.270   4.733   4.559 -0.7099  0.0840  0.2668
17564TIP3    H274108   6.398   4.705   4.483 -0.9348 -1.2053  0.3374
17565TIP3   OH274109   3.516   0.865   2.348 -0.0165  0.7066 -0.4415
17565TIP3    H174110   3.585   0.920   2.386 -0.4432  0.8338  0.1539
17565TIP3    H274111   3.564   0.803   2.292  0.3573  2.9543 -2.8409
17566TIP3   OH274112   4.377   5.789  11.957 -0.8641  0.2093 -0.1818
17566TIP3    H174113   4.357   5.792  11.864 -0.4411 -1.2805 -0.3461
17566TIP3    H274114   4.426   5.707  11.969 -1.2658  0.1605  1.4040
17567TIP3   OH274115   1.351   2.474   1.578 -0.5465  0.0718  0.4097
17567TIP3    H174116   1.415   2.403   1.573 -2.5822 -1.9314  1.0610
17567TIP3    H274117   1.325   2.488   1.487 -0.7796 -0.6773  0.3529
17568TIP3   OH274118   4.760   3.449   2.602  0.3065 -1.2558  0.0277
17568TIP3    H174119   4.672   3.456   2.641  0.6673  1.1496  0.5596
17568TIP3    H274120   4.748   3.473   2.510  0.2665 -1.8223 -0.1154
17569TIP3   OH274121   1.768   3.296   5.469  0.1802 -0.0883 -0.1583
17569TIP3    H174122   1.736   3.331   5.385 -1.6059 -0.6805  0.2268
17569TIP3    H274123   1.768   3.372   5.528 -1.1829 -0.1708 -0.0099
17570TIP3   OH274124   6.465   0.338   3.979  0.5788 -0.0093 -0.1166
17570TIP3    H174125   6.407   0.411   4.001  3.5672  2.0381  1.7191
17570TIP3    H274126   6.520   0.371   3.908  1.0048 -1.0377 -0.2899
17571TIP3   OH274127   5.506   0.176  13.801  0.3814  0.7279  0.1730
17571TIP3    H174128   5.587   0.226  13.803  1.1477 -0.4814  1.5721
17571TIP3    H274129   5.463   0.197  13.884  1.3200 -1.7804  1.3859
17572TIP3   OH274130   6.688   6.366  12.853  1.1059 -0.4585 -0.6556
17572TIP3    H174131   6.646   6.312  12.920  1.4174  0.0844 -0.0121
17572TIP3    H274132   6.685   6.455  12.888  0.2234  0.0227 -1.8904
17573TIP3   OH274133   2.379   2.784   2.334  0.0869  0.1156  0.0700
17573TIP3    H174134   2.465   2.772   2.374  1.0196  1.4905 -1.3991
17573TIP3    H274135   2.397   2.830   2.252 -2.1367  1.4199  0.2258
17574TIP3   OH274136   3.783   1.285   2.309 -0.2348  0.3425 -0.4023
17574TIP3    H174137   3.811   1.361   2.360 -0.0947  1.3589 -1.9132
17574TIP3    H274138   3.797   1.311   2.218 -2.5659 -0.5432 -1.0858
17575TIP3   OH274139   6.656   1.567   1.984 -0.1590  0.1684  0.1960
17575TIP3    H174140   6.618   1.654   1.971 -0.5738 -0.0415 -0.0396
17575TIP3    H274141   6.663   1.557   2.079  1.1215  0.9728  0.1982
17576TIP3   OH274142   5.667   5.212  13.277 -0.3233 -0.1087  0.0756
17576TIP3    H174143   5.659   5.128  13.232 -0.6632  0.7388 -1.5431
17576TIP3    H274144   5.710   5.269  13.213  1.1719  0.6043  1.6444
17577TIP3   OH274145   6.149   1.709   2.895  0.4153 -0.2282 -0.1554
17577TIP3    H174146   6.074   1.761   2.924  1.0232  0.5132  0.1378
17577TIP3    H274147   6.137   1.624   2.936 -0.4407 -0.2240 -0.3913
17578TIP3   OH274148   0.427   5.130   5.775 -0.5454 -0.2828  0.3682
17578TIP3    H174149   0.493   5.064   5.799 -1.8493 -1.2229  1.5376
17578TIP3    H274150   0.417   5.184   5.853 -0.9999 -0.0178  0.1296
17579TIP3   OH274151   3.002   0.835  12.883  0.2157  0.3433  0.3840
17579TIP3    H174152   2.984   0.772  12.953  0.9298  1.0561  1.2317
17579TIP3    H274153   3.064   0.897  12.921  0.5840  0.7817 -0.8735
17580TIP3   OH274154   5.605   5.227   4.681 -0.0716  0.5508  0.2507
17580TIP3    H174155   5.679   5.192   4.730  0.2718  0.6209 -0.2168
17580TIP3    H274156   5.644   5.281   4.612 -0.4892 -0.7125 -1.0252
17581TIP3   OH274157   0.166   3.030   1.952 -0.1064 -0.3272  0.1175
17581TIP3    H174158   0.160   3.083   2.032  0.2651  0.4025 -0.3251
17581TIP3    H274159   0.112   3.078   1.889 -0.1151 -0.7133 -0.1668
17582TIP3   OH274160   2.499   1.901   4.727 -0.2256 -0.3912  0.0318
17582TIP3    H174161   2.489   1.848   4.805 -1.0458  1.8504  1.5544
17582TIP3    H274162   2.551   1.977   4.755  0.5129 -0.0918 -1.9165
17583TIP3   OH274163   1.671   5.141  14.289  0.6379  0.7642  0.1264
17583TIP3    H174164   1.712   5.151  14.203  3.5304 -1.6171  1.0808
17583TIP3    H274165   1.618   5.062  14.281  1.5758  0.0581  0.7137
17584TIP3   OH274166   5.689   5.990  14.903 -1.2081  0.0451 -0.1794
17584TIP3    H174167   5.677   6.004  14.809 -1.3440  2.7653  0.1433
17584TIP3    H274168   5.776   6.024  14.921 -0.5229 -1.9410  0.4803
17585TIP3   OH274169   2.969   0.096  11.201 -0.0697 -0.4824  0.3097
17585TIP3    H174170   2.971   0.028  11.134  1.6326 -0.4528  0.3064
17585TIP3    H274171   3.053   0.140  11.194 -0.6639  0.8482  1.1307
17586TIP3   OH274172   5.935   3.576   3.919  0.7795 -0.5183  0.2100
17586TIP3    H174173   6.013   3.585   3.864  1.3747  0.6661  1.2028
17586TIP3    H274174   5.959   3.617   4.002 -0.4863 -1.2502  0.9763
17587TIP3   OH274175   2.745   2.963  13.687 -0.3757  0.1788  0.1801
17587TIP3    H174176   2.793   2.943  13.768 -1.0373  1.4131  0.9116
17587TIP3    H274177   2.704   2.880  13.662 -0.8635 -0.0440  1.6090
17588TIP3   OH274178   1.016   2.193   3.197 -0.0075  0.2861 -0.1553
17588TIP3    H174179   0.976   2.276   3.225  2.3125  1.2056  0.7787
17588TIP3    H274180   1.066   2.216   3.119 -0.8282 -0.6870 -0.9844
17589TIP3   OH274181   0.432   0.668   6.729  0.0044 -0.0336 -0.1489
17589TIP3    H174182   0.365   0.647   6.664 -0.3016 -0.5317  0.3159
17589TIP3    H274183   0.476   0.745   6.694 -1.9704  1.4087  0.3565
17590TIP3   OH274184   2.323   5.742   1.009  0.0680 -0.2915  1.0793
17590TIP3    H174185   2.323   5.652   1.043 -1.9244 -0.5746  0.4991
17590TIP3    H274186   2.237   5.776   1.032  0.6654  1.3675  0.9685
17591TIP3   OH274187   0.855   3.095  15.614  0.0926  0.1109 -0.7140
17591TIP3    H174188   0.910   3.047  15.552 -1.0771 -0.8807 -1.0202
17591TIP3    H274189   0.765   3.075  15.587 -0.6204 -2.6551  2.8588
17592TIP3   OH274190   2.670   1.153  13.591 -0.1577  0.5164 -0.2681
17592TIP3    H174191   2.704   1.096  13.660 -1.1016  0.5034  0.1957
17592TIP3    H274192   2.647   1.094  13.520  0.9512  0.5427 -0.6701
17593TIP3   OH274193   6.316   0.560   2.465  0.0031  0.0666  0.1525
17593TIP3    H174194   6.323   0.499   2.392 -1.0637 -1.3371  1.1418
17593TIP3    H274195   6.222   0.562   2.485  0.2565  0.5345  1.3719
17594TIP3   OH274196   3.971   1.366  16.942 -0.3516  0.3856  0.2642
17594TIP3    H174197   4.057   1.394  16.910 -0.4291 -0.2199 -0.5068
17594TIP3    H274198   3.935   1.314  16.870 -1.3786  0.6573  0.5667
17595TIP3   OH274199   6.402   5.748  15.457 -0.0283  0.1510 -0.0233
17595TIP3    H174200   6.322   5.795  15.478 -1.0646 -0.7680 -1.6454
17595TIP3    H274201   6.381   5.656  15.474 -0.2722 -0.4112 -2.8752
17596TIP3   OH274202   0.371   6.304   0.341 -0.1270 -0.4362  0.6308
17596TIP3    H174203   0.392   6.393   0.370  0.4523  0.9945 -3.5256
17596TIP3    H274204   0.454   6.269   0.309 -1.0629 -0.7290 -1.6974
17597TIP3   OH274205   0.938   3.964  13.984  0.4744 -0.2710 -0.4971
17597TIP3    H174206   0.900   3.879  13.961  0.1156 -0.2271 -0.0942
17597TIP3    H274207   0.922   4.019  13.907 -0.2177 -0.2784 -0.3652
17598TIP3   OH274208   4.019   0.887   3.888  0.3760 -0.5899 -0.0897
17598TIP3    H174209   3.929   0.916   3.903  0.6438 -0.3341  1.0901
17598TIP3    H274210   4.040   0.831   3.962  1.2273 -0.5793 -0.3056
17599TIP3   OH274211   1.678   4.988  15.457  0.0274  0.1745  0.2197
17599TIP3    H174212   1.761   4.941  15.452 -0.1505 -0.0723 -0.4526
17599TIP3    H274213   1.625   4.952  15.387 -0.5225  0.5882  0.4124
17600TIP3   OH274214   1.866   2.774  14.832 -0.0614 -0.0386 -0.4542
17600TIP3    H174215   1.956   2.750  14.855 -0.2006 -0.6419 -0.5361
17600TIP3    H274216   1.812   2.725  14.894 -0.2690  3.3350  2.3772
17601TIP3   OH274217   4.016   3.161   1.269 -0.2034  0.3623 -0.2242
17601TIP3    H174218   4.031   3.238   1.324 -1.3237 -0.0308  0.6754
17601TIP3    H274219   3.937   3.183   1.218 -1.1973 -0.6017  0.8613
17602TIP3   OH274220   4.240   4.547  15.912  0.0640  0.0658  0.4858
17602TIP3    H174221   4.269   4.460  15.939  0.0152 -0.2660 -0.4895
17602TIP3    H274222   4.269   4.605  15.982  0.7326 -0.6301  0.7964
17603TIP3   OH274223   2.302   4.254  13.219 -0.0572 -0.7882  0.7456
17603TIP3    H174224   2.390   4.221  13.236 -0.1348 -1.4187  0.0035
17603TIP3    H274225   2.307   4.348  13.235 -0.2476 -1.2944  4.5766
17604TIP3   OH274226   4.899   2.127  11.125 -0.1003  0.5582  0.3817
17604TIP3    H174227   4.935   2.213  11.145 -0.8207  0.9666 -0.0162
17604TIP3    H274228   4.959   2.065  11.165  1.6559  1.1706 -1.1619
17605TIP3   OH274229   3.586   2.306  16.477  0.3685 -0.3862  0.1324
17605TIP3    H174230   3.541   2.336  16.556 -0.0608  0.9215 -0.5866
17605TIP3    H274231   3.554   2.217  16.463 -0.6844 -0.0902  0.6064
17606TIP3   OH274232   2.221   2.081   2.709 -0.0487  0.3359 -0.4658
17606TIP3    H174233   2.153   2.072   2.776 -0.3480  1.7455 -0.5374
17606TIP3    H274234   2.174   2.075   2.626  0.2449 -0.8627 -0.5621
17607TIP3   OH274235   5.797   4.921  16.434 -0.0841 -0.2012  0.0584
17607TIP3    H174236   5.763   4.854  16.492 -2.8933 -0.0660 -1.2735
17607TIP3    H274237   5.756   5.002  16.464  2.7198  0.9152  1.2070
17608TIP3   OH274238   4.065   4.168   1.381  0.6733 -0.4755  0.0236
17608TIP3    H174239   4.109   4.135   1.459  0.3858 -1.3615 -0.1778
17608TIP3    H274240   4.016   4.093   1.347  1.0874 -0.2135 -1.2129
17609TIP3   OH274241   6.041   6.341   5.751  0.1414 -0.1352  0.2350
17609TIP3    H174242   6.067   6.395   5.676 -0.8640 -0.8555 -0.6808
17609TIP3    H274243   6.121   6.295   5.776  0.4434 -0.0865 -0.5926
17610TIP3   OH274244   2.995   2.419   3.226  0.6245  0.3658 -0.6470
17610TIP3    H174245   2.998   2.339   3.279  1.8817  1.4990  1.1089
17610TIP3    H274246   2.948   2.482   3.281 -0.0304  0.9563 -1.8465
17611TIP3   OH274247   3.247   5.865  13.847 -0.8667 -0.0112 -0.0929
17611TIP3    H174248   3.172   5.924  13.857 -0.8226  0.8200 -3.4486
17611TIP3    H274249   3.320   5.923  13.824 -0.1691 -1.1519 -0.8408
17612TIP3   OH274250   6.068   4.321  17.396  0.3447  0.4077  0.1672
17612TIP3    H174251   6.002   4.315  17.466 -0.4732  1.1135 -0.5187
17612TIP3    H274252   6.144   4.360  17.439 -0.5101  1.8282  0.4605
17613TIP3   OH274253   4.811   2.385   2.055 -0.6380 -0.2898 -0.5223
17613TIP3    H174254   4.723   2.406   2.087 -1.1895  0.1728 -2.2424
17613TIP3    H274255   4.862   2.464   2.071 -0.7818 -0.2216 -0.3893
17614TIP3   OH274256   0.390   4.974   2.426  0.6663  0.3030 -0.1452
17614TIP3    H174257   0.392   5.066   2.451 -0.0347  0.4649 -0.6472
17614TIP3    H274258   0.368   4.974   2.333 -0.5244 -0.3888  0.1089
17615TIP3   OH274259   6.507   2.005  16.911 -0.4856  0.4967 -0.5788
17615TIP3    H174260   6.509   2.094  16.947  0.1240  0.9533 -1.7103
17615TIP3    H274261   6.429   2.003  16.857 -0.1989  0.5158 -0.9926
17616TIP3   OH274262   3.024   0.948   2.672 -0.2883 -0.3546 -0.1740
17616TIP3    H174263   3.015   1.039   2.643  1.5805  0.1586  0.7031
17616TIP3    H274264   3.111   0.922   2.642  0.0960 -1.0993  1.4875
17617TIP3   OH274265   1.160   6.061   1.641 -0.1714 -0.2401 -0.7773
17617TIP3    H174266   1.168   6.044   1.735 -0.0989  1.0396 -0.5286
17617TIP3    H274267   1.169   5.975   1.600  1.3499 -0.6321  0.2985
17618TIP3   OH274268   6.420   4.262   0.496 -0.7513 -0.2698 -0.3800
17618TIP3    H174269   6.469   4.332   0.539 -1.2128  0.6732 -1.3497
17618TIP3    H274270   6.457   4.181   0.532  1.6337  0.3780 -1.1995
17619TIP3   OH274271   1.847   5.378  13.752  0.3407  0.3376 -0.4224
17619TIP3    H174272   1.801   5.361  13.834 -0.1301  1.1849 -0.5008
17619TIP3    H274273   1.833   5.298  13.701  1.3588 -0.5464  0.6151
17620TIP3   OH274274   4.105   3.628   5.352  0.3432  0.0248 -0.5842
17620TIP3    H174275   4.121   3.697   5.287  0.8207 -0.2740 -0.7869
17620TIP3    H274276   4.031   3.661   5.404  1.1226  1.1010 -0.1127
17621TIP3   OH274277   5.360   0.297  12.210  0.5244  0.0347 -0.4293
17621TIP3    H174278   5.390   0.217  12.167  1.1703 -0.6764  1.2400
17621TIP3    H274279   5.303   0.266  12.280  2.4393  0.8189  1.5940
17622TIP3   OH274280   0.323   4.804  15.717 -0.3216 -0.0221 -0.1306
17622TIP3    H174281   0.228   4.809  15.729 -0.4292  0.3089 -1.0735
17622TIP3    H274282   0.359   4.816  15.805 -1.1773 -1.3244  0.4367
17623TIP3   OH274283   6.263   0.349  14.872  0.3951  0.0544  0.2456
17623TIP3    H174284   6.310   0.399  14.806  0.2961  0.2846  0.3473
17623TIP3    H274285   6.207   0.289  14.821 -0.0075  0.5342  0.1120
17624TIP3   OH274286   1.425   0.612  12.092 -0.1585 -0.6812  0.1913
17624TIP3    H174287   1.481   0.657  12.029 -1.5895  0.6592 -0.1796
17624TIP3    H274288   1.468   0.527  12.105  2.2857  0.5033  0.4280
17625TIP3   OH274289   1.442   2.208   5.188 -0.1031  0.6291 -0.3850
17625TIP3    H174290   1.525   2.249   5.165  1.9726 -1.6479  2.2084
17625TIP3    H274291   1.414   2.253   5.268  2.3241 -2.6245  2.6364
17626TIP3   OH274292   0.859   4.033  16.058  0.2085 -0.0255  0.1157
17626TIP3    H174293   0.878   4.041  15.965  0.2475  0.6688  0.1726
17626TIP3    H274294   0.935   3.988  16.094  0.1887 -0.3040 -0.1903
17627TIP3   OH274295   3.203   0.736   5.529 -0.2693 -0.1794 -0.2074
17627TIP3    H174296   3.157   0.669   5.478  0.3763 -1.0802  0.3730
17627TIP3    H274297   3.212   0.809   5.468  0.0460 -1.0430 -1.2403
17628TIP3   OH274298   4.380   6.585  16.706  0.0006 -0.1583 -0.4814
17628TIP3    H174299   4.439   6.620  16.639  0.5763 -1.5428 -0.7334
17628TIP3    H274300   4.295   6.626  16.688  0.5370  0.7173 -1.0440
17629TIP3   OH274301   0.383   4.071  15.022  0.2612 -0.0339  0.3539
17629TIP3    H174302   0.362   4.007  15.090  0.8629 -1.0187 -0.3607
17629TIP3    H274303   0.457   4.120  15.058 -0.8891  1.0474  1.3664
17630TIP3   OH274304   2.966   2.826  15.310  0.1292 -0.0443  0.7104
17630TIP3    H174305   2.906   2.778  15.252  0.1912  2.2865 -1.4708
17630TIP3    H274306   3.035   2.762  15.331  0.5213 -0.8651 -2.4966
17631TIP3   OH274307   5.906   1.250   4.013  0.6861  0.2227  0.1480
17631TIP3    H174308   5.939   1.199   3.939  0.5989  0.5555 -0.1254
17631TIP3    H274309   5.972   1.319   4.025  1.0286 -0.2070  0.7964
17632TIP3   OH274310   2.546   1.416   3.614  0.0211  0.4132 -0.8217
17632TIP3    H174311   2.506   1.335   3.582 -0.7930  0.6429 -0.4127
17632TIP3    H274312   2.524   1.418   3.707  0.6534  0.7500 -0.6742
17633TIP3   OH274313   4.250   5.357   5.356 -0.0104  0.1300 -0.3340
17633TIP3    H174314   4.188   5.333   5.425 -0.3177 -0.7510 -0.9002
17633TIP3    H274315   4.335   5.355   5.398 -0.3231  1.1081  0.3929
17634TIP3   OH274316   1.788   6.473   6.266 -0.1694  0.6238 -0.5016
17634TIP3    H174317   1.840   6.399   6.298 -2.6302 -1.1819 -0.3632
17634TIP3    H274318   1.741   6.504   6.344 -1.1441  0.5993 -1.0753
17635TIP3   OH274319   3.545   3.761   1.429  0.3495  0.1368  0.3035
17635TIP3    H174320   3.482   3.729   1.365  1.4678  0.4022 -0.9659
17635TIP3    H274321   3.569   3.684   1.481 -0.9277  0.0181  0.7561
17636TIP3   OH274322   3.549   1.127   3.078 -0.0060  0.0343  0.2782
17636TIP3    H174323   3.560   1.152   3.169  0.3641 -0.1887  0.2985
17636TIP3    H274324   3.603   1.048   3.068 -0.2253 -0.0733 -0.0737
17637TIP3   OH274325   0.135   4.372  14.711 -1.0186 -0.5505  0.2068
17637TIP3    H174326   0.121   4.323  14.630 -1.2220 -1.0167  0.5205
17637TIP3    H274327   0.229   4.393  14.711 -1.1238 -0.0248 -0.4344
17638TIP3   OH274328   4.215   4.840  13.032  0.2638  0.2303 -0.0755
17638TIP3    H174329   4.183   4.757  13.068  0.0220  0.3452 -0.0238
17638TIP3    H274330   4.198   4.834  12.938  0.6618  0.0358 -0.1399
17639TIP3   OH274331   5.693   0.341  11.293  0.3386  0.2245  0.7191
17639TIP3    H174332   5.740   0.258  11.287 -0.9826 -0.6038  1.3448
17639TIP3    H274333   5.760   0.408  11.279  1.4642 -0.9354  0.4027
17640TIP3   OH274334   3.297   3.197   5.929 -0.3150  0.0396 -0.6585
17640TIP3    H174335   3.215   3.169   5.971  1.0988  0.3479  2.5898
17640TIP3    H274336   3.308   3.288   5.957  1.5663 -0.2765 -0.2560
17641TIP3   OH274337   6.610   0.266   0.098 -0.2544  0.7827  0.1411
17641TIP3    H174338   6.549   0.208   0.052  0.9985  0.9089 -1.8257
17641TIP3    H274339   6.641   0.214   0.172  1.4469 -1.4954 -2.0081
17642TIP3   OH274340   6.478   5.976  13.447 -0.0525  0.1919 -0.2781
17642TIP3    H174341   6.560   5.931  13.424  0.7960  1.2921  0.4981
17642TIP3    H274342   6.417   5.950  13.379  0.9633 -0.5909 -0.9294
17643TIP3   OH274343   4.034   5.475   3.383 -0.1977  0.0435 -0.1772
17643TIP3    H174344   3.952   5.429   3.400  0.7572 -1.6476  0.1118
17643TIP3    H274345   4.060   5.511   3.468  0.1119 -0.7327  0.0617
17644TIP3   OH274346   1.881   5.908  16.958  0.2208 -0.4815 -0.7442
17644TIP3    H174347   1.821   5.899  17.033  0.1483  2.1465 -0.3932
17644TIP3    H274348   1.824   5.929  16.884  0.5839  1.8407 -0.4471
17645TIP3   OH274349   0.401   5.840   2.275  0.1759 -0.2213 -0.0393
17645TIP3    H174350   0.360   5.894   2.208  1.2385 -0.4756 -0.9148
17645TIP3    H274351   0.490   5.825   2.243 -0.1380 -2.6793  0.0390
17646TIP3   OH274352   3.874   1.492   3.239 -0.2344 -0.0356  0.2291
17646TIP3    H174353   3.808   1.557   3.216 -0.5993 -0.3972  0.2504
17646TIP3    H274354   3.874   1.490   3.335 -0.8875 -0.7303  0.2261
17647TIP3   OH274355   4.850   4.771   3.659 -0.0209 -0.0785  0.8560
17647TIP3    H174356   4.884   4.681   3.657 -0.3068 -0.2154 -1.5968
17647TIP3    H274357   4.925   4.825   3.634 -0.0596  0.2880  1.5179
17648TIP3   OH274358   5.107   4.191  14.457 -0.2237 -0.2763  0.9341
17648TIP3    H174359   5.073   4.106  14.486  0.8503 -1.7746 -1.8194
17648TIP3    H274360   5.029   4.240  14.432 -0.7510 -1.3659  0.3591
17649TIP3   OH274361   2.465   2.673   5.772 -0.1641  0.2083 -0.2728
17649TIP3    H174362   2.549   2.628   5.763  0.8774  1.8136  0.7707
17649TIP3    H274363   2.425   2.635   5.850  0.4726  0.6869  0.3048
17650TIP3   OH274364   3.338   4.210   3.885  0.5746  0.5496  0.3192
17650TIP3    H174365   3.423   4.245   3.858 -0.5041  1.8156 -1.7141
17650TIP3    H274366   3.274   4.270   3.847 -1.2987 -1.4665  0.0346
17651TIP3   OH274367   1.839   6.139   4.258  0.5130  0.0651  0.0651
17651TIP3    H174368   1.934   6.127   4.259  0.2755 -2.2662  0.9682
17651TIP3    H274369   1.806   6.063   4.209 -0.9104  0.5480  0.2411
17652TIP3   OH274370   2.647   3.796  17.383 -0.1452 -0.1790  0.1427
17652TIP3    H174371   2.699   3.866  17.422 -1.3605  0.2180  1.1244
17652TIP3    H274372   2.638   3.821  17.291  1.4657 -0.3201 -0.0801
17653TIP3   OH274373   0.857   5.380   0.574 -0.8125 -0.2784  0.5630
17653TIP3    H174374   0.834   5.288   0.591 -1.2380 -0.1603  0.6271
17653TIP3    H274375   0.781   5.415   0.528 -1.9700  0.8700  3.1498
17654TIP3   OH274376   2.102   3.417  13.380 -0.0813 -0.1852  0.4517
17654TIP3    H174377   2.147   3.464  13.450  1.3567 -1.5381  0.4700
17654TIP3    H274378   2.131   3.461  13.300 -2.2251  1.7860  0.6324
17655TIP3   OH274379   1.663   0.749  16.365 -0.1736 -0.3552 -0.1672
17655TIP3    H174380   1.695   0.660  16.349 -0.6266 -0.4230 -0.7246
17655TIP3    H274381   1.609   0.741  16.444 -0.2651 -0.5927 -0.2521
17656TIP3   OH274382   3.077   4.313   1.931  0.8459 -0.5982 -0.0010
17656TIP3    H174383   3.036   4.244   1.983 -0.8008 -1.2135 -1.9862
17656TIP3    H274384   3.008   4.378   1.918  1.7284  0.3724 -0.0303
17657TIP3   OH274385   0.441   5.951   5.065  0.4107 -0.0436  0.7988
17657TIP3    H174386   0.506   5.886   5.091  0.7474 -0.3854 -0.7944
17657TIP3    H274387   0.357   5.914   5.093  0.6429 -0.9524  0.3291
17658TIP3   OH274388   0.189   5.489   4.320 -0.1655  0.1034 -0.5745
17658TIP3    H174389   0.151   5.572   4.290  1.8029  1.2381 -0.1590
17658TIP3    H274390   0.280   5.493   4.291  0.3259 -1.3075  0.6513
17659TIP3   OH274391   3.083   4.267   5.260 -0.1170  0.3120 -0.0548
17659TIP3    H174392   3.101   4.236   5.171 -1.8644 -1.2375  0.0583
17659TIP3    H274393   3.083   4.363   5.252 -2.3252  0.2446 -2.2627
17660TIP3   OH274394   2.095   3.641  12.764  0.6754  0.1153  0.0542
17660TIP3    H174395   2.185   3.671  12.748  0.9316  0.3422  1.7469
17660TIP3    H274396   2.066   3.692  12.839 -0.0271 -1.6217  1.0259
17661TIP3   OH274397   5.138   0.623   2.406 -0.6173 -0.2226  0.1884
17661TIP3    H174398   5.154   0.670   2.324 -0.1651 -0.1975  0.2891
17661TIP3    H274399   5.056   0.577   2.391  0.0658 -1.2045 -0.7386
17662TIP3   OH274400   1.596   3.897  14.325 -0.0446  0.2674 -0.0957
17662TIP3    H174401   1.590   3.954  14.249 -0.7601  0.9222  0.4249
17662TIP3    H274402   1.674   3.927  14.372  0.1064  0.2003 -0.3038
17663TIP3   OH274403   0.690   5.105  17.167 -0.2046 -0.3489 -0.1497
17663TIP3    H174404   0.613   5.076  17.118 -0.6309  0.7047 -0.1209
17663TIP3    H274405   0.660   5.181  17.217  0.4882 -0.7760  0.9568
17664TIP3   OH274406   1.596   5.285  11.303  0.3441  0.1539 -0.3161
17664TIP3    H174407   1.618   5.241  11.385  0.6308  0.0461 -0.4490
17664TIP3    H274408   1.680   5.299  11.260  0.1962  0.2222 -0.5868
17665TIP3   OH274409   5.077   3.352  16.448  0.1183 -0.2792 -0.5884
17665TIP3    H174410   5.095   3.447  16.445 -1.6172  0.1631  1.1242
17665TIP3    H274411   5.145   3.318  16.506  0.5375 -0.0490 -0.9299
17666TIP3   OH274412   6.476   4.844  11.204  0.0475  0.7527 -0.5776
17666TIP3    H174413   6.412   4.843  11.133 -0.0053  0.8685 -0.5327
17666TIP3    H274414   6.500   4.752  11.217  0.1631  0.7440 -0.8410
17667TIP3   OH274415   2.621   1.698   2.013 -0.1042 -0.2018  0.3521
17667TIP3    H174416   2.713   1.725   2.021 -0.2755  0.6125 -0.3750
17667TIP3    H274417   2.592   1.733   1.929 -0.4112 -2.4695 -0.5706
17668TIP3   OH274418   6.740   6.138   4.395 -0.1496  0.1134 -0.0928
17668TIP3    H174419   6.816   6.082   4.412  0.1453 -0.1155 -1.9787
17668TIP3    H274420   6.754   6.215   4.450  1.0748 -0.2539  0.1299
17669TIP3   OH274421   6.621   4.361   2.409  0.2007  0.1087 -0.3893
17669TIP3    H174422   6.585   4.290   2.462  0.8283  0.5536  0.6577
17669TIP3    H274423   6.549   4.386   2.351 -1.0115  0.5892  1.2380
17670TIP3   OH274424   1.888   3.824  10.891  0.0240 -0.5692  0.9704
17670TIP3    H174425   1.920   3.870  10.813  2.2793  0.4592  2.3740
17670TIP3    H274426   1.799   3.799  10.869 -0.2682  1.8086 -1.0542
17671TIP3   OH274427   3.848   4.335   3.393  0.3604  0.2885 -0.6419
17671TIP3    H174428   3.944   4.335   3.383  0.4654 -2.1211 -0.2769
17671TIP3    H274429   3.814   4.347   3.305  1.0687 -1.4815 -1.2020
17672TIP3   OH274430   2.376   3.803  12.465 -0.0183 -0.1549 -0.7098
17672TIP3    H174431   2.328   3.788  12.547  0.2270  0.3683 -0.4688
17672TIP3    H274432   2.428   3.881  12.482  0.3953 -0.3223 -1.2086
17673TIP3   OH274433   2.544   4.881   4.997 -0.2048 -0.1870  0.2272
17673TIP3    H174434   2.473   4.927   4.951 -0.0660 -0.7318 -0.5471
17673TIP3    H274435   2.574   4.943   5.063  0.0065  0.8653 -0.8278
17674TIP3   OH274436   1.346   1.968  16.192 -0.3879 -0.2233 -0.6379
17674TIP3    H174437   1.287   1.897  16.168 -0.4430 -0.0330 -1.0910
17674TIP3    H274438   1.432   1.938  16.162 -0.6788  0.6356 -2.4829
17675TIP3   OH274439   3.089   5.414   2.858 -0.2640  0.6983 -0.1985
17675TIP3    H174440   2.997   5.393   2.842  0.1802 -0.3783 -1.6300
17675TIP3    H274441   3.113   5.363   2.935 -0.3157 -0.8112 -1.1411
17676TIP3   OH274442   0.319   3.261   5.245 -1.0006 -0.4450 -0.3596
17676TIP3    H174443   0.305   3.329   5.312  0.7452 -0.4899  0.0996
17676TIP3    H274444   0.373   3.195   5.288 -0.2957 -0.7473 -1.6458
17677TIP3   OH274445   6.514   3.012   4.054 -0.2103 -0.0211 -0.1823
17677TIP3    H174446   6.596   3.013   4.103  0.0001 -0.1722 -0.5248
17677TIP3    H274447   6.446   3.011   4.121  0.0765 -2.4640  0.1657
17678TIP3   OH274448   2.834   0.693   0.202 -0.3419  1.0956  0.2749
17678TIP3    H174449   2.801   0.649   0.281 -0.1587  0.7372  0.1545
17678TIP3    H274450   2.928   0.703   0.218  0.7450 -3.2347 -1.7744
17679TIP3   OH274451   5.160   1.641   0.918  0.0743  0.1518 -0.1251
17679TIP3    H174452   5.202   1.655   0.833 -0.6684  0.9820 -0.3756
17679TIP3    H274453   5.138   1.729   0.949 -1.7025 -0.2387 -0.1440
17680TIP3   OH274454   1.251   0.131  13.513 -0.2512 -0.3877  0.1800
17680TIP3    H174455   1.287   0.189  13.446  0.6703 -1.2963 -0.1368
17680TIP3    H274456   1.245   0.185  13.591  1.3523 -0.0687  0.1044
17681TIP3   OH274457   1.208   0.905  11.287 -0.0781  0.0239  0.2241
17681TIP3    H174458   1.196   0.811  11.273  0.9156  0.1058 -1.4658
17681TIP3    H274459   1.297   0.914  11.320  0.5468  0.4616 -1.4535
17682TIP3   OH274460   1.309   4.593  10.823  0.0404  0.3026 -0.0606
17682TIP3    H174461   1.390   4.565  10.866  0.1239  1.3834  0.5165
17682TIP3    H274462   1.241   4.544  10.868  0.3177 -0.1888 -0.1642
17683TIP3   OH274463   4.001   5.835   2.482 -0.4696  0.3873  0.1636
17683TIP3    H174464   4.038   5.902   2.425 -1.0070  0.2631 -0.3380
17683TIP3    H274465   3.964   5.770   2.423 -1.6163  0.5800  0.6330
17684TIP3   OH274466   6.126   6.585   2.621  0.1630  0.6795 -0.3422
17684TIP3    H174467   6.045   6.634   2.605  0.4553  1.7018  1.2013
17684TIP3    H274468   6.175   6.637   2.684  1.1084 -0.9400  0.3409
17685TIP3   OH274469   3.594   6.445  16.802  0.0782  0.2248 -0.5443
17685TIP3    H174470   3.552   6.424  16.718 -0.8720  0.6133 -0.1867
17685TIP3    H274471   3.609   6.359  16.842 -0.7311  0.0782 -0.5270
17686TIP3   OH274472   5.880   5.805   6.477  0.1794  0.0477 -0.1241
17686TIP3    H174473   5.824   5.853   6.537  1.0977 -1.8973  2.5049
17686TIP3    H274474   5.822   5.742   6.434 -0.3784  1.0773 -0.9390
17687TIP3   OH274475   3.582   0.620  16.440 -0.1847 -0.2852  0.2665
17687TIP3    H174476   3.537   0.546  16.481 -1.2235  0.5169  0.5944
17687TIP3    H274477   3.544   0.626  16.352  0.0254 -0.2441  0.1765
17688TIP3   OH274478   4.983   2.399  15.900 -0.4421  0.5728 -0.1152
17688TIP3    H174479   5.026   2.456  15.963  0.8582  0.4934 -0.8970
17688TIP3    H274480   4.906   2.365  15.946  0.5768  0.3501  1.4856
17689TIP3   OH274481   0.031   5.849  14.565 -0.6983  0.1271  0.6247
17689TIP3    H174482   0.114   5.866  14.609 -0.7398  2.5304 -0.1108
17689TIP3    H274483  -0.033   5.902  14.612 -1.4770 -0.3276  0.0960
17690TIP3   OH274484   4.367   0.540  16.409  0.1840 -0.5593  0.2681
17690TIP3    H174485   4.447   0.593  16.407  1.0219 -1.8119 -0.1337
17690TIP3    H274486   4.351   0.517  16.318 -0.9373  0.0870  0.2821
17691TIP3   OH274487   2.874   3.761  14.498  0.4822  0.2720  1.1654
17691TIP3    H174488   2.865   3.819  14.574  0.5257  0.7113  0.8341
17691TIP3    H274489   2.901   3.677  14.536 -0.8042  0.1038  1.7710
17692TIP3   OH274490   6.378   1.632   1.399  0.0788 -0.5224 -0.5034
17692TIP3    H174491   6.303   1.679   1.436  0.3282 -1.0390  0.6968
17692TIP3    H274492   6.454   1.670   1.441  0.3033 -1.7979  0.2908
17693TIP3   OH274493   5.965   0.587  12.451  0.2403 -0.4314  0.0330
17693TIP3    H174494   5.923   0.673  12.444  1.1815 -0.0560 -1.2710
17693TIP3    H274495   5.987   0.579  12.544 -2.6709 -0.6587  0.7953
17694TIP3   OH274496   6.117   2.033  17.260  0.1530  0.4446  0.2812
17694TIP3    H174497   6.112   1.952  17.311 -0.8508  1.7306  2.3625
17694TIP3    H274498   6.077   2.012  17.176  0.8823 -1.4726  0.3704
17695TIP3   OH274499   1.850   0.413   1.958 -0.1966  0.4639 -0.3193
17695TIP3    H174500   1.781   0.458   1.908 -0.3606 -0.0738 -0.5850
17695TIP3    H274501   1.864   0.331   1.911  1.9360  1.3443 -1.3414
17696TIP3   OH274502   5.963   0.716  15.479 -0.2579  0.2972  0.1047
17696TIP3    H174503   6.026   0.645  15.494  0.0813  1.1658  3.7557
17696TIP3    H274504   6.012   0.796  15.501 -1.6286  1.3821 -0.6189
17697TIP3   OH274505   1.345   0.221  16.465  0.1023  0.1313 -0.6026
17697TIP3    H174506   1.266   0.179  16.498  0.5413  0.9881  1.7263
17697TIP3    H274507   1.316   0.306  16.432  0.0884  0.7009  0.8135
17698TIP3   OH274508   2.941   2.236   5.021 -0.3217  0.4741 -0.3368
17698TIP3    H174509   3.006   2.195   4.963  2.3387 -0.3448  2.8555
17698TIP3    H274510   2.928   2.324   4.985  0.7083 -0.1593 -2.4305
17699TIP3   OH274511   5.395   5.197  11.666  0.6251  0.4989 -0.4746
17699TIP3    H174512   5.484   5.213  11.635  0.1621  1.8516 -1.2009
17699TIP3    H274513   5.367   5.119  11.619  1.4690 -0.0085 -0.1396
17700TIP3   OH274514   0.753   3.024   4.729 -0.6024 -0.6657  0.7411
17700TIP3    H174515   0.834   3.040   4.777 -0.3926  0.5083  0.0186
17700TIP3    H274516   0.686   3.019   4.797 -0.1842  0.1460  1.2326
17701TIP3   OH274517   5.092   3.717  16.649  0.4276  0.3112  0.5703
17701TIP3    H174518   5.024   3.682  16.591  0.1463  1.1017  0.4165
17701TIP3    H274519   5.161   3.650  16.648  0.1445  0.0192 -0.1630
17702TIP3   OH274520   1.458   1.012  14.120 -0.1966 -0.4519  0.1620
17702TIP3    H174521   1.467   1.092  14.068 -0.4326  0.8479  2.0252
17702TIP3    H274522   1.534   1.012  14.178 -0.9278 -0.8198  1.1607
17703TIP3   OH274523   1.886   0.650   5.705  1.0280  0.0340 -0.4176
17703TIP3    H174524   1.897   0.677   5.613  1.1004 -0.7750 -0.6539
17703TIP3    H274525   1.846   0.563   5.700  3.7352 -1.3525  0.2276
17704TIP3   OH274526   6.750   1.108   5.470  0.3543  0.4809  0.1466
17704TIP3    H174527   6.727   1.151   5.552  1.5189 -0.4771  1.0027
17704TIP3    H274528   6.823   1.159   5.435  0.0590  0.7029 -0.1664
17705TIP3   OH274529   0.554   6.556  10.662  0.2618 -0.2152 -0.5212
17705TIP3    H174530   0.485   6.509  10.708  0.7897  0.1877  0.7163
17705TIP3    H274531   0.544   6.528  10.571 -1.1205 -0.6455 -0.2707
17706TIP3   OH274532   4.763   1.739  12.127  0.8949 -0.3306  0.0599
17706TIP3    H174533   4.850   1.766  12.158  1.6072 -0.1209 -1.9413
17706TIP3    H274534   4.765   1.644  12.130  2.9314 -0.6087 -3.9548
17707TIP3   OH274535   5.696   1.962  12.940 -0.1141  0.0606 -0.9210
17707TIP3    H174536   5.774   1.999  12.982 -0.3711 -2.2313  1.8693
17707TIP3    H274537   5.625   2.022  12.963  0.2136  0.2024 -0.2382
17708TIP3   OH274538   6.224   0.242   0.144  0.1897 -0.4691 -0.0493
17708TIP3    H174539   6.272   0.295   0.207 -1.2367  0.3496  0.3916
17708TIP3    H274540   6.183   0.306   0.085 -0.1242 -1.1517 -0.5851
17709TIP3   OH274541   4.185   6.727  14.262 -0.2691  0.0827  0.1364
17709TIP3    H174542   4.161   6.795  14.199 -0.4068  0.8499  0.9891
17709TIP3    H274543   4.182   6.645  14.212 -4.1635  0.1391  0.0246
17710TIP3   OH274544   2.802   3.513   0.114 -0.5108 -0.7017  0.1939
17710TIP3    H174545   2.753   3.580   0.067 -0.8458 -1.8226 -1.1001
17710TIP3    H274546   2.877   3.560   0.152 -1.9560  0.8209  1.2740
17711TIP3   OH274547   4.739   3.648  16.983 -0.1119  0.5493  0.2140
17711TIP3    H174548   4.750   3.618  16.893  1.0462 -1.6463  1.0177
17711TIP3    H274549   4.661   3.603  17.014  0.5159 -0.1332  0.8385
17712TIP3   OH274550   6.035   0.198  12.084  0.1372  0.3362  0.3177
17712TIP3    H174551   6.045   0.258  12.158 -0.7634  1.0673 -0.1158
17712TIP3    H274552   6.115   0.209  12.033  0.5439  0.2009  0.9235
17713TIP3   OH274553   6.071   5.938  11.106  0.0308  0.5960  0.0479
17713TIP3    H174554   6.124   5.994  11.048  0.0544  0.7932  0.2569
17713TIP3    H274555   6.113   5.947  11.192 -1.6253  2.5351  0.7311
17714TIP3   OH274556   6.625   4.610   4.445  0.1393  0.0947 -0.0739
17714TIP3    H174557   6.713   4.646   4.456  1.3290 -1.5165 -3.1183
17714TIP3    H274558   6.618   4.591   4.351 -3.2004 -0.5516  0.1794
17715TIP3   OH274559   1.075   6.228   5.024 -0.6590  0.5480  0.0937
17715TIP3    H174560   1.041   6.184   5.102  0.0790 -0.4122 -0.0971
17715TIP3    H274561   1.003   6.281   4.993 -1.3642 -0.0036  0.7454
17716TIP3   OH274562   4.900   2.036  12.344  0.5275 -0.0126  0.3775
17716TIP3    H174563   4.877   1.944  12.358 -0.4868  0.1470 -0.1199
17716TIP3    H274564   4.941   2.037  12.257  1.8457 -0.1926  0.9767
17717TIP3   OH274565   3.956   1.726  13.372  0.3306  0.4186 -0.6251
17717TIP3    H174566   3.982   1.818  13.381  0.5059  0.3003  0.1993
17717TIP3    H274567   3.863   1.725  13.398  0.6247  0.1981  0.4668
17718TIP3   OH274568   1.467   1.203  16.749  0.3721  0.8337  0.0534
17718TIP3    H174569   1.371   1.208  16.755  0.4421  0.7976  1.3649
17718TIP3    H274570   1.483   1.180  16.657 -0.9898 -1.6641  0.3562
17719TIP3   OH274571   2.443   3.803  15.138  0.7737  0.1554  0.2058
17719TIP3    H174572   2.352   3.794  15.113  0.0260  0.3093  2.6310
17719TIP3    H274573   2.492   3.778  15.060 -1.3161 -0.8438 -0.8606
17720TIP3   OH274574   2.368   2.949  12.024  0.2648  0.2435 -0.5240
17720TIP3    H174575   2.402   2.880  12.081  1.2858 -0.2235 -1.6731
17720TIP3    H274576   2.293   2.908  11.980  1.1897 -0.3276 -1.5996
17721TIP3   OH274577   0.564   2.744  13.101 -0.1823 -0.0709 -0.4786
17721TIP3    H174578   0.487   2.760  13.047 -0.6204 -2.5435 -0.7097
17721TIP3    H274579   0.603   2.664  13.065  3.0941  1.5497 -0.9704
17722TIP3   OH274580   0.671   6.580   0.801 -0.2755 -0.0171 -0.0381
17722TIP3    H174581   0.600   6.572   0.738  3.0190  2.0070 -4.5522
17722TIP3    H274582   0.659   6.666   0.841  1.1987  1.9581 -3.4291
17723TIP3   OH274583   2.313   3.877  16.086  0.0852 -0.0293 -0.2811
17723TIP3    H174584   2.397   3.856  16.046  1.0409  1.9672  0.5525
17723TIP3    H274585   2.310   3.973  16.086 -1.4015 -0.0322  1.3068
17724TIP3   OH274586   1.801   2.044  13.039 -1.0229  0.3367  0.0696
17724TIP3    H174587   1.770   2.032  12.949 -0.4308 -1.0268  0.0202
17724TIP3    H274588   1.817   1.955  13.071  3.6370  0.8318 -0.2245
17725TIP3   OH274589   2.431   0.235   2.642  0.1617  0.4814 -0.1601
17725TIP3    H174590   2.339   0.237   2.618 -0.5596 -0.3990  2.2436
17725TIP3    H274591   2.435   0.281   2.726  2.1130  1.4516 -0.7199
17726TIP3   OH274592   5.513   6.448  11.318 -0.1917 -0.2466 -0.0001
17726TIP3    H174593   5.452   6.491  11.258 -2.3018  2.8846  3.8783
17726TIP3    H274594   5.463   6.374  11.353  0.1113 -0.6102 -0.3322
17727TIP3   OH274595   2.427   0.604   2.593  0.3327  0.1930  0.2017
17727TIP3    H174596   2.386   0.592   2.679  0.7433 -0.2136  0.3428
17727TIP3    H274597   2.359   0.580   2.530  0.3771 -0.5740  0.4359
17728TIP3   OH274598   2.081   3.127  13.964 -0.6740  0.1138 -0.2597
17728TIP3    H174599   2.026   3.197  13.997  1.1268  1.7006 -0.4335
17728TIP3    H274600   2.143   3.171  13.905  2.6453 -0.9722  2.1149
17729TIP3   OH274601   3.807   5.561  11.736 -0.2544  0.6092 -0.3716
17729TIP3    H174602   3.859   5.611  11.799  0.8656  0.1094 -0.8732
17729TIP3    H274603   3.731   5.531  11.786  0.2667  0.7991  0.5585
17730TIP3   OH274604   3.838   1.798  16.079 -0.5833  0.6175 -0.4257
17730TIP3    H174605   3.826   1.725  16.018 -1.3301  1.0408 -0.8051
17730TIP3    H274606   3.810   1.875  16.030  0.4921  1.2179 -0.1399
17731TIP3   OH274607   5.672   0.074   4.214 -0.0741 -0.6453 -0.3755
17731TIP3    H174608   5.738   0.110   4.156 -0.5321 -1.4480 -1.4252
17731TIP3    H274609   5.709   0.084   4.302  0.0540  1.8391 -0.6250
17732TIP3   OH274610   3.126   6.706  12.882 -0.4796 -0.5462 -0.1811
17732TIP3    H174611   3.206   6.759  12.879 -1.3350  0.7290 -1.9187
17732TIP3    H274612   3.148   6.627  12.831 -0.1315 -0.4909 -0.1193
17733TIP3   OH274613   6.462   5.373   5.447 -0.1905 -0.8605 -0.0187
17733TIP3    H174614   6.469   5.322   5.528  1.8433 -1.5482 -0.5603
17733TIP3    H274615   6.497   5.315   5.379  0.5127  0.6100 -0.9688
17734TIP3   OH274616   5.839   1.097   4.821  0.3788  0.7316  0.0402
17734TIP3    H174617   5.862   1.127   4.733  0.3683  0.9247  0.1021
17734TIP3    H274618   5.744   1.103   4.825  0.2659 -0.4853 -0.3655
17735TIP3   OH274619   1.264   0.113  14.390 -0.1288 -0.2370 -0.3890
17735TIP3    H174620   1.348   0.095  14.347  0.5672  0.1687  0.7420
17735TIP3    H274621   1.283   0.103  14.484 -1.0396  0.9994 -0.0495
17736TIP3   OH274622   4.476   2.470   5.192  0.2473 -0.4580  1.0587
17736TIP3    H174623   4.383   2.467   5.213 -0.2803  0.6167 -0.9086
17736TIP3    H274624   4.484   2.539   5.127  2.3994 -0.6913  0.9994
17737TIP3   OH274625   4.669   3.920   5.318 -0.3537  0.4205  0.4386
17737TIP3    H174626   4.719   3.848   5.280 -0.1068  0.4551  0.6992
17737TIP3    H274627   4.667   3.901   5.412  0.0706  0.9755  0.5596
17738TIP3   OH274628   6.295   4.035   4.141 -0.4512 -0.0023 -0.4629
17738TIP3    H174629   6.371   3.979   4.157 -0.2912 -0.1382 -1.6240
17738TIP3    H274630   6.259   4.052   4.228  0.7160 -0.2001  0.0745
17739TIP3   OH274631   3.673   6.610   3.368  0.2229  0.0471  0.1483
17739TIP3    H174632   3.596   6.563   3.336 -0.5109  2.1743 -1.3637
17739TIP3    H274633   3.666   6.605   3.464  0.4640 -3.2589  0.1206
17740TIP3   OH274634   4.948   3.788  16.175 -0.3083  0.4859 -0.2720
17740TIP3    H174635   5.041   3.778  16.153 -0.5262  0.3549 -1.1556
17740TIP3    H274636   4.904   3.800  16.091 -1.2267 -0.5292  0.0419
17741TIP3   OH274637   0.000   5.204   0.887 -0.0052  0.3909  0.3017
17741TIP3    H174638  -0.054   5.232   0.961 -1.0230  0.7321 -0.5528
17741TIP3    H274639  -0.059   5.154   0.831  0.7932 -0.0028 -0.2117
17742TIP3   OH274640   2.474   5.091  11.707 -0.0099  0.2346  0.0944
17742TIP3    H174641   2.429   5.169  11.676 -0.0312  0.0279 -0.3966
17742TIP3    H274642   2.464   5.027  11.636 -0.2822 -0.3281  0.6332
17743TIP3   OH274643   1.401   1.216  13.944 -0.0399  0.0809  0.2915
17743TIP3    H174644   1.365   1.303  13.928  0.6269  0.5717  1.3486
17743TIP3    H274645   1.327   1.157  13.929 -0.2081  0.6987 -1.5934
17744TIP3   OH274646   2.965   3.422   1.661  0.1202 -0.3328  0.1256
17744TIP3    H174647   2.875   3.392   1.675 -0.6186  1.3617 -0.6648
17744TIP3    H274648   2.958   3.484   1.589  2.1301 -1.0280 -0.7234
17745TIP3   OH274649   0.432   5.293   2.875  0.2502  0.3181  0.1310
17745TIP3    H174650   0.512   5.338   2.849 -0.4461  0.7055 -1.5074
17745TIP3    H274651   0.379   5.360   2.917 -0.7832  1.1519 -2.3007
17746TIP3   OH274652   2.654   5.506  15.073  0.1134 -0.0607  0.4000
17746TIP3    H174653   2.579   5.467  15.027 -0.5850  0.3356  1.1827
17746TIP3    H274654   2.638   5.486  15.165  1.0030 -0.0090  0.5682
17747TIP3   OH274655   5.333   2.273  14.979 -0.3532 -0.5514  0.9538
17747TIP3    H174656   5.399   2.299  15.043  0.6072 -0.2610 -0.1214
17747TIP3    H274657   5.257   2.327  14.999  0.5224  0.7865  0.7607
17748TIP3   OH274658   1.731   2.404  15.755 -0.2491 -0.1001 -0.3026
17748TIP3    H174659   1.741   2.314  15.722 -0.0892  0.2987 -1.3750
17748TIP3    H274660   1.638   2.412  15.774  0.0197 -1.1402  1.7931
17749TIP3   OH274661   4.209   2.654  12.412 -0.3097 -0.0569 -0.2431
17749TIP3    H174662   4.179   2.656  12.321 -0.1920 -2.2522 -0.3991
17749TIP3    H274663   4.129   2.648  12.464 -0.3400 -1.6769 -0.4147
17750TIP3   OH274664   5.878   4.393  11.695  1.3562 -0.2287 -0.4655
17750TIP3    H174665   5.968   4.363  11.686  1.7842  0.4321  1.2169
17750TIP3    H274666   5.825   4.322  11.658  2.4738 -1.6881  0.6188
17751TIP3   OH274667   4.199   1.546  14.026  0.0709 -0.8645 -0.5490
17751TIP3    H174668   4.154   1.630  14.028  1.0160 -0.3627  1.2409
17751TIP3    H274669   4.129   1.482  14.039 -0.6964 -0.4278 -2.2305
17752TIP3   OH274670   3.761   1.631  13.840  0.4653  0.1223  0.3657
17752TIP3    H174671   3.815   1.561  13.805  1.6568  0.9602  0.4466
17752TIP3    H274672   3.810   1.711  13.821 -0.4585  0.8650  0.9935
17753TIP3   OH274673   2.299   5.402   4.624 -0.4279  1.1260 -0.0854
17753TIP3    H174674   2.228   5.440   4.676 -1.8022 -0.6894 -0.5187
17753TIP3    H274675   2.278   5.308   4.621  0.1012  1.0163 -3.0663
17754TIP3   OH274676   5.533   6.452  16.894 -0.0683  0.2346 -0.5182
17754TIP3    H174677   5.547   6.497  16.810  3.1838 -1.5866 -1.0851
17754TIP3    H274678   5.474   6.380  16.873  0.7494 -0.2257 -1.2583
17755TIP3   OH274679   5.211   1.819  17.240  0.5704 -0.6712  0.5008
17755TIP3    H174680   5.208   1.757  17.312  1.6660  0.7844  1.8710
17755TIP3    H274681   5.200   1.766  17.162  0.2791 -2.4163  1.6773
17756TIP3   OH274682   6.138   4.154  16.305  0.1834  0.1822  0.0493
17756TIP3    H174683   6.200   4.227  16.303  1.1585 -0.6284 -0.1710
17756TIP3    H274684   6.116   4.139  16.213  1.4177 -0.9639 -0.0855
17757TIP3   OH274685   5.991   6.091   6.003  0.4430 -0.1498 -0.4294
17757TIP3    H174686   6.006   6.179   6.037  1.5126 -1.1010  1.8222
17757TIP3    H274687   5.983   6.037   6.082 -1.1957 -1.9374 -1.7230
17758TIP3   OH274688   1.877   5.764  14.690 -0.1762 -0.5161  0.3099
17758TIP3    H174689   1.792   5.753  14.648 -0.4222 -0.6290  0.8188
17758TIP3    H274690   1.858   5.757  14.784  0.3073  0.0471  0.4560
17759TIP3   OH274691   4.729   0.129   0.940  1.1030 -0.2834  0.5546
17759TIP3    H174692   4.742   0.035   0.924 -1.4215 -0.3051 -2.2282
17759TIP3    H274693   4.809   0.170   0.905  2.3637 -1.3260  2.0622
17760TIP3   OH274694   5.273   2.641  12.325  0.4988  0.1836 -0.2152
17760TIP3    H174695   5.244   2.569  12.269 -0.2561  0.0428  0.3385
17760TIP3    H274696   5.339   2.687  12.273  1.9114 -1.6140 -0.1314
17761TIP3   OH274697   6.533   5.967  13.736  0.1536 -0.1596 -0.3902
17761TIP3    H174698   6.528   5.956  13.641  1.0903 -0.6088 -0.3990
17761TIP3    H274699   6.600   6.035  13.748  0.3540 -0.4188 -0.0348
17762TIP3   OH274700   2.364   3.293  12.844  0.1678 -0.5682 -0.0863
17762TIP3    H174701   2.410   3.366  12.886  0.2204 -0.1038 -0.9283
17762TIP3    H274702   2.274   3.299  12.877  0.4236 -0.7796  0.6692
17763TIP3   OH274703   2.763   4.510  17.405  0.1587 -0.5693  0.1129
17763TIP3    H174704   2.842   4.523  17.457  1.0665  1.6161 -1.6286
17763TIP3    H274705   2.704   4.579  17.433  0.4480  0.2852 -1.3172
17764TIP3   OH274706   5.593   5.040  17.401 -0.2241  0.0857 -0.0945
17764TIP3    H174707   5.688   5.041  17.409 -0.1138  1.6901 -1.3138
17764TIP3    H274708   5.564   4.979  17.470  1.5708  0.7156  1.2888
17765TIP3   OH274709   3.792   3.661  15.548 -0.5906  0.5819 -0.2962
17765TIP3    H174710   3.882   3.654  15.517 -0.4876 -0.5643  0.2104
17765TIP3    H274711   3.763   3.571  15.559 -1.5840  0.9378  0.1712
17766TIP3   OH274712   5.765   2.384  15.229 -0.3602  0.3993 -0.2914
17766TIP3    H174713   5.842   2.333  15.252 -0.6513 -0.8689 -1.9345
17766TIP3    H274714   5.799   2.457  15.177 -0.0363  1.4739  1.3334
17767TIP3   OH274715   6.195   4.586  12.103  0.7235 -0.3990  0.0927
17767TIP3    H174716   6.281   4.563  12.067  0.6731 -1.2259  0.4650
17767TIP3    H274717   6.153   4.637  12.034  1.9299  0.9941  0.3362
17768TIP3   OH274718   1.270   4.546  15.294 -0.3127 -0.2991  0.2769
17768TIP3    H174719   1.366   4.543  15.297 -0.2387  0.9180 -0.4159
17768TIP3    H274720   1.246   4.607  15.364 -0.4721  0.7551 -0.6759
17769TIP3   OH274721   0.854   1.316   2.168 -0.3738 -0.4166 -0.0184
17769TIP3    H174722   0.810   1.293   2.086  0.5758 -0.7276 -0.4576
17769TIP3    H274723   0.858   1.412   2.167 -1.4336 -0.3625  0.2476
17770TIP3   OH274724   5.265   3.053  12.471 -0.0174 -0.0996  0.3144
17770TIP3    H174725   5.338   3.073  12.411  0.3052 -1.0301  0.3825
17770TIP3    H274726   5.265   2.958  12.477 -0.9237 -0.0776  0.7286
17771TIP3   OH274727   1.558   1.073  17.378 -0.1431 -0.5562  0.3807
17771TIP3    H174728   1.592   1.138  17.439  0.7229 -0.3407 -0.3078
17771TIP3    H274729   1.463   1.080  17.386 -0.0531  0.1995  0.9304
17772TIP3   OH274730   5.591   0.481  15.194 -0.0053  0.1744 -0.6775
17772TIP3    H174731   5.685   0.495  15.211  0.1150 -0.0016 -1.1888
17772TIP3    H274732   5.589   0.423  15.118 -0.5389  0.7052 -1.0735
17773TIP3   OH274733   6.652   3.764   4.431 -0.1322  0.0639 -0.0269
17773TIP3    H174734   6.709   3.749   4.506 -0.4190 -1.7455 -0.1165
17773TIP3    H274735   6.639   3.677   4.393 -1.1850  0.7360 -1.3020
17774TIP3   OH274736   2.780   5.650   3.497 -0.0184 -0.5306  0.0166
17774TIP3    H174737   2.782   5.572   3.552 -1.9480 -0.3844  0.3898
17774TIP3    H274738   2.695   5.645   3.453  0.6161  0.4212 -1.3658
17775TIP3   OH274739   2.737   0.371   4.402 -0.7011 -0.5242  0.2360
17775TIP3    H174740   2.762   0.460   4.377 -1.2092 -0.0164  1.4688
17775TIP3    H274741   2.720   0.327   4.319  2.2545 -0.3429 -0.6062
17776TIP3   OH274742   0.480   6.073   0.546  0.6856 -0.1696 -0.6138
17776TIP3    H174743   0.514   6.052   0.459  2.6505 -0.6696  0.2317
17776TIP3    H274744   0.406   6.013   0.557 -0.5939  0.9307 -2.4838
17777TIP3   OH274745   6.538   4.342  14.912 -0.4828 -0.2661  0.0210
17777TIP3    H174746   6.608   4.285  14.883  1.6997  0.9586  2.4546
17777TIP3    H274747   6.506   4.302  14.993 -1.3424  0.1420 -0.1047
17778TIP3   OH274748   2.574   6.038  12.103  0.2433  0.7582 -0.0004
17778TIP3    H174749   2.612   5.964  12.151  0.2698 -0.7825 -2.2346
17778TIP3    H274750   2.495   6.061  12.152  1.5880  0.9870  2.1598
17779TIP3   OH274751   6.244   3.510  12.732  0.6173  0.7623  0.2143
17779TIP3    H174752   6.290   3.568  12.671  1.9382 -0.1152  0.3427
17779TIP3    H274753   6.303   3.436  12.744 -0.1704  0.3235  1.5973
17780TIP3   OH274754   4.529   3.015  13.517 -0.0263  0.0604  0.0379
17780TIP3    H174755   4.562   3.085  13.460  1.5997 -1.1655 -0.5855
17780TIP3    H274756   4.607   2.981  13.561 -0.5997 -2.0468 -0.4574
17781TIP3   OH274757   5.957   3.769   5.537  0.3822  0.0185  0.1973
17781TIP3    H174758   5.871   3.807   5.557 -0.4912 -2.0081  0.6618
17781TIP3    H274759   5.984   3.728   5.620  1.2146 -0.3964 -0.2684
17782TIP3   OH274760   5.422   1.464   2.395  0.3338  0.3136 -0.0834
17782TIP3    H174761   5.398   1.534   2.456  2.2635  1.0809 -0.1315
17782TIP3    H274762   5.502   1.495   2.353  0.7688 -1.5589 -0.7401
17783TIP3   OH274763   6.335   2.659  11.804 -0.0260  0.8684  0.0568
17783TIP3    H174764   6.259   2.625  11.757 -0.3124  1.7609 -0.1531
17783TIP3    H274765   6.378   2.582  11.841 -1.0596  0.3567  0.2192
17784TIP3   OH274766   3.257   6.338  12.217  0.2914  0.1260  0.4349
17784TIP3    H174767   3.178   6.335  12.271 -0.2771 -0.4510 -0.3982
17784TIP3    H274768   3.247   6.416  12.163  1.0231  0.8964  1.3746
17785TIP3   OH274769   1.308   4.794   4.096 -0.2644  0.1310  0.1175
17785TIP3    H174770   1.392   4.790   4.051 -0.8003  1.4553 -1.0754
17785TIP3    H274771   1.244   4.812   4.027 -0.8516  4.7505  1.4950
17786TIP3   OH274772   2.789   0.907  14.973  0.0366 -0.4375  0.2039
17786TIP3    H174773   2.877   0.936  14.995  0.8522 -2.4030 -0.2360
17786TIP3    H274774   2.746   0.985  14.938  1.3676  0.7258  1.0492
17787TIP3   OH274775   6.058   1.226   6.124  0.2702 -0.2149  0.6338
17787TIP3    H174776   5.966   1.242   6.100  0.8836  1.0771 -1.0894
17787TIP3    H274777   6.082   1.146   6.077  0.2847 -0.0205  0.3064
17788TIP3   OH274778   0.558   1.906  12.131 -0.6613  0.4593 -0.4071
17788TIP3    H174779   0.640   1.923  12.085 -0.7228  0.3445 -0.5577
17788TIP3    H274780   0.535   1.991  12.169 -0.8340  0.6557 -0.9487
17789TIP3   OH274781   3.861   0.961   0.154  0.3162 -0.0929  0.0571
17789TIP3    H174782   3.909   1.033   0.195 -0.0862 -1.2471  2.7588
17789TIP3    H274783   3.770   0.990   0.154  0.2883 -0.1777  0.2091
17790TIP3   OH274784   5.658   6.275   3.393  0.3054 -0.1570  0.4971
17790TIP3    H174785   5.610   6.338   3.448  0.2579 -1.2279  1.7269
17790TIP3    H274786   5.686   6.207   3.454  1.8448 -0.4763 -0.5176
17791TIP3   OH274787   4.983   5.987  16.838 -0.2032 -0.3080 -0.3810
17791TIP3    H174788   4.901   5.941  16.817 -0.2394 -1.0051  1.1618
17791TIP3    H274789   5.013   6.020  16.754 -1.2532 -1.4109 -1.2365
17792TIP3   OH274790   1.090   2.995   6.120 -0.0460 -0.0814  0.6353
17792TIP3    H174791   1.182   2.974   6.108  0.2199  1.3005  0.0216
17792TIP3    H274792   1.063   3.035   6.037 -1.1458 -0.2853  0.8707
17793TIP3   OH274793   3.356   3.721  13.396  1.0145 -0.4331 -0.1168
17793TIP3    H174794   3.390   3.720  13.306  1.2124  1.5055 -0.0879
17793TIP3    H274795   3.426   3.759  13.449  0.6216 -0.8847  0.7518
17794TIP3   OH274796   1.441   6.024   4.192 -0.1074 -0.2342 -0.0807
17794TIP3    H174797   1.364   6.062   4.150 -1.4455  0.3427  2.6478
17794TIP3    H274798   1.425   5.930   4.190 -0.3466 -0.1889 -0.4704
17795TIP3   OH274799   5.944   0.445   3.160 -0.4652 -0.5338  0.2318
17795TIP3    H174800   5.849   0.459   3.169 -0.9555 -1.6250 -2.3241
17795TIP3    H274801   5.981   0.532   3.150 -1.8830 -0.1836 -3.3674
17796TIP3   OH274802   4.916   2.136   2.115 -0.0781 -0.5417 -0.2248
17796TIP3    H174803   4.960   2.116   2.032 -0.6803  0.8369 -0.9294
17796TIP3    H274804   4.871   2.219   2.098  0.7021  0.3749  1.8547
17797TIP3   OH274805   2.280   6.463   5.272 -0.3020 -0.2556  0.1288
17797TIP3    H174806   2.215   6.528   5.298 -0.1162 -0.0497  0.0781
17797TIP3    H274807   2.287   6.405   5.348  0.6804  0.6946  0.7982
17798TIP3   OH274808   1.091   3.573  14.066 -0.1340  0.3703  0.1303
17798TIP3    H174809   1.070   3.508  14.133  0.6495 -1.9042 -1.6813
17798TIP3    H274810   1.172   3.541  14.026  0.3947  2.5930 -0.7674
17799TIP3   OH274811   5.638   2.046   1.527 -0.1956  0.8892  0.3142
17799TIP3    H174812   5.620   1.952   1.532 -0.5483  0.9755  0.8363
17799TIP3    H274813   5.552   2.087   1.539  0.1108  1.2894  1.2372
17800TIP3   OH274814   2.493   3.528   1.993 -0.0709  0.3970  0.4095
17800TIP3    H174815   2.490   3.611   2.040  0.1529 -0.3534  1.7986
17800TIP3    H274816   2.583   3.522   1.961 -0.0658  0.6551  0.3756
17801TIP3   OH274817   4.954   1.200  13.149 -0.3724  0.2252 -0.0124
17801TIP3    H174818   4.957   1.218  13.243 -0.8192  1.6231 -0.2436
17801TIP3    H274819   4.914   1.278  13.111 -0.7857 -0.5882 -1.3044
17802TIP3   OH274820   1.705   5.196   6.131  0.5345  0.1254  0.7112
17802TIP3    H174821   1.780   5.251   6.157 -0.5915  2.1896 -0.1744
17802TIP3    H274822   1.631   5.234   6.178 -0.3388 -0.4176 -0.2102
17803TIP3   OH274823   5.515   1.890   4.701 -0.2667  0.5134  0.1574
17803TIP3    H174824   5.455   1.824   4.734  1.4452 -1.0356  0.3324
17803TIP3    H274825   5.555   1.928   4.779  0.9649 -0.4264  0.0113
17804TIP3   OH274826   6.723   5.045  17.062  0.9040 -0.1125  0.1004
17804TIP3    H174827   6.742   4.960  17.022 -2.1922 -0.7949 -0.1032
17804TIP3    H274828   6.700   5.024  17.152  0.0431  0.4805  0.0255
17805TIP3   OH274829   0.672   2.474  14.799 -0.0404 -0.2312 -0.0133
17805TIP3    H174830   0.608   2.433  14.857 -0.2797 -1.6879 -1.2410
17805TIP3    H274831   0.755   2.431  14.820 -0.3430 -1.6186 -1.4961
17806TIP3   OH274832   5.189   6.251   0.662  0.7560 -0.0947 -0.0795
17806TIP3    H174833   5.274   6.294   0.670  0.0688  1.2661  0.1924
17806TIP3    H274834   5.133   6.316   0.619  0.4663 -1.8264 -2.5534
17807TIP3   OH274835   3.426   2.569  15.834  0.1692  0.4257  0.6199
17807TIP3    H174836   3.446   2.611  15.918  0.9065  0.0400  0.6493
17807TIP3    H274837   3.376   2.491  15.858 -1.8769  1.6397  0.5135
17808TIP3   OH274838   6.743   5.100  11.375 -0.1573  0.3219  0.1763
17808TIP3    H174839   6.769   5.186  11.344 -5.1631  1.3354 -2.2623
17808TIP3    H274840   6.683   5.118  11.448 -1.3807 -1.0180 -0.4456
17809TIP3   OH274841   3.832   5.845   2.062 -0.4162 -0.0300 -0.6415
17809TIP3    H174842   3.768   5.784   2.026 -1.2691  0.2193  0.3938
17809TIP3    H274843   3.875   5.883   1.985 -0.7131 -1.0338 -1.3190
17810TIP3   OH274844   2.451   5.398  14.934 -0.0223 -0.4780 -0.0079
17810TIP3    H174845   2.441   5.360  14.847 -1.1356 -0.8662  0.2771
17810TIP3    H274846   2.372   5.451  14.946  0.7763  0.7013  0.2163
17811TIP3   OH274847   5.771   1.769  14.315 -0.8447 -0.2851  0.0927
17811TIP3    H174848   5.844   1.819  14.350 -0.1560 -0.7581 -0.6488
17811TIP3    H274849   5.722   1.741  14.393  0.4362 -0.9962  0.6598
17812TIP3   OH274850   5.025   4.011  14.673  0.5896 -0.5349  0.2959
17812TIP3    H174851   5.085   3.943  14.703  0.3865 -0.5490  0.6646
17812TIP3    H274852   4.943   3.994  14.718  0.3382 -0.4409 -0.1163
17813TIP3   OH274853   6.710   2.428  15.682 -0.0672 -0.6409  0.3837
17813TIP3    H174854   6.681   2.519  15.687  0.3481 -0.5435  1.1745
17813TIP3    H274855   6.671   2.395  15.601 -0.4705  0.1501  0.2435
17814TIP3   OH274856   2.146   4.511  11.446  0.5184  0.6892  0.0191
17814TIP3    H174857   2.138   4.545  11.356  1.9704 -0.0956 -0.4405
17814TIP3    H274858   2.057   4.483  11.469  0.3961 -0.6565 -1.8402
17815TIP3   OH274859   0.060   3.157   3.451  0.5729 -0.0762 -0.3509
17815TIP3    H174860   0.044   3.169   3.544  0.7892 -0.8381 -0.2058
17815TIP3    H274861   0.118   3.230   3.427  0.9133 -0.1509  0.2223
17816TIP3   OH274862   2.152   1.271  11.041  0.1792 -0.0741 -0.4988
17816TIP3    H174863   2.247   1.256  11.045 -0.1511 -2.1175  1.2595
17816TIP3    H274864   2.114   1.183  11.039 -1.6975  0.7127 -1.0898
17817TIP3   OH274865   5.938   5.140   2.969  0.1470  0.4753 -0.1702
17817TIP3    H174866   6.012   5.096   2.927 -1.2563 -0.9107 -1.2945
17817TIP3    H274867   5.860   5.101   2.928 -1.2261  1.5727  1.2769
17818TIP3   OH274868   6.157   0.681  16.536  0.0382 -0.0517  0.2047
17818TIP3    H174869   6.211   0.625  16.480  0.2933  1.1374 -0.7751
17818TIP3    H274870   6.131   0.624  16.608  1.5384 -1.0201  0.0360
17819TIP3   OH274871   2.467   0.765  17.265 -0.5103  0.1138  0.4901
17819TIP3    H174872   2.425   0.807  17.341  0.7511  1.3464  0.5317
17819TIP3    H274873   2.446   0.823  17.192  0.0107  0.0381  0.2814
17820TIP3   OH274874   5.642   0.728   0.717  0.4840  0.4009 -0.3640
17820TIP3    H174875   5.715   0.770   0.762  0.7187 -0.5405  0.1624
17820TIP3    H274876   5.582   0.704   0.788  0.7591 -0.9109 -0.5563
17821TIP3   OH274877   5.915   2.161   5.370  0.3027  0.2527  0.3194
17821TIP3    H174878   6.008   2.161   5.348  0.0873  0.1786 -0.6287
17821TIP3    H274879   5.911   2.124   5.458  1.0528 -0.8968 -0.1131
17822TIP3   OH274880   1.803   2.188  12.210 -0.1662 -0.1211 -0.1201
17822TIP3    H174881   1.736   2.174  12.277  0.3869 -0.4209  0.3759
17822TIP3    H274882   1.765   2.255  12.152 -0.8399 -0.1994  0.2202
17823TIP3   OH274883   4.939   5.101   5.258  0.0728 -0.0088 -0.1543
17823TIP3    H174884   5.011   5.093   5.321 -1.1212  1.2526  1.4434
17823TIP3    H274885   4.982   5.128   5.177  1.4778 -0.0057  0.5478
17824TIP3   OH274886   2.998   3.935  12.480 -0.3368 -0.2695 -0.4318
17824TIP3    H174887   2.915   3.897  12.511 -0.7440  0.2460 -0.8861
17824TIP3    H274888   2.978   3.972  12.394  1.0291 -2.6788 -1.9200
17825TIP3   OH274889   6.323   3.942   6.547  0.0397 -0.5374  0.1679
17825TIP3    H174890   6.404   3.993   6.550  0.2390 -0.8934  0.9429
17825TIP3    H274891   6.254   4.008   6.551  0.2922 -0.3260  1.7367
17826TIP3   OH274892   2.465   1.907   2.160 -0.1842  0.0183  0.1060
17826TIP3    H174893   2.451   1.994   2.197 -1.9429  0.6497 -1.8479
17826TIP3    H274894   2.557   1.906   2.134  0.5083  0.3452  2.2756
17827TIP3   OH274895   1.202   0.622  15.100  0.1330  0.5851 -0.1504
17827TIP3    H174896   1.166   0.551  15.153  0.8699 -0.0157 -0.4316
17827TIP3    H274897   1.180   0.598  15.010 -0.0648  0.9844 -0.2132
17828TIP3   OH274898   5.748   1.499   5.621  0.1038 -0.4912 -0.1911
17828TIP3    H174899   5.724   1.583   5.660  0.2896 -1.3049  1.8073
17828TIP3    H274900   5.664   1.459   5.597  0.0017  0.1343 -0.9119
17829TIP3   OH274901   0.920   5.906   5.013 -0.1538 -0.1258  0.5940
17829TIP3    H174902   0.862   5.971   5.053  0.4792  0.7429  0.1454
17829TIP3    H274903   0.864   5.859   4.952 -0.4527  0.5625  0.3186
17830TIP3   OH274904   6.461   3.809  17.094 -0.5616 -0.1358  0.5995
17830TIP3    H174905   6.482   3.847  17.179 -0.7647  0.3056  0.4534
17830TIP3    H274906   6.522   3.736  17.085 -0.4618 -0.1154  1.0719
17831TIP3   OH274907   2.698   6.482   0.651  0.0927  0.0357  0.1709
17831TIP3    H174908   2.697   6.519   0.563 -0.9527 -2.0296 -0.7366
17831TIP3    H274909   2.735   6.552   0.705 -1.9718  2.5186 -1.3762
17832TIP3   OH274910   6.156   3.751  15.294  1.1698  0.8511  0.2206
17832TIP3    H174911   6.149   3.682  15.359 -1.3273  0.0762 -0.7282
17832TIP3    H274912   6.207   3.712  15.223 -0.1851 -0.0699 -0.2906
17833TIP3   OH274913   3.953   0.720   4.126 -0.6733 -0.0924 -0.3105
17833TIP3    H174914   3.932   0.626   4.121  0.8362 -0.5800  1.5338
17833TIP3    H274915   3.890   0.756   4.189  1.1610 -0.7241  2.0165
17834TIP3   OH274916   3.825   3.515   5.874 -0.3335  0.5360  0.0089
17834TIP3    H174917   3.758   3.497   5.808 -0.3627 -1.3792  0.4911
17834TIP3    H274918   3.891   3.447   5.860  0.7553  1.4452  0.5463
17835TIP3   OH274919   4.895   1.246   6.765  0.6169  0.2096  0.0556
17835TIP3    H174920   4.881   1.339   6.784 -0.5325 -0.0474  0.5622
17835TIP3    H274921   4.947   1.246   6.685 -0.6219  1.2762 -0.7822
17836TIP3   OH274922   6.267   3.040   6.227  0.2171 -0.2768  0.2007
17836TIP3    H174923   6.201   3.107   6.208 -2.6159 -3.2852 -1.6544
17836TIP3    H274924   6.260   3.026   6.321 -0.8369  0.4014  0.2489
17837TIP3   OH274925   3.027   2.801   2.211 -0.3633  0.3553  0.3946
17837TIP3    H174926   3.105   2.812   2.156 -0.9304  1.0385 -0.2920
17837TIP3    H274927   3.031   2.874   2.273 -1.0425  1.0631 -0.3758
17838TIP3   OH274928   2.896   4.501  16.465  0.0474 -0.2530  0.3654
17838TIP3    H174929   2.865   4.410  16.468  1.2089 -0.6487  0.8743
17838TIP3    H274930   2.856   4.542  16.542  2.5421 -1.3937  2.4484
17839TIP3   OH274931   5.462   6.166  10.960  0.2223 -0.3343 -0.8368
17839TIP3    H174932   5.375   6.141  10.928 -0.0877 -1.6522  0.8726
17839TIP3    H274933   5.519   6.094  10.931  0.6816  0.3262 -1.6032
17840TIP3   OH274934   3.021   6.385  10.291  0.1736 -0.4307  0.2113
17840TIP3    H174935   3.101   6.397  10.240  0.4141 -0.4616  0.5799
17840TIP3    H274936   3.015   6.463  10.346 -0.6452  0.1093 -0.6103
17841TIP3   OH274937   0.355   5.470   2.257  0.1189  0.2352 -0.4178
17841TIP3    H174938   0.412   5.532   2.302 -0.0232  0.7503 -0.9350
17841TIP3    H274939   0.385   5.472   2.166 -3.7547  4.3163 -1.9640
17842TIP3   OH274940   4.508   4.663   6.237  0.6675 -0.1208 -0.0412
17842TIP3    H174941   4.522   4.678   6.330 -0.3729 -0.0573  0.1164
17842TIP3    H274942   4.495   4.751   6.200  0.2556 -0.2117 -0.1078
17843TIP3   OH274943   4.501   5.163  12.335 -0.3711  0.1841 -0.4746
17843TIP3    H174944   4.443   5.106  12.283 -0.9721  1.3917 -1.1876
17843TIP3    H274945   4.588   5.125  12.324 -0.8034 -0.7912 -0.6497
17844TIP3   OH274946   0.257   2.132  11.358  0.3609 -0.1277  0.4943
17844TIP3    H174947   0.260   2.046  11.400 -1.6437 -1.5691 -1.9655
17844TIP3    H274948   0.165   2.159  11.366  0.8973  1.6634  0.9335
17845TIP3   OH274949   5.905   1.880   1.586 -0.1092 -0.0693 -0.3600
17845TIP3    H174950   5.938   1.919   1.667  0.0117  0.4356 -0.6526
17845TIP3    H274951   5.854   1.949   1.544 -0.2973 -0.3763 -0.6452
17846TIP3   OH274952   5.101   0.420   1.788  0.8631 -0.3380 -0.0642
17846TIP3    H174953   5.122   0.456   1.702  1.0343 -0.6193 -0.1440
17846TIP3    H274954   5.089   0.326   1.772 -0.6427 -0.1581 -0.0489
17847TIP3   OH274955   1.333   2.481   1.272 -0.0884 -0.1774 -0.3073
17847TIP3    H174956   1.378   2.440   1.198  0.8677  0.6064 -0.1818
17847TIP3    H274957   1.240   2.466   1.255  0.0790  0.4523 -1.9394
17848TIP3   OH274958   2.509   2.074   4.290 -0.7255 -0.3548  0.2061
17848TIP3    H174959   2.451   2.045   4.219 -0.2949  0.9441 -0.7125
17848TIP3    H274960   2.486   2.018   4.364 -2.1098 -0.8564 -0.5676
17849TIP3   OH274961   3.223   6.372  16.722  0.0885  0.3562  0.2175
17849TIP3    H174962   3.251   6.306  16.785  1.1912  0.0435 -0.5632
17849TIP3    H274963   3.239   6.331  16.637  0.6534  1.5703 -0.2771
17850TIP3   OH274964   4.254   6.359   6.090 -0.6482 -0.0217 -0.0241
17850TIP3    H174965   4.207   6.388   6.169 -0.2669  0.0399  0.1832
17850TIP3    H274966   4.188   6.363   6.021 -0.6712  1.1421  0.0340
17851TIP3   OH274967   0.563   0.778  14.377  0.1418 -1.2165  0.5406
17851TIP3    H174968   0.588   0.750  14.465 -0.2210 -1.6352  0.5138
17851TIP3    H274969   0.592   0.707  14.320  1.4809 -0.3949  0.1693
17852TIP3   OH274970   2.972   0.124   5.551 -0.4131 -0.5008 -0.0361
17852TIP3    H174971   2.917   0.074   5.611 -1.2854  2.0748  1.4351
17852TIP3    H274972   2.914   0.191   5.515 -0.4032 -2.7618 -5.1189
17853TIP3   OH274973   3.594   5.754   5.258 -0.0788  0.8208  0.2683
17853TIP3    H174974   3.648   5.831   5.274  0.2427  0.4715  0.9248
17853TIP3    H274975   3.511   5.788   5.224  0.6779  1.3419 -1.1008
17854TIP3   OH274976   1.297   2.402   2.989  0.0228  0.4413 -0.7738
17854TIP3    H174977   1.330   2.470   2.930 -0.1555  1.7592  0.5753
17854TIP3    H274978   1.202   2.417   2.992 -0.0700 -0.1379 -0.7960
17855TIP3   OH274979   0.004   5.677  15.312  0.1372 -0.1290  0.2472
17855TIP3    H174980   0.001   5.692  15.407  0.3320  0.4518  0.1601
17855TIP3    H274981  -0.060   5.738  15.275 -1.7088 -1.9820  0.1899
17856TIP3   OH274982   3.838   3.652  13.455  0.8936 -0.0025  0.1244
17856TIP3    H174983   3.797   3.738  13.446  0.6983  0.0668  1.5391
17856TIP3    H274984   3.850   3.622  13.365 -2.7085 -0.2615 -0.4069
17857TIP3   OH274985   0.686   2.712  13.637 -0.6390 -0.2786  0.0026
17857TIP3    H174986   0.775   2.728  13.605 -0.8816  0.7866 -0.1499
17857TIP3    H274987   0.651   2.645  13.577  0.1778 -0.9890  0.2954
17858TIP3   OH274988   0.352   2.121   2.323  0.2063  0.1735 -0.4889
17858TIP3    H174989   0.267   2.136   2.364 -0.2244 -1.5686 -0.6778
17858TIP3    H274990   0.331   2.087   2.236  1.0679 -0.5557 -0.4275
17859TIP3   OH274991   0.057   3.983   4.508 -0.4420 -0.5465  0.3989
17859TIP3    H174992   0.064   3.898   4.464 -0.0523 -0.4499  0.2651
17859TIP3    H274993  -0.021   4.023   4.471  0.4182 -0.0488 -0.9574
17860TIP3   OH274994   6.631   5.985   2.499  0.2167 -0.0019 -0.2958
17860TIP3    H174995   6.547   5.967   2.541  0.1511  1.2838  0.1457
17860TIP3    H274996   6.659   5.900   2.465  0.3538 -1.1679  2.4701
17861TIP3   OH274997   0.012   2.085   5.861 -0.3539 -0.8444  0.6170
17861TIP3    H174998  -0.049   2.152   5.890  0.7296 -0.1539  1.3790
17861TIP3    H274999   0.012   2.092   5.765 -1.4114 -0.8296  0.6063
17862TIP3   OH275000   1.942   5.406   0.529  0.0441  0.1579 -0.4094
17862TIP3    H175001   1.867   5.383   0.584 -0.6791  1.5553 -0.7853
17862TIP3    H275002   1.903   5.447   0.452  1.2205  1.5022 -0.3121
17863TIP3   OH275003   2.419   5.682   0.728  0.7460 -0.2121  0.4093
17863TIP3    H175004   2.393   5.737   0.802  1.2570 -0.5901  0.8909
17863TIP3    H275005   2.337   5.654   0.688  0.4499 -0.2190  1.0050
17864TIP3   OH275006   2.934   2.512   4.062 -0.1861  0.1980 -0.8440
17864TIP3    H175007   2.999   2.474   4.121 -1.4589 -0.5567  0.1271
17864TIP3    H275008   2.937   2.606   4.079  0.7311  0.1795 -0.9055
17865TIP3   OH275009   2.234   4.526  13.373 -0.3409  0.1095 -0.1431
17865TIP3    H175010   2.289   4.586  13.424 -1.8832  0.0886  1.6607
17865TIP3    H275011   2.158   4.579  13.347 -0.8098 -0.5572 -0.1606
17866TIP3   OH275012   0.857   6.213  15.789 -0.0487 -0.2111 -0.1477
17866TIP3    H175013   0.934   6.238  15.841  0.3918 -1.4526 -0.1643
17866TIP3    H275014   0.893   6.166  15.714 -0.7699  0.2364 -0.7821
17867TIP3   OH275015   0.499   5.338   6.297 -0.6755 -0.5112 -0.5849
17867TIP3    H175016   0.513   5.248   6.325 -2.6119 -1.1034 -1.4091
17867TIP3    H275017   0.435   5.373   6.359 -0.8450 -0.0793 -0.9972
17868TIP3   OH275018   3.169   4.573   4.250  0.0442 -0.0710  0.6322
17868TIP3    H175019   3.179   4.484   4.216 -0.2522  0.6724 -1.5613
17868TIP3    H275020   3.145   4.625   4.174 -1.7225  1.5692  2.1883
17869TIP3   OH275021   6.055   4.730  13.374 -0.1970  0.6495 -0.1163
17869TIP3    H175022   6.081   4.657  13.429 -0.2221  1.7206  1.3897
17869TIP3    H275023   5.965   4.750  13.401  0.4778  2.4932  1.0126
17870TIP3   OH275024   2.423   4.169   4.685  0.1474 -0.1300  0.1764
17870TIP3    H175025   2.509   4.201   4.657  0.2103 -0.2219  0.2609
17870TIP3    H275026   2.363   4.241   4.666  0.5197  0.6417  1.8109
17871TIP3   OH275027   1.897   2.256  12.523 -0.2721  0.4548  0.0828
17871TIP3    H175028   1.843   2.180  12.547 -1.1738  1.0866  0.0813
17871TIP3    H275029   1.943   2.279  12.604 -1.6444  1.2345  0.6607
17872TIP3   OH275030   6.249   2.821  15.538  0.5786 -0.3911 -0.2068
17872TIP3    H175031   6.259   2.799  15.631 -1.0361  0.2298  0.1483
17872TIP3    H275032   6.298   2.903  15.527 -0.1526  0.1368  0.3781
17873TIP3   OH275033   5.780   4.714  16.127  0.7190  0.2170 -0.3678
17873TIP3    H175034   5.687   4.695  16.122  0.3456  1.4531  1.2620
17873TIP3    H275035   5.820   4.633  16.158 -0.0030  0.1315  0.3532
17874TIP3   OH275036   0.569   0.062   6.186 -0.2357  0.8543 -0.0782
17874TIP3    H175037   0.581   0.103   6.100  0.4985 -0.0058 -0.3962
17874TIP3    H275038   0.655   0.027   6.208 -1.1959 -2.2635 -0.7309
17875TIP3   OH275039   4.075   1.786  13.824 -0.3181 -0.0450  0.0538
17875TIP3    H175040   3.994   1.787  13.774  0.5624  4.4048 -1.8197
17875TIP3    H275041   4.058   1.844  13.898  1.0985  1.0547 -0.4320
17876TIP3   OH275042   5.619   5.281   2.038  0.1949 -0.5641 -0.2895
17876TIP3    H175043   5.599   5.193   2.008  1.8205 -0.2366 -2.5688
17876TIP3    H275044   5.714   5.281   2.049  0.0767  0.5448  1.0755
17877TIP3   OH275045   0.348   4.748   0.919 -0.1395 -0.0634 -0.2397
17877TIP3    H175046   0.390   4.780   0.999 -0.0564 -1.4341  0.2843
17877TIP3    H275047   0.420   4.712   0.867 -0.2746  0.2920 -0.6751
17878TIP3   OH275048   6.497   1.079   1.081 -0.2046  0.0552 -0.3494
17878TIP3    H175049   6.471   1.012   1.018  1.7209 -0.8457 -0.2671
17878TIP3    H275050   6.526   1.030   1.157  0.2284  1.0380  0.1360
17879TIP3   OH275051   4.663   6.117   0.012  0.2872 -0.5344 -0.3135
17879TIP3    H175052   4.753   6.148   0.006 -0.5037  1.7147 -1.6214
17879TIP3    H275053   4.619   6.155  -0.064 -2.3357  0.4662  1.5355
17880TIP3   OH275054   0.412   2.323   1.327  0.0896  0.1094  0.3318
17880TIP3    H175055   0.480   2.390   1.322 -0.5473  0.7271 -0.1834
17880TIP3    H275056   0.452   2.252   1.378  1.1922  0.3696 -0.1506
17881TIP3   OH275057   5.712   4.290  13.087 -0.1643  0.1599 -0.5173
17881TIP3    H175058   5.686   4.373  13.049 -2.5480 -1.2405 -2.2588
17881TIP3    H275059   5.694   4.226  13.019 -1.9545 -2.1999  1.9120
17882TIP3   OH275060   5.903   3.893   3.985  0.0098  0.3637 -0.1839
17882TIP3    H175061   5.923   3.882   3.893  1.9974 -0.4945  0.3091
17882TIP3    H275062   5.808   3.903   3.988 -0.1097  0.2126 -2.2813
17883TIP3   OH275063   0.537   6.195  13.814  0.2759  0.0547  0.8598
17883TIP3    H175064   0.497   6.281  13.801 -0.0104 -0.1663  0.2450
17883TIP3    H275065   0.512   6.171  13.904 -0.1156  0.3692  0.8386
17884TIP3   OH275066   5.288   5.101  12.720  0.3545  0.2771  0.6076
17884TIP3    H175067   5.368   5.068  12.760  0.8229  0.7256  0.0558
17884TIP3    H275068   5.295   5.077  12.628 -0.2946  0.0432  0.6151
17885TIP3   OH275069   4.779   1.097  12.082 -0.0467 -0.1984  0.3440
17885TIP3    H175070   4.782   1.157  12.156  1.3733 -0.1808  0.3047
17885TIP3    H275071   4.807   1.150  12.007 -0.4353 -0.4874 -0.0097
17886TIP3   OH275072   6.240   4.330  13.108 -0.2805  0.0130  0.2442
17886TIP3    H175073   6.195   4.262  13.058  1.2820  0.3868 -1.7972
17886TIP3    H275074   6.194   4.411  13.085 -0.3123  0.0296  0.3662
17887TIP3   OH275075   0.257   5.072   4.012  0.2876 -0.2587  0.0106
17887TIP3    H175076   0.195   5.132   4.054  0.0593 -0.8757  0.5658
17887TIP3    H275077   0.277   5.007   4.079  2.0630  0.2941  0.0869
17888TIP3   OH275078   0.882   5.058  12.612 -0.1885  0.2275 -0.4245
17888TIP3    H175079   0.962   5.109  12.598 -1.1000  2.0699  0.8133
17888TIP3    H275080   0.883   5.034  12.704 -1.1671  0.4484 -0.3423
17889TIP3   OH275081   3.067   2.489  12.628 -0.0396 -0.2855  0.6278
17889TIP3    H175082   3.066   2.575  12.670 -0.1268  0.0050  0.0298
17889TIP3    H275083   3.048   2.428  12.700  0.1788  0.1738  1.0854
17890TIP3   OH275084   5.861   2.439   3.570  0.0032  0.0034  0.5535
17890TIP3    H175085   5.911   2.504   3.620  1.0797  1.0713 -1.7112
17890TIP3    H275086   5.902   2.355   3.591 -0.2952  0.2654  2.2518
17891TIP3   OH275087   0.662   2.034  16.262  0.1709  0.3035 -0.0518
17891TIP3    H175088   0.668   1.949  16.305  1.5089 -0.1580 -1.0679
17891TIP3    H275089   0.632   2.014  16.173 -0.7348  1.0403  0.0727
17892TIP3   OH275090   5.112   6.558   5.767 -0.1877 -0.2375 -0.2573
17892TIP3    H175091   5.075   6.610   5.696 -2.1057 -1.0312  0.1019
17892TIP3    H275092   5.112   6.616   5.843  0.8214  0.2508 -0.6034
17893TIP3   OH275093   3.296   5.990   3.259  0.2548 -0.2691  0.0799
17893TIP3    H175094   3.315   5.902   3.290 -2.8608 -1.2628 -0.5009
17893TIP3    H275095   3.269   5.978   3.168  3.4076  1.8420 -1.2970
17894TIP3   OH275096   4.105   2.759   4.564 -0.4374  0.7750  0.5392
17894TIP3    H175097   4.128   2.739   4.474 -2.8656 -1.3617  0.2631
17894TIP3    H275098   4.071   2.848   4.562 -3.9716 -0.4022 -1.5699
17895TIP3   OH275099   5.359   4.967  13.188 -0.0812 -0.6617  0.1171
17895TIP3    H175100   5.345   4.872  13.196 -0.2034 -0.5430  1.4726
17895TIP3    H275101   5.275   5.000  13.156  0.0837 -1.0369 -0.7567
17896TIP3   OH275102   3.550   1.194   6.212 -0.2442  0.2938  0.1111
17896TIP3    H175103   3.504   1.181   6.295  0.6755  0.2387  0.6316
17896TIP3    H275104   3.606   1.116   6.204 -1.5671 -0.5661 -1.4285
17897TIP3   OH275105   3.597   0.502   4.520 -0.0595  0.3930  0.3024
17897TIP3    H175106   3.565   0.592   4.510 -1.1272  0.3254  2.4840
17897TIP3    H275107   3.681   0.511   4.566  0.3442  0.3094 -0.4086
17898TIP3   OH275108   2.825   3.342  13.091 -0.3555 -0.3510 -0.3931
17898TIP3    H175109   2.744   3.388  13.069 -0.6217 -0.6203  0.0190
17898TIP3    H275110   2.886   3.411  13.117 -0.9209 -0.2560  0.7454
17899TIP3   OH275111   0.128   1.942  13.311 -0.0883 -0.2134 -0.0235
17899TIP3    H175112   0.183   1.900  13.377 -0.6089 -0.8402  0.0207
17899TIP3    H275113   0.174   2.023  13.290  0.4995 -0.3976  0.5121
17900TIP3   OH275114   4.189   0.324  10.476 -0.8298 -0.2549 -0.1829
17900TIP3    H175115   4.182   0.410  10.435  1.0534 -0.7775 -1.7499
17900TIP3    H275116   4.247   0.337  10.551 -0.5265 -0.1562 -0.4346
17901TIP3   OH275117   4.618   2.851  13.025 -0.3171  0.3683 -0.5306
17901TIP3    H175118   4.620   2.901  12.944  2.4534  1.1264 -0.0999
17901TIP3    H275119   4.660   2.908  13.090 -2.0691 -0.3801  1.3751
17902TIP3   OH275120   4.256   3.715   6.767  0.0523  0.4648  0.0441
17902TIP3    H175121   4.169   3.747   6.744  0.8121  1.7171 -1.2406
17902TIP3    H275122   4.289   3.674   6.687  1.6528  2.3886 -0.3638
17903TIP3   OH275123   0.927   3.613  15.976  0.0377  0.0925 -0.2854
17903TIP3    H175124   0.980   3.646  15.904  0.0380 -0.1155 -0.3814
17903TIP3    H275125   0.839   3.605  15.939  0.1244 -0.4141 -0.3833
17904TIP3   OH275126   4.810   0.485   0.018  0.0937  0.0326  0.1518
17904TIP3    H175127   4.892   0.468  -0.028 -0.2210  1.0641 -0.8081
17904TIP3    H275128   4.781   0.398   0.046  1.4848 -0.3594  0.4931
17905TIP3   OH275129   2.313   6.147   6.203 -0.5356 -0.2270 -0.5154
17905TIP3    H175130   2.344   6.074   6.257  2.2093  0.9147 -0.3990
17905TIP3    H275131   2.250   6.192   6.260 -0.8954 -1.4434  0.0958
17906TIP3   OH275132   3.628   5.603   4.965  0.3591 -0.3083  0.1176
17906TIP3    H175133   3.689   5.585   5.037 -0.2766  1.2019  1.0942
17906TIP3    H275134   3.661   5.683   4.925 -1.6857  1.3875  1.5907
17907TIP3   OH275135   5.280   6.622  16.899  0.0107 -0.0578  0.4219
17907TIP3    H175136   5.225   6.601  16.823  0.9843  0.3997 -0.4374
17907TIP3    H275137   5.298   6.537  16.940 -2.1522 -0.1392  1.3530
17908TIP3   OH275138   2.202   5.946   4.621 -0.1380  0.7292 -0.2810
17908TIP3    H175139   2.260   5.870   4.621  0.4188  1.1310  1.3050
17908TIP3    H275140   2.114   5.909   4.615  0.1862  0.0443 -1.0052
17909TIP3   OH275141   4.870   5.927   3.780  0.1655  0.2177 -0.0341
17909TIP3    H175142   4.799   5.918   3.844 -0.5062 -1.7857 -0.9415
17909TIP3    H275143   4.824   5.944   3.697  0.5163 -2.7266 -0.9439
17910TIP3   OH275144   1.487   0.021  11.040 -0.3444  0.3848 -0.1736
17910TIP3    H175145   1.563  -0.030  11.011  0.0984  0.1311  1.3350
17910TIP3    H275146   1.501   0.108  11.003  0.5628  0.2762 -0.1038
17911TIP3   OH275147   3.870   3.132   5.339 -0.3179  0.1754  0.0593
17911TIP3    H175148   3.827   3.076   5.404 -0.3830  0.1396 -0.0145
17911TIP3    H275149   3.946   3.167   5.385  0.4470 -0.9737 -0.2869
17912TIP3   OH275150   2.518   0.198  17.251  0.5164 -0.0817  0.5998
17912TIP3    H175151   2.565   0.155  17.322  1.5257 -0.3894 -0.2296
17912TIP3    H275152   2.570   0.275  17.230  0.1034  0.1338  0.3491
17913TIP3   OH275153   1.589   5.544   2.667 -0.0276 -0.1976 -0.0372
17913TIP3    H175154   1.550   5.493   2.596  1.0530 -0.4070 -0.4959
17913TIP3    H275155   1.602   5.481   2.738 -0.8602 -0.0456  0.2601
17914TIP3   OH275156   3.983   1.172   1.562 -0.2268  0.8524  0.4444
17914TIP3    H175157   4.067   1.205   1.529 -0.1684  0.1030 -0.1713
17914TIP3    H275158   3.992   1.177   1.658 -0.2374  2.6543  0.3962
17915TIP3   OH275159   0.039   1.904  15.102  0.4377  0.6641 -0.8857
17915TIP3    H175160   0.014   1.983  15.151  0.3535  1.0061 -1.4745
17915TIP3    H275161   0.007   1.832  15.156 -0.0734  1.0520 -0.6595
17916TIP3   OH275162   1.308   3.114   0.443  0.1870  0.1608  0.2721
17916TIP3    H175163   1.319   3.092   0.536  1.7632 -0.9321 -0.1322
17916TIP3    H275164   1.254   3.043   0.407  2.3764 -1.3119 -0.3006
17917TIP3   OH275165   5.901   0.663   5.099  0.2208 -0.3630 -0.5222
17917TIP3    H175166   5.944   0.612   5.030  1.1455  0.2997 -0.4548
17917TIP3    H275167   5.858   0.598   5.154 -1.6403 -0.8550 -2.4179
17918TIP3   OH275168   3.588   6.413   1.349  0.4664 -0.0879  0.2395
17918TIP3    H175169   3.621   6.451   1.431  1.1818  0.6249 -0.3606
17918TIP3    H275170   3.525   6.348   1.377  2.0113 -1.1560  1.4337
17919TIP3   OH275171   1.858   3.615  14.982 -0.0876 -0.7253 -0.6295
17919TIP3    H175172   1.829   3.566  14.904  1.7398 -0.1583 -1.7138
17919TIP3    H275173   1.856   3.551  15.053 -1.6781 -1.2883 -1.1313
17920TIP3   OH275174   6.641   2.559  11.172 -0.7075  0.7321  0.3710
17920TIP3    H175175   6.594   2.480  11.199 -1.2834  0.9522  0.0297
17920TIP3    H275176   6.675   2.538  11.085  1.4510 -0.1069  1.3311
17921TIP3   OH275177   5.950   5.462   5.378 -0.5778  0.0087  0.0328
17921TIP3    H175178   5.996   5.384   5.409 -0.0373  0.6823  0.9470
17921TIP3    H275179   5.927   5.441   5.287  0.6531 -0.7349 -0.1309
17922TIP3   OH275180   4.709   3.179   4.421  0.1099 -0.2872 -0.4723
17922TIP3    H175181   4.765   3.119   4.372  0.2742  1.3807 -2.4682
17922TIP3    H275182   4.739   3.266   4.396 -0.2057  0.6809  2.2193
17923TIP3   OH275183   1.823   4.673  11.724 -0.1701 -0.2887 -0.2148
17923TIP3    H175184   1.852   4.690  11.813 -0.5357  1.1016 -0.3319
17923TIP3    H275185   1.897   4.699  11.669 -0.1184 -0.6908 -0.3373
17924TIP3   OH275186   3.097   4.633  16.576 -0.0742 -0.5300 -0.0753
17924TIP3    H175187   3.018   4.580  16.586 -1.8544  1.6224 -1.7184
17924TIP3    H275188   3.129   4.613  16.488  0.4831 -0.4360  0.1007
17925TIP3   OH275189   3.333   0.831  16.205 -0.1513  0.5770 -0.2115
17925TIP3    H175190   3.270   0.830  16.277 -1.0125 -0.2086 -0.9473
17925TIP3    H275191   3.302   0.899  16.146  0.8504  1.5852  0.3884
17926TIP3   OH275192   1.133   2.926  14.678 -0.3530 -0.1438 -0.1505
17926TIP3    H175193   1.081   2.885  14.609  0.1920  1.1390 -1.3733
17926TIP3    H275194   1.217   2.945  14.637  0.0155  0.5716  0.8822
17927TIP3   OH275195   3.085   0.986  16.247 -0.5232 -0.2834  0.0169
17927TIP3    H175196   2.997   0.952  16.231 -1.9970  2.0405  2.3174
17927TIP3    H275197   3.114   0.941  16.326 -0.0769 -0.2966 -0.1502
17928TIP3   OH275198   1.117   2.634  11.203  0.0607  0.8295 -0.2612
17928TIP3    H175199   1.178   2.682  11.259  0.6919 -1.6411  1.3374
17928TIP3    H275200   1.160   2.631  11.118  0.5952  1.9313 -0.0481
17929TIP3   OH275201   2.114   2.003  13.565  0.4338  0.8300  0.0066
17929TIP3    H175202   2.041   1.942  13.560  1.6987 -0.8763  1.2349
17929TIP3    H275203   2.142   2.015  13.474  0.4240 -0.7820 -0.2356
17930TIP3   OH275204   3.816   2.442   5.120 -0.0317  0.1298 -0.0365
17930TIP3    H175205   3.819   2.529   5.159 -2.4920 -0.1536  0.9351
17930TIP3    H275206   3.774   2.454   5.035 -0.2117 -0.0951  0.0199
17931TIP3   OH275207   0.429   6.138  15.514 -0.5154  0.1995  0.1470
17931TIP3    H175208   0.375   6.205  15.472  0.4887  0.9466 -0.0015
17931TIP3    H275209   0.487   6.188  15.572  1.6955 -0.2820 -1.5046
17932TIP3   OH275210   0.997   4.790  16.845 -0.1886  0.1340  0.1772
17932TIP3    H175211   1.033   4.727  16.906  0.3724 -0.2497 -0.5290
17932TIP3    H275212   0.902   4.783  16.856 -0.1220  1.8719  2.7804
17933TIP3   OH275213   1.880   5.333  16.844  0.2527 -0.0231 -0.7047
17933TIP3    H175214   1.820   5.348  16.771  0.4414 -2.3472 -1.3872
17933TIP3    H275215   1.880   5.416  16.892 -1.4488  0.8837 -2.1760
17934TIP3   OH275216   5.708   0.105  16.052  0.2756 -0.5047 -0.0391
17934TIP3    H175217   5.769   0.156  16.105  1.9557 -0.2362 -2.0911
17934TIP3    H275218   5.638   0.166  16.029  0.2383 -0.2565  0.7167
17935TIP3   OH275219   2.111   4.117   3.886  0.5777 -0.4322 -0.1271
17935TIP3    H175220   2.080   4.036   3.927  0.7933 -0.1571  0.6082
17935TIP3    H275221   2.183   4.146   3.943  0.4188  0.3403 -0.3094
17936TIP3   OH275222   1.045   2.819  16.416 -0.0294 -0.2833  0.2950
17936TIP3    H175223   1.026   2.897  16.468  1.1104  0.0604  0.2159
17936TIP3    H275224   0.963   2.769  16.417 -0.2715  0.0943  1.7546
17937TIP3   OH275225   6.102   4.501  12.342  0.9266 -0.0442 -0.1909
17937TIP3    H175226   6.155   4.533  12.269 -0.8185  0.4139 -1.3090
17937TIP3    H275227   6.027   4.459  12.301 -0.9901  1.7222  1.2964
17938TIP3   OH275228   3.363   6.297  16.505 -0.1927 -0.2061  0.1829
17938TIP3    H175229   3.419   6.369  16.476 -2.4155  1.2151 -0.8356
17938TIP3    H275230   3.293   6.293  16.441 -1.2586 -1.9364  1.3653
17939TIP3   OH275231   0.685   5.526  15.327 -0.0364  0.8866  0.4694
17939TIP3    H175232   0.696   5.601  15.385  2.1493 -0.3943  1.8723
17939TIP3    H275233   0.744   5.543  15.254  0.0363  0.7871  0.5049
17940TIP3   OH275234   2.197   5.132   5.826  0.8587 -0.1890  0.0167
17940TIP3    H175235   2.214   5.189   5.751 -1.2452  1.2571  0.5431
17940TIP3    H275236   2.189   5.044   5.789 -3.5112  0.8460 -2.1671
17941TIP3   OH275237   6.232   3.152   2.560 -0.3407  0.2507 -0.1164
17941TIP3    H175238   6.239   3.233   2.611 -1.0279 -0.5928  1.3840
17941TIP3    H275239   6.138   3.134   2.557 -0.1318 -1.0745  0.5660
17942TIP3   OH275240   1.888   2.751  16.079 -0.4537  0.4779 -0.1212
17942TIP3    H175241   1.936   2.759  16.161  1.2831  0.7879 -1.1042
17942TIP3    H275242   1.880   2.657  16.064 -1.0243  0.4207  0.5294
17943TIP3   OH275243   0.009   5.067   0.258  0.9955  0.4376  1.1555
17943TIP3    H175244   0.083   5.042   0.201 -1.2237 -0.9981 -1.3463
17943TIP3    H275245  -0.000   4.994   0.318 -0.3391 -1.0286 -0.7184
17944TIP3   OH275246   0.644   6.086   5.477  0.1262  0.0897 -0.0807
17944TIP3    H175247   0.580   6.039   5.532  2.4089 -0.9791  1.8492
17944TIP3    H275248   0.662   6.026   5.405 -1.1480  0.4847 -0.7521
17945TIP3   OH275249   4.384   3.888   4.073  0.1139 -0.0076  0.7919
17945TIP3    H175250   4.346   3.892   4.160 -0.8176 -1.2666  0.4768
17945TIP3    H275251   4.414   3.797   4.064  0.5054  0.1918 -0.0602
17946TIP3   OH275252   4.966   5.436   4.285  0.1336  0.4750  0.4696
17946TIP3    H175253   5.034   5.499   4.310  0.6170  0.3148 -0.4234
17946TIP3    H275254   5.013   5.354   4.271 -0.4575 -0.0403  1.3605
17947TIP3   OH275255   3.547   1.462   0.885 -0.0878  0.3085 -0.0522
17947TIP3    H175256   3.541   1.439   0.977 -1.4780 -0.0759 -0.2269
17947TIP3    H275257   3.627   1.419   0.855 -0.6235 -1.1603  0.5339
17948TIP3   OH275258   4.549   4.171  12.743  0.4075 -0.2627 -0.4336
17948TIP3    H175259   4.511   4.085  12.725 -0.4584 -0.4560  1.9806
17948TIP3    H275260   4.474   4.227  12.762  1.0862  0.4454  0.2262
17949TIP3   OH275261   5.970   5.547  15.450  0.3533 -0.3531 -0.2518
17949TIP3    H175262   5.943   5.633  15.417 -2.1622 -1.4057 -1.1907
17949TIP3    H275263   6.012   5.505  15.376  2.0230  0.1918  0.3479
17950TIP3   OH275264   3.636   4.939  15.124 -0.2729 -0.1769 -0.3630
17950TIP3    H175265   3.698   4.992  15.173 -0.6126  0.3117 -0.4549
17950TIP3    H275266   3.590   4.888  15.191 -0.5575  0.2984 -0.1960
17951TIP3   OH275267   1.970   6.239   3.842 -0.0004  0.0839 -0.3383
17951TIP3    H175268   1.894   6.270   3.793 -0.5537  0.2976  0.6244
17951TIP3    H275269   1.963   6.144   3.838  0.0597  0.1005 -0.8312
17952TIP3   OH275270   4.418   4.747  15.696  0.2310 -0.5403 -0.5275
17952TIP3    H175271   4.369   4.665  15.698 -0.0545 -0.3628  0.0477
17952TIP3    H275272   4.373   4.803  15.759  0.6439 -0.0673 -0.6470
17953TIP3   OH275273   5.911   4.582  16.610 -0.5324 -0.1629 -0.3246
17953TIP3    H175274   5.976   4.522  16.646  0.8072  0.3918 -1.7351
17953TIP3    H275275   5.953   4.621  16.533 -1.3248  2.5645  0.4960
17954TIP3   OH275276   4.758   4.337   2.481 -0.4498  0.3662  0.6736
17954TIP3    H175277   4.719   4.356   2.396 -0.9534  0.7650  0.9904
17954TIP3    H275278   4.691   4.286   2.527 -0.1020 -0.0159  0.7607
17955TIP3   OH275279   2.839   3.273   4.537 -0.3501  0.4201  1.4368
17955TIP3    H175280   2.778   3.340   4.504  1.4888  0.7275 -1.7343
17955TIP3    H275281   2.811   3.192   4.494  1.0191  0.4519  0.4174
17956TIP3   OH275282   3.789   1.137  13.121  0.6019  0.1105  0.4457
17956TIP3    H175283   3.846   1.060  13.126  3.4199  2.0837  1.9227
17956TIP3    H275284   3.722   1.120  13.187 -0.0620 -1.8813 -0.6533
17957TIP3   OH275285   2.535   0.101   3.676 -0.1871  0.1162  0.3918
17957TIP3    H175286   2.509   0.112   3.584  3.9715 -1.5806 -1.2107
17957TIP3    H275287   2.550   0.007   3.685  0.1046  0.3323  2.6971
17958TIP3   OH275288   1.799   4.343  11.792 -0.6238 -0.3486 -0.3228
17958TIP3    H175289   1.742   4.401  11.843 -0.5128 -0.6481  0.1545
17958TIP3    H275290   1.831   4.279  11.856  0.5125  0.0078 -0.4985
17959TIP3   OH275291   2.409   0.012   2.083 -0.0414  0.5140  0.0854
17959TIP3    H175292   2.380  -0.075   2.057 -1.0974  1.0747 -0.7137
17959TIP3    H275293   2.377   0.069   2.013  0.9000  1.5023  0.4352
17960TIP3   OH275294   0.923   2.402  14.885 -0.1665  0.1830 -0.1871
17960TIP3    H175295   0.980   2.343  14.834 -0.5863  0.0103 -0.4648
17960TIP3    H275296   0.928   2.369  14.974  0.2174  0.2043 -0.1988
17961TIP3   OH275297   1.376   1.085  15.369  0.3825  0.3292 -0.1716
17961TIP3    H175298   1.428   1.109  15.293  0.1156 -0.0325 -0.4741
17961TIP3    H275299   1.428   1.018  15.414 -0.2055 -0.6935 -0.9652
17962TIP3   OH275300   2.760   0.148  13.646  0.1329 -0.2625  0.5546
17962TIP3    H175301   2.690   0.113  13.591  0.5347  0.7870 -0.6840
17962TIP3    H275302   2.719   0.217  13.697  0.5889  1.7715 -1.6512
17963TIP3   OH275303   4.355   1.462   4.850  0.1256 -0.1452  0.0982
17963TIP3    H175304   4.385   1.384   4.897 -0.4559 -0.3099  0.2085
17963TIP3    H275305   4.341   1.527   4.918  0.6938  0.0828 -0.0031
17964TIP3   OH275306   4.580   0.470   1.312 -0.2635  0.0051  0.2939
17964TIP3    H175307   4.516   0.541   1.311 -1.7504 -1.2753 -1.2040
17964TIP3    H275308   4.663   0.513   1.330 -1.1305  2.1129 -0.4589
17965TIP3   OH275309   2.895   4.634   6.008  0.3610 -0.2120  0.6044
17965TIP3    H175310   2.834   4.682   5.953  0.2557 -0.8630  0.1339
17965TIP3    H275311   2.941   4.576   5.947  0.8481 -0.3373  1.0790
17966TIP3   OH275312   0.072   0.804   2.232 -0.2614  0.2303 -0.3505
17966TIP3    H175313   0.102   0.884   2.276 -2.0349 -0.8366  3.2591
17966TIP3    H275314   0.151   0.751   2.222  0.8106  2.0662 -2.1011
17967TIP3   OH275315   5.962   1.462   0.819  0.2278 -0.1222  0.2228
17967TIP3    H175316   6.035   1.403   0.839 -0.1277 -0.4198  0.6839
17967TIP3    H275317   5.981   1.496   0.732  0.6642 -0.5864  0.1320
17968TIP3   OH275318   5.803   5.236   1.274 -0.8079  0.2207 -1.0247
17968TIP3    H175319   5.893   5.267   1.276 -1.1503  1.3111 -1.5982
17968TIP3    H275320   5.780   5.223   1.366  0.2679 -1.1230 -0.9237
17969TIP3   OH275321   5.981   0.348  14.695  0.0338  0.3950  0.5987
17969TIP3    H175322   6.048   0.402  14.652 -0.6655  0.3921 -0.5242
17969TIP3    H275323   5.901   0.364  14.645 -0.5721 -0.4157  1.2776
17970TIP3   OH275324   5.782   2.696  13.267  0.4688  0.2294 -0.5077
17970TIP3    H175325   5.792   2.601  13.281  0.3180  0.2122 -0.5199
17970TIP3    H275326   5.828   2.736  13.341 -0.0172  0.1433 -0.1579
17971TIP3   OH275327   3.346   4.767  12.173 -0.2470 -0.3953  0.2094
17971TIP3    H175328   3.279   4.835  12.177  0.8361  0.7148  0.0959
17971TIP3    H275329   3.326   4.718  12.093 -1.1846 -0.3723  0.4236
17972TIP3   OH275330   3.275   1.774  16.918  0.1108  0.2998 -0.5420
17972TIP3    H175331   3.259   1.816  17.002 -1.5866  2.2614 -1.7340
17972TIP3    H275332   3.212   1.702  16.915  1.5749 -1.0761  0.6526
17973TIP3   OH275333   3.297   4.576   1.294  0.1189  0.1828 -0.1893
17973TIP3    H175334   3.348   4.533   1.225  1.1989  0.3628  0.4755
17973TIP3    H275335   3.228   4.622   1.247  1.4721  1.1873 -1.2721
17974TIP3   OH275336   0.387   5.812   2.892  0.1116 -0.1184  0.2340
17974TIP3    H175337   0.408   5.853   2.975  0.3790  0.2428 -0.0098
17974TIP3    H275338   0.471   5.786   2.855 -0.0067 -0.2950  0.0858
17975TIP3   OH275339   3.518   5.647   4.127  0.1458  0.2286  0.3210
17975TIP3    H175340   3.532   5.612   4.039  2.0444  0.4008  0.5106
17975TIP3    H275341   3.509   5.570   4.183 -0.6705  0.1160  0.0459
17976TIP3   OH275342   1.903   5.021   5.539  0.3447  0.5887  0.6137
17976TIP3    H175343   1.889   5.000   5.632 -0.2904 -1.6500  0.0621
17976TIP3    H275344   1.996   5.040   5.533  0.4202  0.6559  1.6897
17977TIP3   OH275345   1.511   6.681   1.866 -0.2878 -0.4806 -0.0775
17977TIP3    H175346   1.514   6.704   1.773 -1.7139 -1.8081 -0.5085
17977TIP3    H275347   1.591   6.632   1.882 -0.5645 -1.2193 -0.9089
17978TIP3   OH275348   3.795   2.210   2.305 -0.7606  0.1128  0.1643
17978TIP3    H175349   3.881   2.242   2.277 -0.4456 -0.5145  0.3727
17978TIP3    H275350   3.816   2.144   2.372 -1.4278  0.3376  0.5981
17979TIP3   OH275351   4.279   3.081  14.700  0.4084 -0.3015  0.5452
17979TIP3    H175352   4.372   3.102  14.705 -0.1803  2.6935  0.5090
17979TIP3    H275353   4.264   3.061  14.607  1.3272 -2.9793  0.8802
17980TIP3   OH275354   6.560   2.878   3.473  0.0230 -0.0689  0.0439
17980TIP3    H175355   6.577   2.887   3.379 -0.8758 -0.7126 -0.1950
17980TIP3    H275356   6.485   2.936   3.490  1.2526  1.3752  0.7229
17981TIP3   OH275357   4.230   1.045   4.280 -0.0565 -0.1119  0.3249
17981TIP3    H175358   4.263   1.082   4.199  0.6227  1.2010  1.1613
17981TIP3    H275359   4.149   1.093   4.297 -0.8353 -1.2070 -0.1575
17982TIP3   OH275360   1.036   3.829   2.041 -0.7518 -0.0603 -0.1990
17982TIP3    H175361   1.120   3.847   1.998 -1.8557  1.1382 -2.0109
17982TIP3    H275362   0.970   3.849   1.974 -2.4764 -2.0400  0.7905
17983TIP3   OH275363   3.020   0.111   3.279  0.6151  0.1561 -0.1417
17983TIP3    H175364   2.981   0.077   3.199  0.4657 -0.2654  0.1074
17983TIP3    H275365   3.096   0.055   3.295  0.3025 -0.1389  0.3310
17984TIP3   OH275366   2.625   4.741   4.638  0.4055 -0.3873  0.0292
17984TIP3    H175367   2.693   4.693   4.592  1.1575  0.0402  0.6769
17984TIP3    H275368   2.671   4.812   4.684 -0.3711 -0.4834  1.0086
17985TIP3   OH275369   6.160   0.645   3.385  0.7449  0.2524  0.1177
17985TIP3    H175370   6.076   0.691   3.377  0.1690 -0.5724  1.2067
17985TIP3    H275371   6.194   0.673   3.470 -0.1406 -2.1229  1.3341
17986TIP3   OH275372   0.356   4.512   4.722  0.6485 -0.2201 -0.3264
17986TIP3    H175373   0.442   4.553   4.710  1.0475 -0.9375  0.0193
17986TIP3    H275374   0.368   4.452   4.795 -0.8671  1.7086  1.6587
17987TIP3   OH275375   5.552   2.509  11.497  0.0499  0.1786  0.2583
17987TIP3    H175376   5.507   2.431  11.531 -1.2873 -0.0370 -1.8150
17987TIP3    H275377   5.500   2.535  11.421  1.1006  2.4708  0.2568
17988TIP3   OH275378   2.715   0.054   0.779 -0.0676  0.0304 -0.2212
17988TIP3    H175379   2.660   0.117   0.733 -0.3675  1.1039  1.5209
17988TIP3    H275380   2.803   0.069   0.744 -0.5186 -0.2967 -1.5554
17989TIP3   OH275381   2.825   3.354  13.545  0.4318 -0.4029  0.3436
17989TIP3    H175382   2.794   3.423  13.487  1.1743 -0.0107  0.4092
17989TIP3    H275383   2.746   3.326  13.593 -0.2001 -0.7771 -0.8755
17990TIP3   OH275384   1.896   5.308  12.949  0.2260  0.0694  0.0561
17990TIP3    H175385   1.917   5.361  13.026  2.1615 -0.2318 -0.2257
17990TIP3    H275386   1.813   5.344  12.917 -0.5275  0.3339  2.1437
17991TIP3   OH275387   5.590   0.398   2.442 -0.2372 -0.2822 -0.3606
17991TIP3    H175388   5.589   0.303   2.454  1.5959 -0.3686 -0.5984
17991TIP3    H275389   5.551   0.412   2.355  0.3241 -0.8938 -0.7151
17992TIP3   OH275390   2.890   2.153  14.500 -0.0005  0.0069  0.4840
17992TIP3    H175391   2.978   2.154  14.539  1.7293 -2.7114 -2.7548
17992TIP3    H275392   2.871   2.060  14.486 -1.7909  0.6489 -2.0414
17993TIP3   OH275393   4.077   6.128   5.237  0.2304  0.0731  0.5814
17993TIP3    H175394   4.054   6.207   5.189  0.4726 -0.2017  0.0017
17993TIP3    H275395   4.173   6.127   5.236  0.2254 -0.4712  0.1700
17994TIP3   OH275396   4.685   1.861  16.025  0.3748  0.0766  0.0709
17994TIP3    H175397   4.680   1.955  16.043 -0.2495  0.1480 -0.4402
17994TIP3    H275398   4.624   1.821  16.087 -1.4795  0.2857 -1.5410
17995TIP3   OH275399   4.912   6.746  17.365 -0.1435 -0.6102  0.1309
17995TIP3    H175400   4.988   6.724  17.311 -0.4287 -1.2252 -0.0271
17995TIP3    H275401   4.870   6.662  17.383 -0.0982 -0.3995  1.2561
17996TIP3   OH275402   6.289   3.672   5.289  0.3984 -0.7467  0.5310
17996TIP3    H175403   6.292   3.657   5.194  3.6849 -1.1939  0.5942
17996TIP3    H275404   6.347   3.605   5.325 -0.3378 -0.2110  2.8294
17997TIP3   OH275405   1.125   6.079  11.925  0.6942 -0.7701  0.8701
17997TIP3    H175406   1.220   6.092  11.928  0.7196 -1.1076  1.8360
17997TIP3    H275407   1.113   5.985  11.938  0.3127 -1.1093 -1.5658
17998TIP3   OH275408   3.313   2.149  16.834 -0.2455  0.1064  0.4745
17998TIP3    H175409   3.251   2.186  16.770 -0.4032 -0.5290  0.2479
17998TIP3    H275410   3.277   2.173  16.919 -1.0437 -0.6144  0.3555
17999TIP3   OH275411   2.346   6.477   4.980  0.4386 -0.0456 -0.0106
17999TIP3    H175412   2.257   6.448   4.958  0.8566 -0.7846 -0.7363
17999TIP3    H275413   2.338   6.509   5.070 -0.8089  0.9625 -0.4478
18000TIP3   OH275414   0.664   5.547  10.683 -0.1145  0.0413 -0.0848
18000TIP3    H175415   0.623   5.621  10.637 -0.7585 -0.0464  0.3461
18000TIP3    H275416   0.596   5.514  10.741  0.2384 -0.7618 -0.1149
18001TIP3   OH275417   0.922   5.865   3.718  0.3283  0.5638  0.4346
18001TIP3    H175418   0.912   5.894   3.627 -0.2927 -0.0776  0.2919
18001TIP3    H275419   0.836   5.828   3.741  1.2112 -1.5896  0.4597
18002TIP3   OH275420   5.374   3.653   5.636  0.1796 -0.1648 -0.2283
18002TIP3    H175421   5.461   3.617   5.656 -0.2030  0.2447  2.7046
18002TIP3    H275422   5.332   3.661   5.722 -2.1642  1.1765 -1.4141
18003TIP3   OH275423   2.837   5.652   0.289 -0.0896 -0.2912 -0.3847
18003TIP3    H175424   2.906   5.707   0.326 -0.3562 -0.2709  0.0897
18003TIP3    H275425   2.782   5.630   0.363 -1.2690  0.6470 -0.9616
18004TIP3   OH275426   4.208   0.653  12.444 -0.0848  0.2130 -0.0697
18004TIP3    H175427   4.181   0.569  12.406 -2.2379  1.4326 -1.4741
18004TIP3    H275428   4.299   0.639  12.470 -0.1486 -2.3308 -0.8599
18005TIP3   OH275429   2.672   1.203  13.943 -0.3407 -0.1410 -0.3904
18005TIP3    H175430   2.627   1.131  13.987  2.2161 -1.5530  0.0991
18005TIP3    H275431   2.700   1.166  13.859  1.1291  0.1812 -0.0734
18006TIP3   OH275432   2.756   2.358   6.296  0.1598 -0.0380  0.2044
18006TIP3    H175433   2.783   2.267   6.307 -0.4213 -0.3231 -0.5881
18006TIP3    H275434   2.679   2.353   6.239  0.9070  1.0332 -0.9653
18007TIP3   OH275435   0.843   2.426  10.502 -0.4373 -0.5542  0.2648
18007TIP3    H175436   0.902   2.501  10.500  0.9412 -1.5768  0.8912
18007TIP3    H275437   0.761   2.461  10.539 -0.2476  0.8777 -0.5884
18008TIP3   OH275438   6.570   2.935  12.243 -0.1301  0.4781  0.2007
18008TIP3    H175439   6.581   2.845  12.273 -2.2274  0.4909  1.1672
18008TIP3    H275440   6.548   2.927  12.151  0.0325  0.0376  0.1973
18009TIP3   OH275441   4.614   1.277   2.558  0.0824  0.5830 -0.2162
18009TIP3    H175442   4.571   1.285   2.643  0.6231 -2.3248  0.4516
18009TIP3    H275443   4.707   1.293   2.576  0.3546 -1.1023  0.0146
18010TIP3   OH275444   2.013   1.334  15.658  0.1616 -0.3610  0.1292
18010TIP3    H175445   1.956   1.319  15.583  0.7086  0.5205 -0.4716
18010TIP3    H275446   1.962   1.389  15.717 -0.4804 -1.5072  0.6881
18011TIP3   OH275447   4.168   4.709   0.485  0.3440 -0.2132 -0.5929
18011TIP3    H175448   4.237   4.684   0.547 -0.2696  0.6232  0.4638
18011TIP3    H275449   4.215   4.759   0.417  0.8659 -0.1251 -0.1793
18012TIP3   OH275450   0.828   6.711  10.609 -0.0161 -0.3467  0.2375
18012TIP3    H175451   0.850   6.624  10.574  1.0920 -0.0749  0.2371
18012TIP3    H275452   0.882   6.771  10.559 -1.6682  0.4989 -0.6159
18013TIP3   OH275453   5.175   1.215   5.897 -0.5431  0.6015 -0.1192
18013TIP3    H175454   5.108   1.188   5.834 -0.2995 -0.9521  0.2451
18013TIP3    H275455   5.168   1.151   5.968  1.2092  0.4940 -0.0007
18014TIP3   OH275456   5.928   3.770  16.305 -0.4819  0.3880 -0.5497
18014TIP3    H175457   5.972   3.849  16.337  1.5431 -0.7038 -0.5063
18014TIP3    H275458   5.904   3.723  16.385 -0.5729  0.3560 -0.5959
18015TIP3   OH275459   2.456   3.533  12.568  0.5585  0.2204 -0.6770
18015TIP3    H175460   2.431   3.609  12.621 -0.0831 -0.2300 -0.3101
18015TIP3    H275461   2.551   3.535  12.567  0.7258 -1.0107  2.4392
18016TIP3   OH275462   5.745   2.463   5.059  0.2533  0.4494  0.0737
18016TIP3    H175463   5.777   2.553   5.048 -0.3598  0.4048 -3.3474
18016TIP3    H275464   5.816   2.409   5.024 -0.1929 -0.2291  0.2001
18017TIP3   OH275465   3.690   4.690  17.321  0.3037  0.0781 -0.4201
18017TIP3    H175466   3.696   4.632  17.397  0.6511  1.8954  1.0079
18017TIP3    H275467   3.597   4.704  17.309  0.2639  0.3284  0.1305
18018TIP3   OH275468   1.296   4.474   5.454  0.2343 -0.3493 -0.2323
18018TIP3    H175469   1.349   4.532   5.508  1.1105  0.3982 -1.8273
18018TIP3    H275470   1.312   4.386   5.489 -0.3272  0.2191  1.5704
18019TIP3   OH275471   0.137   6.717  11.816  0.0450  0.5227 -0.3134
18019TIP3    H175472   0.199   6.644  11.824  1.0779  1.4824  1.1500
18019TIP3    H275473   0.182   6.780  11.760  0.0361  0.8714  0.0663
18020TIP3   OH275474   5.400   1.389  12.960  0.7293 -0.3652 -0.4371
18020TIP3    H175475   5.378   1.482  12.969 -2.2580 -1.0694  0.6058
18020TIP3    H275476   5.411   1.359  13.050 -1.1770 -1.5699 -0.5580
18021TIP3   OH275477   1.855   0.565  11.667  0.4230 -0.1742  0.1291
18021TIP3    H175478   1.856   0.588  11.574  0.7988 -0.2538  0.1104
18021TIP3    H275479   1.820   0.476  11.669  1.2384 -0.5074 -0.0209
18022TIP3   OH275480   4.273   3.871  16.087 -0.0249 -0.2118  0.2729
18022TIP3    H175481   4.270   3.777  16.107 -3.8159 -0.2186  0.3843
18022TIP3    H275482   4.285   3.913  16.173 -0.5169 -0.5778  0.5296
18023TIP3   OH275483   3.677   6.032   0.056 -0.8273  0.3051  0.3778
18023TIP3    H175484   3.709   6.093  -0.011  0.3804 -0.2394  0.4462
18023TIP3    H275485   3.652   5.954   0.007  1.3254 -0.6127  0.6430
18024TIP3   OH275486   0.011   4.797   0.352 -0.0955 -0.4580 -0.5241
18024TIP3    H175487  -0.028   4.733   0.292 -0.1589 -2.4419  1.4914
18024TIP3    H275488   0.099   4.763   0.368  0.5953  1.0783 -0.9119
18025TIP3   OH275489   3.898   2.553   3.517  0.0953 -0.3782 -0.3476
18025TIP3    H175490   3.982   2.509   3.528  0.3428  0.1306 -0.1466
18025TIP3    H275491   3.907   2.602   3.435  0.5535  0.8640  0.4048
18026TIP3   OH275492   3.283   5.583   2.638 -0.1867  0.1589 -0.2519
18026TIP3    H175493   3.303   5.590   2.545  0.2656 -0.2131 -0.1886
18026TIP3    H275494   3.369   5.589   2.681 -0.4159  0.5622  0.1538
18027TIP3   OH275495   3.037   6.229   3.292  0.1674 -0.0633 -0.2292
18027TIP3    H175496   2.989   6.311   3.278  2.8420  1.5330 -0.6457
18027TIP3    H275497   3.127   6.256   3.309  0.7822 -2.8746  1.6174
18028TIP3   OH275498   2.429   5.613   4.157 -0.1566  0.1940 -0.2461
18028TIP3    H175499   2.335   5.620   4.177  0.0187  0.4624  0.5368
18028TIP3    H275500   2.460   5.704   4.156  0.3988  0.0473  1.1147
18029TIP3   OH275501   4.128   4.017  11.674  0.4728  0.4158  0.2252
18029TIP3    H175502   4.190   3.981  11.611 -1.8673  0.9167 -2.5838
18029TIP3    H275503   4.055   3.955  11.674 -0.6833  1.7160  0.4740
18030TIP3   OH275504   2.377   5.450  14.367  0.3389  0.2257 -0.0654
18030TIP3    H175505   2.335   5.527  14.404  1.0870  1.0549 -0.8728
18030TIP3    H275506   2.383   5.469  14.273  0.8655 -0.6523 -0.2220
18031TIP3   OH275507   4.542   2.904   2.410  0.5540 -0.2765  0.2188
18031TIP3    H175508   4.480   2.866   2.347  1.4882 -0.2145 -0.7684
18031TIP3    H275509   4.628   2.884   2.373  1.1851 -1.2935  2.1039
18032TIP3   OH275510   5.025   5.570  13.434 -0.5828  0.3546 -0.4144
18032TIP3    H175511   4.966   5.496  13.450 -1.2227  0.1094 -3.3452
18032TIP3    H275512   4.971   5.647  13.447 -0.5132  0.2655  0.4814
18033TIP3   OH275513   0.466   3.645   0.138 -0.5837 -0.3713 -0.1247
18033TIP3    H175514   0.406   3.657   0.211 -0.8115 -1.8141 -0.0510
18033TIP3    H275515   0.427   3.696   0.067 -1.9058 -1.2761 -0.0833
18034TIP3   OH275516   5.835   1.956   2.522  0.3856  0.5583 -0.1404
18034TIP3    H175517   5.859   1.869   2.556  0.1881 -0.3458 -2.1998
18034TIP3    H275518   5.740   1.957   2.527  0.4481  1.8525  2.5518
18035TIP3   OH275519   4.196   1.513  11.147  0.1700 -0.2758 -0.0458
18035TIP3    H175520   4.172   1.575  11.216 -0.2772 -1.0921  0.5610
18035TIP3    H275521   4.112   1.490  11.106  0.4441  0.2703 -0.9364
18036TIP3   OH275522   3.982   0.635  17.159  0.5157  0.5351  0.3263
18036TIP3    H175523   3.978   0.687  17.239  0.4998  1.3279 -0.1705
18036TIP3    H275524   4.039   0.685  17.101 -0.6221  0.7440 -0.6712
18037TIP3   OH275525   2.604   1.073  13.187 -0.1198  0.5555 -0.0472
18037TIP3    H175526   2.637   1.020  13.260  0.2331  1.8403  0.7499
18037TIP3    H275527   2.534   1.126  13.225 -1.5212 -0.3667 -1.1793
18038TIP3   OH275528   3.266   0.591   4.205 -0.1421 -0.6221 -0.6310
18038TIP3    H175529   3.195   0.535   4.176 -0.1649 -0.6481 -0.5240
18038TIP3    H275530   3.253   0.600   4.299  0.4259 -1.2323 -0.4858
18039TIP3   OH275531   0.892   4.354   4.015 -0.2425  0.0248  0.1725
18039TIP3    H175532   0.926   4.382   4.100  1.9804 -0.6400 -0.4297
18039TIP3    H275533   0.830   4.284   4.035  0.8108 -0.6364  1.2474
18040TIP3   OH275534   1.721   4.478  17.151 -0.1922 -0.4393 -1.0068
18040TIP3    H175535   1.685   4.547  17.208  0.0485 -1.6605  0.6996
18040TIP3    H275536   1.808   4.511  17.126 -0.1029 -0.0810 -0.2579
18041TIP3   OH275537   4.347   4.466  15.470  0.3098 -0.0841  0.3368
18041TIP3    H175538   4.440   4.454  15.448  0.6678  0.1318  1.6859
18041TIP3    H275539   4.312   4.513  15.394  0.7454 -2.1906 -1.2652
18042TIP3   OH275540   5.717   1.809  12.286  0.4696  0.3162 -0.8340
18042TIP3    H175541   5.637   1.830  12.238 -0.8764 -1.1003  0.6233
18042TIP3    H275542   5.686   1.762  12.364  2.7984 -2.2465 -1.2639
18043TIP3   OH275543   1.921   4.517  13.590  0.2225 -0.4646  0.2432
18043TIP3    H175544   1.994   4.460  13.611 -0.9254 -1.5527  1.4593
18043TIP3    H275545   1.945   4.558  13.507  2.7768  0.2297  1.2371
18044TIP3   OH275546   4.743   5.360   2.575  0.3625 -0.0456  0.0390
18044TIP3    H175547   4.729   5.314   2.492 -0.8847 -0.5145  0.4896
18044TIP3    H275548   4.801   5.302   2.625 -1.5156 -1.4141  0.7605
18045TIP3   OH275549   1.411   5.784   3.147  0.0837 -0.4391 -0.1170
18045TIP3    H175550   1.471   5.710   3.157 -0.5645 -0.7450  2.1965
18045TIP3    H275551   1.381   5.779   3.056 -0.2916 -3.3530  0.0660
18046TIP3   OH275552   5.927   0.855  13.294  0.3067 -0.3146  0.0729
18046TIP3    H175553   6.002   0.900  13.255  0.5622  0.8172  1.7671
18046TIP3    H275554   5.954   0.839  13.384 -1.2874 -0.4205  0.5477
18047TIP3   OH275555   2.927   2.252  16.975 -0.5536  0.1061  0.2847
18047TIP3    H175556   2.894   2.286  16.892  1.3667  1.0698 -0.1378
18047TIP3    H275557   2.997   2.312  17.000 -0.2387 -0.8830  1.9707
18048TIP3   OH275558   4.292   2.101   6.487 -0.7398  0.1666 -0.0267
18048TIP3    H175559   4.223   2.044   6.455 -0.6267  0.2181 -0.3713
18048TIP3    H275560   4.332   2.053   6.559  0.8684 -1.2320 -1.7592
18049TIP3   OH275561   0.450   1.147  15.770 -0.0281 -0.3028  1.0326
18049TIP3    H175562   0.404   1.091  15.708  1.7219 -1.4904  0.7407
18049TIP3    H275563   0.416   1.235  15.753 -0.2922 -0.7391 -0.9507
18050TIP3   OH275564   6.542   6.203  16.999  0.8253  0.0077 -0.1201
18050TIP3    H175565   6.576   6.115  16.988  0.7587  0.1743 -2.1136
18050TIP3    H275566   6.464   6.206  16.944  0.3048  1.0566  0.6267
18051TIP3   OH275567   4.725   5.066   3.653 -0.2787 -0.9280  0.3153
18051TIP3    H175568   4.745   5.138   3.593 -1.3566 -1.1142 -0.2908
18051TIP3    H275569   4.811   5.037   3.684  0.1333  1.5648  1.7426
18052TIP3   OH275570   4.212   3.683   1.843 -0.4640 -0.3458  0.5527
18052TIP3    H175571   4.231   3.737   1.920  1.2136  0.9621 -0.7015
18052TIP3    H275572   4.167   3.741   1.783  1.2525 -0.2859 -0.7725
18053TIP3   OH275573   2.297   2.322   6.772 -0.0410  0.0526  0.0113
18053TIP3    H175574   2.328   2.391   6.830  2.1095 -0.5161 -0.3664
18053TIP3    H275575   2.224   2.281   6.819  0.1278  1.1147  1.2304
18054TIP3   OH275576   0.527   0.905   2.327  0.0039  0.6211  0.2045
18054TIP3    H175577   0.498   0.969   2.262 -0.6217 -1.2571 -1.4373
18054TIP3    H275578   0.445   0.871   2.365  0.3329  0.8194  1.1231
18055TIP3   OH275579   5.689   5.327   2.595 -0.2650  0.2237 -0.2963
18055TIP3    H175580   5.688   5.419   2.571  0.3774  0.6401  1.1526
18055TIP3    H275581   5.781   5.301   2.588 -0.5137 -0.4798 -1.2299
18056TIP3   OH275582   4.920   3.504  11.274  0.2810 -0.3480 -0.3987
18056TIP3    H175583   4.880   3.469  11.194 -1.1985  0.2259  0.0632
18056TIP3    H275584   4.943   3.426  11.326 -0.5220 -0.6860 -0.5427
18057TIP3   OH275585   1.924   1.312  14.562 -0.7521  0.3875  0.0003
18057TIP3    H175586   1.905   1.405  14.554  1.0186  0.7199 -0.8598
18057TIP3    H275587   1.853   1.269  14.515 -0.9886  1.3667 -0.5588
18058TIP3   OH275588   6.215   4.082  16.838  0.8685 -0.1289 -0.3050
18058TIP3    H175589   6.142   4.027  16.806  1.2468 -1.2075  0.6195
18058TIP3    H275590   6.193   4.170  16.808 -1.3350 -0.2443  0.7587
18059TIP3   OH275591   3.332   2.067   1.877  0.4833  0.1954  0.2287
18059TIP3    H175592   3.330   2.157   1.844  1.5571 -0.4331 -1.7346
18059TIP3    H275593   3.327   2.076   1.972  1.4748  2.3898  0.1397
18060TIP3   OH275594   0.181   3.350  13.529  0.1817  0.2421  0.3213
18060TIP3    H175595   0.232   3.422  13.492  2.1607 -0.8627  0.8219
18060TIP3    H275596   0.170   3.288  13.457 -1.1542  0.7944  0.0108
18061TIP3   OH275597   3.033   5.865  13.117 -0.3825 -0.0687  0.1296
18061TIP3    H175598   2.957   5.826  13.074 -1.5635  0.0379  2.0109
18061TIP3    H275599   3.062   5.934  13.056 -1.6842 -0.2229 -0.6995
18062TIP3   OH275600   4.679   0.112   5.228 -0.3383  0.5365 -0.1173
18062TIP3    H175601   4.590   0.122   5.261 -0.7069  1.2495 -1.2521
18062TIP3    H275602   4.678   0.157   5.143  0.8361 -0.3072 -0.6081
18063TIP3   OH275603   5.006   5.775   4.029 -0.1957 -0.0893  0.1524
18063TIP3    H175604   4.985   5.814   3.944 -0.9801 -1.6354 -0.3971
18063TIP3    H275605   4.951   5.696   4.033  0.3970 -0.4424  1.7650
18064TIP3   OH275606   0.397   3.606  15.890 -0.7070  0.7506  0.2476
18064TIP3    H175607   0.394   3.512  15.871  1.4676  0.9367 -1.3171
18064TIP3    H275608   0.363   3.647  15.811  3.5057  1.3481 -1.5476
18065TIP3   OH275609   1.928   1.856  15.833  0.2910  0.6386 -0.6225
18065TIP3    H175610   1.931   1.863  15.738 -2.3034 -3.4137 -1.2129
18065TIP3    H275611   1.988   1.784  15.854 -1.8833 -1.0277  0.2728
18066TIP3   OH275612   3.517   1.652   5.507 -0.7231 -0.7886  0.4748
18066TIP3    H175613   3.563   1.590   5.451 -0.5380  2.6900 -3.7187
18066TIP3    H275614   3.585   1.709   5.541 -1.2779  0.8308 -0.9666
18067TIP3   OH275615   4.597   5.911  14.847  0.3248  0.3715  0.4081
18067TIP3    H175616   4.630   5.968  14.916  0.2791 -0.3799  1.0665
18067TIP3    H275617   4.502   5.911  14.858  0.0532  2.2729 -1.2795
18068TIP3   OH275618   0.556   2.197   0.955  1.1371  0.1892 -0.1123
18068TIP3    H175619   0.630   2.258   0.952  0.9234  0.4993  0.6535
18068TIP3    H275620   0.590   2.117   0.916  1.9104  0.3029  0.2945
18069TIP3   OH275621   0.600   3.073  15.344 -0.0955 -0.9735 -0.0511
18069TIP3    H175622   0.618   3.037  15.431  1.2934 -0.5407 -0.1392
18069TIP3    H275623   0.644   3.013  15.284  0.6008 -0.2121 -0.3178
18070TIP3   OH275624   1.814   2.784  15.788  0.2165 -0.1915 -0.0925
18070TIP3    H175625   1.892   2.806  15.839  2.7586 -1.4027 -3.1471
18070TIP3    H275626   1.844   2.719  15.725 -2.9967  0.2461 -2.3095
18071TIP3   OH275627   3.810   1.593  11.627 -0.3729  0.3180  0.6735
18071TIP3    H175628   3.810   1.657  11.556 -0.8233 -1.7141 -1.2757
18071TIP3    H275629   3.731   1.541  11.613  1.4277 -2.5702  0.2441
18072TIP3   OH275630   3.096   5.643  15.089  0.0933 -0.0279  0.0143
18072TIP3    H175631   3.108   5.548  15.088 -0.7683 -0.2052 -2.7399
18072TIP3    H275632   3.060   5.663  15.003 -1.0274  2.6606  1.0026
18073TIP3   OH275633   5.524   1.350  12.062  0.0439  0.5359 -0.3480
18073TIP3    H175634   5.608   1.306  12.047 -0.1219 -0.4460  1.2952
18073TIP3    H275635   5.468   1.319  11.991  0.2215 -1.2588  0.2220
18074TIP3   OH275636   2.281   3.151   1.031  0.6980 -0.1826 -0.1223
18074TIP3    H175637   2.207   3.140   1.091  0.1800  1.0073 -0.5065
18074TIP3    H275638   2.357   3.162   1.088  0.5921 -1.4033  0.2776
18075TIP3   OH275639   6.535   3.880   4.170  0.2769 -0.1957  0.1324
18075TIP3    H175640   6.576   3.865   4.255  0.7736 -0.7804 -0.2034
18075TIP3    H275641   6.608   3.890   4.109 -0.0053  2.5857  0.1186
18076TIP3   OH275642   5.211   0.697   0.165  0.2010  0.1880 -0.0794
18076TIP3    H175643   5.136   0.667   0.216  1.5976 -1.2359  1.2457
18076TIP3    H275644   5.178   0.703   0.075 -1.8028  0.8339  0.6501
18077TIP3   OH275645   3.230   5.108   0.615  1.6025 -0.4464 -0.4256
18077TIP3    H175646   3.281   5.185   0.642  1.2658 -0.2434 -0.3639
18077TIP3    H275647   3.191   5.133   0.531 -0.9192  0.5977  0.9590
18078TIP3   OH275648   0.797   5.078  13.025 -0.4839 -0.1401  0.3101
18078TIP3    H175649   0.861   5.095  12.957 -1.0121  1.7157  0.2366
18078TIP3    H275650   0.829   4.999  13.068  1.6596  0.5142  0.0384
18079TIP3   OH275651   1.358   6.027  16.574 -0.4935  0.6527 -0.0188
18079TIP3    H175652   1.351   6.085  16.649  2.0268 -0.5845  1.2899
18079TIP3    H275653   1.315   5.946  16.602 -1.6148  0.9321 -0.8397
18080TIP3   OH275654   0.488   2.422   5.961  0.1809 -0.1931  0.3304
18080TIP3    H175655   0.496   2.516   5.975  2.1030 -0.2339 -0.2900
18080TIP3    H275656   0.512   2.383   6.045 -0.4152 -0.1678  0.5243
18081TIP3   OH275657   3.823   2.029   6.441 -0.0183  0.2932 -0.1246
18081TIP3    H175658   3.911   1.993   6.453  0.5487  1.7781  0.4021
18081TIP3    H275659   3.835   2.123   6.452 -1.8112  0.4505  0.7479
18082TIP3   OH275660   1.386   0.176  12.011  0.1512  0.0325 -0.1478
18082TIP3    H175661   1.403   0.218  11.927  1.8908 -2.7524 -1.3251
18082TIP3    H275662   1.444   0.221  12.072  0.7087  0.4738 -0.9835
18083TIP3   OH275663   6.293   1.828   5.599 -0.4533 -0.1299 -0.1912
18083TIP3    H175664   6.304   1.863   5.687  0.4522 -0.0258 -0.3360
18083TIP3    H275665   6.318   1.900   5.541 -1.6725  0.0221 -0.5596
18084TIP3   OH275666   1.247   4.198  12.881 -0.1886  0.0976  0.6284
18084TIP3    H175667   1.180   4.158  12.825 -0.0310  1.2215 -0.3886
18084TIP3    H275668   1.303   4.246  12.821  1.1584 -0.2627  1.5428
18085TIP3   OH275669   0.578   5.689  13.825  0.1457 -0.1375  0.2962
18085TIP3    H175670   0.607   5.614  13.876 -2.5036 -1.7779 -0.3835
18085TIP3    H275671   0.533   5.745  13.888 -1.9693 -1.5205  0.1340
18086TIP3   OH275672   5.639   6.559   4.165 -0.1859  0.2467  1.1813
18086TIP3    H175673   5.642   6.655   4.156 -0.0589  0.3055  1.7712
18086TIP3    H275674   5.577   6.544   4.237 -1.3323 -0.1933  0.1280
18087TIP3   OH275675   5.181   5.389  13.686  0.5481  0.0004 -0.1049
18087TIP3    H175676   5.170   5.331  13.611 -2.1154  1.5159 -1.0526
18087TIP3    H275677   5.241   5.457  13.655  0.1273  0.1610 -0.5709
18088TIP3   OH275678   2.799   4.355  14.820 -0.4817  0.2504  0.3392
18088TIP3    H175679   2.872   4.369  14.880 -1.1652  1.4393  0.9212
18088TIP3    H275680   2.839   4.358  14.733  0.0968  1.4072  0.6281
18089TIP3   OH275681   4.049   3.151   1.666  0.2187  0.3374  1.0365
18089TIP3    H175682   4.008   3.070   1.635 -1.5288  1.3894  0.4611
18089TIP3    H275683   4.002   3.172   1.746 -0.3468  1.5444  0.3982
18090TIP3   OH275684   4.266   5.973   2.266  0.6415 -0.3334 -0.0259
18090TIP3    H175685   4.353   5.939   2.245  1.2780  1.7388 -0.9563
18090TIP3    H275686   4.234   6.012   2.185 -0.9182 -0.5117  0.4608
18091TIP3   OH275687   4.862   4.186  13.336 -0.1792 -0.0736  0.0089
18091TIP3    H175688   4.885   4.094  13.324 -1.0877 -0.2274 -0.6044
18091TIP3    H275689   4.784   4.185  13.391 -1.2730  0.2198 -1.4694
18092TIP3   OH275690   4.236   0.066  13.014 -0.0081 -0.0326  0.0517
18092TIP3    H175691   4.305   0.005  12.989 -0.2561 -0.6887  0.9032
18092TIP3    H275692   4.266   0.151  12.983  0.8616 -0.4182 -0.1790
18093TIP3   OH275693   3.597   1.388   5.736 -0.1532 -0.2052 -0.4218
18093TIP3    H175694   3.572   1.385   5.828 -1.8529 -1.8053 -0.8661
18093TIP3    H275695   3.652   1.466   5.728 -1.1560  0.7851  1.6352
18094TIP3   OH275696   2.105   4.949  11.898 -0.3387  0.5252 -0.1175
18094TIP3    H175697   2.104   5.006  11.822 -0.0047 -0.4831 -0.9106
18094TIP3    H275698   2.190   4.966  11.940  0.0347  0.1703 -0.7103
18095TIP3   OH275699   1.237   6.103  17.344  0.3926 -0.4583 -0.4245
18095TIP3    H175700   1.144   6.079  17.351  0.8675 -2.1363  1.0539
18095TIP3    H275701   1.273   6.083  17.431  2.4757 -1.5271 -1.4503
18096TIP3   OH275702   4.569   2.157   0.547  0.3128 -0.1139 -0.2083
18096TIP3    H175703   4.629   2.186   0.616  1.2872 -0.9776 -0.6651
18096TIP3    H275704   4.623   2.102   0.491 -0.3353  0.9546 -1.9395
18097TIP3   OH275705   1.477   2.247  17.255 -0.0906  0.0080  0.3351
18097TIP3    H175706   1.449   2.161  17.287  1.8413 -1.4133 -1.5590
18097TIP3    H275707   1.556   2.230  17.206  0.0245  2.8341 -0.6346
18098TIP3   OH275708   2.559   3.582   1.600 -0.3357 -0.2804  0.2539
18098TIP3    H175709   2.495   3.533   1.549 -1.2819 -0.3044  1.4404
18098TIP3    H275710   2.555   3.671   1.565 -2.2066  0.1142  1.3599
18099TIP3   OH275711   5.256   3.727  12.103 -0.0655  0.0438  0.2526
18099TIP3    H175712   5.333   3.673  12.116 -0.1157 -0.1228 -0.1453
18099TIP3    H275713   5.209   3.685  12.031 -1.3286 -0.7710  1.4829
18100TIP3   OH275714   4.215   3.842  16.808 -0.0657 -0.8302  0.5017
18100TIP3    H175715   4.264   3.857  16.889 -1.5983 -0.0527  1.3291
18100TIP3    H275716   4.279   3.805  16.748  1.4184 -0.2478  1.6651
18101TIP3   OH275717   3.122   5.712  12.271 -0.7361 -0.2874  0.2471
18101TIP3    H175718   3.185   5.784  12.282 -1.3252 -0.0745  2.8905
18101TIP3    H275719   3.079   5.731  12.188  0.8341  1.0332 -0.3263
18102TIP3   OH275720   1.448   4.860   2.323 -0.3623 -0.2781 -0.1089
18102TIP3    H175721   1.373   4.871   2.264 -0.0500 -0.5623 -0.5636
18102TIP3    H275722   1.517   4.823   2.267  0.1775  0.1599  0.2652
18103TIP3   OH275723   1.391   4.199  16.049  0.0641 -0.0588 -0.4751
18103TIP3    H175724   1.311   4.177  16.001  0.3133 -1.3389 -0.3466
18103TIP3    H275725   1.461   4.152  16.003  0.8595  1.5813 -0.9888
18104TIP3   OH275726   2.764   4.836   2.414  0.1466 -0.1164 -0.5169
18104TIP3    H175727   2.704   4.764   2.435 -1.7825  1.4380 -0.4635
18104TIP3    H275728   2.743   4.904   2.477  1.7936  0.6012 -0.7000
18105TIP3   OH275729   1.004   0.561   0.316 -0.6297 -0.3628 -0.1724
18105TIP3    H175730   1.039   0.490   0.262  0.9243 -0.0626  0.4124
18105TIP3    H275731   1.065   0.633   0.304 -0.8277  0.0467  1.1780
18106TIP3   OH275732   3.578   5.610  11.965 -0.2500 -0.4416 -0.1681
18106TIP3    H175733   3.543   5.698  11.951 -1.0653 -0.9489 -1.4899
18106TIP3    H275734   3.531   5.577  12.042  0.8050  0.6227  0.9818
18107TIP3   OH275735   3.091   3.335   2.127  1.1489 -0.5390  0.1362
18107TIP3    H175736   3.096   3.239   2.129 -0.4767 -0.6501  0.5292
18107TIP3    H275737   3.123   3.359   2.040 -0.4383 -1.6173 -0.7944
18108TIP3   OH275738   4.247   5.799  14.561  0.2201  0.5147  0.6826
18108TIP3    H175739   4.293   5.716  14.548 -1.2433 -0.7146  2.8065
18108TIP3    H275740   4.316   5.866  14.559  1.8560 -1.0577  1.8892
18109TIP3   OH275741   3.590   5.137   3.796 -0.1159  0.1908 -0.6366
18109TIP3    H175742   3.579   5.229   3.773 -0.0350  0.3882  0.0911
18109TIP3    H275743   3.501   5.104   3.806 -0.1459  0.1776 -0.9442
18110TIP3   OH275744   3.238   4.820   3.525  0.3355 -0.1421 -0.2362
18110TIP3    H175745   3.144   4.836   3.534  0.3670  0.5855 -1.0862
18110TIP3    H275746   3.248   4.726   3.535 -0.6131 -0.3475 -1.1632
18111TIP3   OH275747   1.856   2.399  12.077  0.0879 -0.4278  0.2419
18111TIP3    H175748   1.892   2.442  11.999  0.6703 -0.1884  0.6405
18111TIP3    H275749   1.931   2.360  12.120 -0.0729  0.3367  1.2538
18112TIP3   OH275750   4.380   0.732  16.091 -0.0386 -0.1430  0.4217
18112TIP3    H175751   4.358   0.708  16.001  1.4777  1.7027 -0.5085
18112TIP3    H275752   4.310   0.792  16.117  0.6096  0.9669 -0.3227
18113TIP3   OH275753   0.925   3.591   4.911  0.2245 -0.3383  0.0775
18113TIP3    H175754   0.913   3.519   4.972  0.5775 -1.0550 -0.6787
18113TIP3    H275755   0.842   3.596   4.863  0.5995 -0.9902 -0.6476
18114TIP3   OH275756   2.974   3.478  15.725  0.5318 -0.8177  0.2363
18114TIP3    H175757   2.994   3.554  15.670  1.2275 -0.2906  1.1914
18114TIP3    H275758   2.946   3.410  15.663  0.8778 -0.1053 -0.7210
18115TIP3   OH275759   2.114   5.831  16.124 -0.2178 -0.1260  0.4282
18115TIP3    H175760   2.189   5.872  16.082 -0.6738 -0.8535 -1.1956
18115TIP3    H275761   2.041   5.846  16.063 -1.2486 -0.0209  1.6337
18116TIP3   OH275762   4.735   5.149  14.893 -0.1935 -0.2454  0.0045
18116TIP3    H175763   4.830   5.159  14.895 -0.2338  0.1368  0.0422
18116TIP3    H275764   4.711   5.124  14.982 -0.4926  3.0874  0.9685
18117TIP3   OH275765   2.500   0.051  10.995  0.3122  0.7232 -0.3079
18117TIP3    H175766   2.492   0.123  10.931  2.9976  0.1242 -1.4534
18117TIP3    H275767   2.573   0.078  11.051 -1.2976  0.7105  1.9083
18118TIP3   OH275768   0.014   2.402   2.880 -0.0181 -0.6032 -0.4977
18118TIP3    H175769  -0.021   2.366   2.961  1.5371  2.5015  1.7665
18118TIP3    H275770   0.071   2.332   2.846 -0.0452 -1.7216  1.5653
18119TIP3   OH275771   1.477   6.428  16.603 -0.0772  0.8084  0.3317
18119TIP3    H175772   1.469   6.361  16.535  1.6562  1.0085 -0.1065
18119TIP3    H275773   1.477   6.511  16.555  2.2390  0.9085  0.4267
18120TIP3   OH275774   0.521   5.571   0.958 -0.3608  0.1269  0.2914
18120TIP3    H175775   0.532   5.492   1.012  0.6956  0.0556 -0.0040
18120TIP3    H275776   0.428   5.569   0.933  0.1218 -2.4023 -1.7548
18121TIP3   OH275777   2.214   5.897  14.962  0.3764 -0.3317 -0.4110
18121TIP3    H175778   2.212   5.925  15.054 -3.7903  0.9353 -0.6842
18121TIP3    H275779   2.222   5.978  14.912 -3.3870 -0.1859 -1.0868
18122TIP3   OH275780   1.464   3.374  17.273 -0.9169  0.3313 -0.2047
18122TIP3    H175781   1.446   3.343  17.362  0.6320 -0.5102 -0.1528
18122TIP3    H275782   1.547   3.420  17.280 -1.1909  0.9797 -1.0764
18123TIP3   OH275783   2.596   3.691  10.889  0.5191  0.2534 -0.0460
18123TIP3    H175784   2.506   3.700  10.920  0.4651  1.6966 -0.5623
18123TIP3    H275785   2.645   3.660  10.966 -0.3417 -0.2474  0.3173
18124TIP3   OH275786   0.807   2.813   3.538  0.5093  0.6369  0.1276
18124TIP3    H175787   0.820   2.797   3.632 -1.9254  1.0096  0.5762
18124TIP3    H275788   0.713   2.801   3.524  1.0009 -0.7911 -2.5636
18125TIP3   OH275789   6.265   1.819   3.169 -0.3500 -0.4429 -0.1733
18125TIP3    H175790   6.221   1.889   3.120  1.1555  0.1802 -0.6874
18125TIP3    H275791   6.323   1.778   3.106  0.1005 -0.9842  0.5800
18126TIP3   OH275792   4.946   4.185  15.301  0.4720 -0.4976  0.5870
18126TIP3    H175793   4.887   4.237  15.356 -0.1208 -0.7556  0.2025
18126TIP3    H275794   4.903   4.181  15.216 -0.8503 -3.8405  1.2631
18127TIP3   OH275795   4.274   3.269  17.373 -0.2877 -0.2777 -0.5823
18127TIP3    H175796   4.359   3.281  17.331  0.3512 -0.7980  0.5086
18127TIP3    H275797   4.284   3.310  17.459 -1.4354  0.4343 -0.7671
18128TIP3   OH275798   2.116   1.333  16.406 -0.3396  0.6011  0.1728
18128TIP3    H175799   2.040   1.277  16.421  0.1413 -0.4698 -1.2352
18128TIP3    H275800   2.166   1.289  16.337  1.0172  1.8232  0.3189
18129TIP3   OH275801   1.331   5.046   6.427  0.0949 -0.2973 -0.2040
18129TIP3    H175802   1.268   5.085   6.366 -0.6150 -1.6511 -0.3925
18129TIP3    H275803   1.278   5.011   6.498  1.0122  2.4929  2.0183
18130TIP3   OH275804   4.608   0.305  15.257 -0.0635  0.5329  0.1108
18130TIP3    H175805   4.644   0.268  15.338  3.1489  1.8975 -0.5485
18130TIP3    H275806   4.681   0.303  15.196 -1.5756  2.1786 -1.8759
18131TIP3   OH275807   1.506   5.547   0.921  0.3608  0.0238 -0.2463
18131TIP3    H175808   1.506   5.606   0.997  0.1581 -1.0960  0.6612
18131TIP3    H275809   1.414   5.541   0.895  0.2323 -0.6684  0.3186
18132TIP3   OH275810   3.647   1.061  15.687  0.2670  0.0329  0.2177
18132TIP3    H175811   3.627   1.068  15.594  2.3409 -2.6755 -0.5501
18132TIP3    H275812   3.561   1.055  15.729 -0.7139 -1.3945 -1.8339
18133TIP3   OH275813   0.623   4.752   5.623  0.0883 -0.1145  0.1645
18133TIP3    H175814   0.675   4.693   5.677  2.1061 -0.5049 -1.9941
18133TIP3    H275815   0.579   4.695   5.560  1.2358  0.5213 -1.2882
18134TIP3   OH275816   2.261   6.229  15.070  0.2324  0.2263  0.1799
18134TIP3    H175817   2.187   6.256  15.126  0.3802  1.1644 -0.0601
18134TIP3    H275818   2.235   6.256  14.982  0.7665  0.3578  0.0610
18135TIP3   OH275819   5.279   6.719   1.645  0.4697 -0.4471 -0.8382
18135TIP3    H175820   5.273   6.648   1.582 -0.7021 -0.5444 -0.6311
18135TIP3    H275821   5.213   6.782   1.616 -0.2251 -0.5879  0.3956
18136TIP3   OH275822   0.986   3.827  11.057 -0.2469 -0.1596 -0.3322
18136TIP3    H175823   0.992   3.879  10.977 -0.5905 -1.3179 -1.1315
18136TIP3    H275824   1.052   3.864  11.115  0.1161  0.5932 -1.2099
18137TIP3   OH275825   1.561   1.378   4.325 -0.7520 -0.3213  0.3508
18137TIP3    H175826   1.485   1.384   4.267 -2.5240  1.1895  2.6647
18137TIP3    H275827   1.617   1.451   4.298 -0.2896 -1.1394 -1.0348
18138TIP3   OH275828   1.725   0.773   2.849 -0.4906 -0.1882  0.2615
18138TIP3    H175829   1.633   0.765   2.822 -0.8802  2.0894  0.7333
18138TIP3    H275830   1.771   0.801   2.770 -0.3470 -0.4935  0.2356
18139TIP3   OH275831   2.019   2.496  14.464 -0.4067 -0.1059 -0.6053
18139TIP3    H175832   2.052   2.510  14.375  1.3779 -0.4032 -0.0351
18139TIP3    H275833   1.924   2.485  14.453 -0.1153 -1.1300 -2.5866
18140TIP3   OH275834   0.507   5.064   3.535 -0.5251  0.6638 -0.1570
18140TIP3    H175835   0.551   5.060   3.619 -0.7974  0.7808 -0.0078
18140TIP3    H275836   0.430   5.118   3.550  0.1760  1.9038 -0.8164
18141TIP3   OH275837   2.899   2.493   4.915  0.7496 -0.0685 -0.5339
18141TIP3    H175838   2.873   2.545   4.991  2.3775  0.3179 -0.2101
18141TIP3    H275839   2.866   2.543   4.840 -2.0019 -1.0885 -0.1347
18142TIP3   OH275840   0.009   0.298   5.329 -0.7351 -0.0017 -0.3692
18142TIP3    H175841   0.025   0.216   5.283  0.4180 -0.5840  1.0048
18142TIP3    H275842   0.076   0.357   5.297 -1.1140  0.1939 -0.8176
18143TIP3   OH275843   1.076   5.091  11.592  0.2418 -0.2947  0.0877
18143TIP3    H175844   1.122   5.107  11.674 -1.2864 -0.7590  1.0773
18143TIP3    H275845   1.145   5.068  11.529  1.8912  3.7210  0.1777
18144TIP3   OH275846   2.285   1.154   4.569  0.1542 -0.1226 -0.0724
18144TIP3    H175847   2.190   1.154   4.579  0.3074 -0.4378  1.6890
18144TIP3    H275848   2.318   1.128   4.655  1.8597  0.6677 -0.4480
18145TIP3   OH275849   5.096   0.939  16.063 -0.4430  0.2045 -0.5075
18145TIP3    H175850   5.056   0.853  16.075 -2.0585  1.0429  0.5444
18145TIP3    H275851   5.131   0.962  16.150  0.2627  0.4776 -0.8564
18146TIP3   OH275852   0.952   1.057  12.781 -0.4793  0.1133 -0.0746
18146TIP3    H175853   0.893   1.128  12.808 -0.3876  0.2628 -0.2645
18146TIP3    H275854   1.015   1.050  12.853 -0.7859 -0.1143  0.1733
18147TIP3   OH275855   5.753   3.727   3.565  0.4597  0.1423  0.0135
18147TIP3    H175856   5.685   3.755   3.503  0.7648 -0.2921 -0.5236
18147TIP3    H275857   5.770   3.804   3.618 -0.1974  0.3632 -0.0830
18148TIP3   OH275858   0.896   3.900  16.618  0.1913 -0.4648 -0.0862
18148TIP3    H175859   0.823   3.956  16.642  1.4364  1.4890 -0.5741
18148TIP3    H275860   0.947   3.953  16.556  1.8177 -1.8878 -0.0441
18149TIP3   OH275861   1.461   5.220  12.148 -0.2897 -0.1949 -0.3719
18149TIP3    H175862   1.418   5.135  12.154  1.5056 -1.1830 -0.7856
18149TIP3    H275863   1.486   5.241  12.238 -0.8709  0.0032 -0.2474
18150TIP3   OH275864   5.777   6.110  14.215 -0.3328 -0.2180 -0.3041
18150TIP3    H175865   5.702   6.160  14.247  0.6630  0.6594  0.7833
18150TIP3    H275866   5.810   6.161  14.141  0.2151  0.3585  0.3186
18151TIP3   OH275867   3.035   6.130   3.739  0.2221 -0.1688  0.3155
18151TIP3    H175868   2.945   6.102   3.753 -0.0280  0.2410 -0.4120
18151TIP3    H275869   3.087   6.074   3.796 -0.5187 -0.1951  0.9762
18152TIP3   OH275870   4.476   4.354  16.995 -0.0423  0.2190  0.2501
18152TIP3    H175871   4.503   4.369  16.904 -0.6310 -0.9721 -0.1541
18152TIP3    H275872   4.412   4.424  17.013 -0.5245 -0.0017 -0.5413
18153TIP3   OH275873   4.310   6.485  11.431 -0.2491 -0.5243 -0.2374
18153TIP3    H175874   4.287   6.572  11.399 -0.3101  0.0868  1.4166
18153TIP3    H275875   4.347   6.499  11.518  1.3053 -2.0095 -0.5932
18154TIP3   OH275876   2.462   1.104   1.290  0.3931  0.1289  0.0364
18154TIP3    H175877   2.513   1.122   1.369  1.8607 -0.6472 -0.7040
18154TIP3    H275878   2.504   1.156   1.222  0.1211 -0.4293 -0.5649
18155TIP3   OH275879   5.868   2.716  14.157 -0.3182 -0.1889  0.0607
18155TIP3    H175880   5.923   2.732  14.234  0.0467  0.9433 -0.4145
18155TIP3    H275881   5.858   2.621  14.154 -1.6779 -0.2228  2.4338
18156TIP3   OH275882   2.181   3.101  11.552  0.0948 -0.2304  0.1745
18156TIP3    H175883   2.087   3.108  11.572  0.2430 -0.8683  1.1501
18156TIP3    H275884   2.225   3.142  11.626  0.5867  0.7030 -0.6114
18157TIP3   OH275885   6.113   4.150   1.906  0.7750  0.4435 -0.4638
18157TIP3    H175886   6.191   4.155   1.851 -0.3688  0.9780 -2.1307
18157TIP3    H275887   6.053   4.214   1.869 -0.9822 -0.9122 -0.1249
18158TIP3   OH275888   2.325   3.945   3.407 -0.3739  0.0635  0.1530
18158TIP3    H175889   2.296   4.023   3.361  1.4599 -0.6283 -2.4154
18158TIP3    H275890   2.251   3.920   3.462 -2.6447  1.1968 -2.1660
18159TIP3   OH275891   1.805   5.052  17.408 -0.1684 -0.1323 -0.2202
18159TIP3    H175892   1.855   5.060  17.490 -2.3422 -1.3951  1.3227
18159TIP3    H275893   1.831   5.129  17.357  2.5089 -0.1679  0.9181
18160TIP3   OH275894   0.407   4.106   1.557  0.3851  0.1973 -0.2387
18160TIP3    H175895   0.342   4.170   1.529 -0.2864 -0.5391 -0.3778
18160TIP3    H275896   0.414   4.117   1.652  0.8691  1.0170 -0.3568
18161TIP3   OH275897   3.402   4.543   1.058  0.0330  0.1082  0.5761
18161TIP3    H175898   3.451   4.613   1.015  1.0639  0.1895  1.7956
18161TIP3    H275899   3.427   4.464   1.011 -2.3349  0.6680 -1.8196
18162TIP3   OH275900   0.002   2.218   4.474 -0.4799 -0.2737  0.9037
18162TIP3    H175901  -0.039   2.190   4.392  0.1019 -1.1367  0.8931
18162TIP3    H275902   0.005   2.138   4.527  0.1536  0.0377  1.3434
18163TIP3   OH275903   0.933   2.480   4.441 -0.4909  0.1293  0.7367
18163TIP3    H175904   0.863   2.501   4.379 -0.3825  0.1897  0.6329
18163TIP3    H275905   1.003   2.543   4.420 -0.4933  0.2149  0.9893
18164TIP3   OH275906   5.495   2.159   3.365  0.6927  0.1338 -0.0322
18164TIP3    H175907   5.402   2.180   3.371  0.8260  0.5590  0.6810
18164TIP3    H275908   5.540   2.237   3.398  1.3762  0.5152 -1.7472
18165TIP3   OH275909   3.689   4.339  17.097 -0.6275 -0.0180 -0.6098
18165TIP3    H175910   3.639   4.332  17.179  0.9584 -0.9615  0.3338
18165TIP3    H275911   3.705   4.433  17.087 -2.2142  0.2536 -0.7168
18166TIP3   OH275912   6.312   1.050  16.914 -0.5065  0.0542  0.0230
18166TIP3    H175913   6.258   1.122  16.883  0.7428  0.5754 -1.0201
18166TIP3    H275914   6.372   1.032  16.842 -1.0285 -2.3095  0.1120
18167TIP3   OH275915   6.357   2.584  15.995  0.1023 -0.2884 -0.2922
18167TIP3    H175916   6.379   2.605  15.904  0.0031 -2.2136 -0.8047
18167TIP3    H275917   6.414   2.640  16.047  0.5568  0.4612 -1.5460
18168TIP3   OH275918   3.619   2.435   0.791  0.0796  0.2070 -0.5340
18168TIP3    H175919   3.615   2.498   0.863 -0.6370 -0.5047  0.0756
18168TIP3    H275920   3.551   2.370   0.812  0.0661 -0.1832 -1.6973
18169TIP3   OH275921   0.719   0.233  11.630  0.0157 -0.1599  0.4299
18169TIP3    H175922   0.628   0.261  11.619  0.3018  0.3580 -0.7718
18169TIP3    H275923   0.727   0.156  11.575  0.5623  0.3986 -0.2867
18170TIP3   OH275924   0.443   1.551  15.638  0.3932  0.0561 -0.6534
18170TIP3    H175925   0.405   1.481  15.585 -2.0749  0.6219  0.2254
18170TIP3    H275926   0.481   1.612  15.575 -1.6345  0.2476 -1.7817
18171TIP3   OH275927   4.612   0.360  13.249  0.3019  0.0618  0.0007
18171TIP3    H175928   4.627   0.453  13.236  0.8818  0.1234  1.0004
18171TIP3    H275929   4.668   0.336  13.322  0.5020 -1.1789 -0.5248
18172TIP3   OH275930   5.915   4.578   3.413 -0.2261 -0.0068 -0.1807
18172TIP3    H175931   5.943   4.606   3.326 -0.3407 -1.0952 -0.5898
18172TIP3    H275932   5.867   4.653   3.449  1.0592  0.9810 -0.4560
18173TIP3   OH275933   0.946   3.710  16.436 -0.0856 -0.7654 -0.4273
18173TIP3    H175934   0.961   3.767  16.511  2.0614 -0.4546 -1.0234
18173TIP3    H275935   0.900   3.634  16.472 -0.7779  0.2029  0.8217
18174TIP3   OH275936   5.024   5.238  15.310 -0.2237  0.2371  0.3256
18174TIP3    H175937   4.935   5.255  15.278 -0.4643  1.4118  1.4969
18174TIP3    H275938   5.023   5.146  15.334 -1.0904  0.1946  0.1805
18175TIP3   OH275939   5.193   3.457   4.865 -0.6367 -0.4759 -0.3077
18175TIP3    H175940   5.225   3.404   4.938 -0.8530 -1.4877 -0.9259
18175TIP3    H275941   5.117   3.504   4.900 -0.5048 -0.6469  0.2188
18176TIP3   OH275942   2.644   1.724  12.559 -0.7877 -0.2070 -0.5165
18176TIP3    H175943   2.589   1.802  12.553 -2.5749 -1.4402 -0.7288
18176TIP3    H275944   2.671   1.720  12.651 -0.7720  0.5909 -0.4839
18177TIP3   OH275945   6.182   0.453  12.134 -0.5947  0.5255 -0.0321
18177TIP3    H175946   6.178   0.405  12.051 -1.3964  0.1319  0.2248
18177TIP3    H275947   6.099   0.501  12.137  0.3503  2.2897 -0.4820
18178TIP3   OH275948   2.080   4.919  14.996 -0.6592 -0.3851 -0.0223
18178TIP3    H175949   2.136   4.987  14.960 -0.3111 -0.6789 -0.0440
18178TIP3    H275950   2.066   4.857  14.924 -0.5536 -0.6006  0.1405
18179TIP3   OH275951   4.956   1.743   6.540  0.5659  0.6033  0.6207
18179TIP3    H175952   4.887   1.745   6.474 -0.2354  0.1660  1.4248
18179TIP3    H275953   5.038   1.752   6.490  0.2326 -2.8634 -0.8082
18180TIP3   OH275954   1.397   2.618  16.148 -0.0862  0.0093 -0.4033
18180TIP3    H175955   1.404   2.522  16.144 -0.9829 -0.3189  2.8429
18180TIP3    H275956   1.466   2.649  16.090  0.4727 -2.5919 -1.3048
18181TIP3   OH275957   1.305   6.025  11.128  0.0850  0.0092 -0.6981
18181TIP3    H175958   1.369   6.096  11.124 -0.6972  0.7284 -0.7923
18181TIP3    H275959   1.241   6.047  11.060 -0.5399 -0.4177 -0.2582
18182TIP3   OH275960   1.026   3.650  15.706 -0.0939  0.4276  0.0522
18182TIP3    H175961   0.961   3.706  15.663  0.6523  0.2465 -1.3666
18182TIP3    H275962   1.021   3.567  15.660 -0.2824 -0.2756  1.2996
18183TIP3   OH275963   6.103   0.356  11.656 -0.1277  0.1059 -0.1041
18183TIP3    H175964   6.049   0.343  11.578  0.6504 -0.7070 -0.5265
18183TIP3    H275965   6.134   0.269  11.678 -3.3479 -0.3631  3.3907
18184TIP3   OH275966   1.819   1.626  15.661  0.0419 -0.6082 -0.4456
18184TIP3    H175967   1.815   1.571  15.740  1.0956 -2.1843 -1.4484
18184TIP3    H275968   1.728   1.627  15.629 -0.0052 -1.7760 -0.3977
18185TIP3   OH275969   2.390   4.418   1.270  0.4249 -0.2591  0.2917
18185TIP3    H175970   2.431   4.336   1.244 -0.5843  0.0563 -2.6841
18185TIP3    H275971   2.313   4.391   1.321  0.0432 -1.2069 -0.7402
18186TIP3   OH275972   5.053   3.935   6.122 -0.2599  0.2884  0.2492
18186TIP3    H175973   5.135   3.944   6.073 -0.6633  0.9466 -0.3358
18186TIP3    H275974   4.988   3.980   6.068 -1.4296 -1.8643 -0.2829
18187TIP3   OH275975   4.774   2.201  16.205  0.9067  0.4604 -0.1695
18187TIP3    H175976   4.780   2.290  16.240  1.1298  0.1457  0.6081
18187TIP3    H275977   4.786   2.212  16.111  1.7423  1.1703  0.0041
18188TIP3   OH275978   4.896   0.583   6.531  0.1141 -0.2487  0.2210
18188TIP3    H175979   4.806   0.579   6.496 -1.3816  1.7667  3.3937
18188TIP3    H275980   4.915   0.493   6.557 -0.8634 -0.7638 -0.7358
18189TIP3   OH275981   1.040   3.377  14.670  0.1347  0.6977  0.2340
18189TIP3    H175982   1.018   3.317  14.599  1.3213 -0.4882  0.8335
18189TIP3    H275983   1.058   3.321  14.745 -0.9493  1.9144  1.4697
18190TIP3   OH275984   2.268   3.286   4.555  0.4732  0.2550  0.1933
18190TIP3    H175985   2.348   3.315   4.512  0.4632 -0.8300 -0.5917
18190TIP3    H275986   2.197   3.325   4.504  0.4707 -0.5619 -0.4334
18191TIP3   OH275987   2.125   5.884  16.832 -0.2063  0.2413 -0.0565
18191TIP3    H175988   2.050   5.879  16.891  0.7219 -0.0760  1.1218
18191TIP3    H275989   2.178   5.807  16.854  0.7875  0.8094 -0.4202
18192TIP3   OH275990   6.507   0.125   0.506  0.1777 -0.3872  0.2179
18192TIP3    H175991   6.449   0.098   0.576 -0.5768 -1.1972 -0.7018
18192TIP3    H275992   6.480   0.215   0.486 -0.3904 -0.5623  0.1797
18193TIP3   OH275993   5.798   5.223  11.268 -0.4776  0.8042  0.5591
18193TIP3    H175994   5.777   5.295  11.209  0.7682  0.0051 -0.9428
18193TIP3    H275995   5.713   5.190  11.298 -1.5593 -1.3129 -3.9698
18194TIP3   OH275996   6.732   3.385   1.923 -0.1050 -0.4583 -0.5951
18194TIP3    H175997   6.788   3.438   1.979 -1.9812 -1.2275  2.2437
18194TIP3    H275998   6.645   3.423   1.933 -0.6951 -1.3280 -2.1357
18195TIP3   OH275999   4.689   2.230  17.106 -0.5298 -0.1430 -0.1400
18195TIP3    H176000   4.764   2.252  17.051 -0.2509  0.4665  0.4809
18195TIP3    H276001   4.615   2.274  17.064 -0.4127 -0.1255 -0.3307
18196TIP3   OH276002   4.030   0.390   6.435  0.3055  0.1212 -0.0246
18196TIP3    H176003   4.043   0.458   6.501 -0.0779 -1.6602  1.9784
18196TIP3    H276004   3.944   0.353   6.453 -0.0135 -0.1504 -1.8316
18197TIP3   OH276005   0.892   3.694   3.319 -0.0303  0.2794  0.2900
18197TIP3    H176006   0.804   3.666   3.343 -0.1378  1.0447  0.7860
18197TIP3    H276007   0.884   3.787   3.298  0.6301  0.3211  0.1954
18198TIP3   OH276008   2.649   2.232  13.987  0.3432 -0.2588  0.3123
18198TIP3    H176009   2.571   2.185  13.957  1.0870 -0.8619 -0.7229
18198TIP3    H276010   2.615   2.313  14.026 -0.7749 -0.3182 -0.5005
18199TIP3   OH276011   4.096   2.375  12.655 -0.2039  0.1364 -0.1933
18199TIP3    H176012   4.100   2.470  12.641 -0.5073 -0.0115 -1.4083
18199TIP3    H276013   4.144   2.361  12.736 -0.0146  1.3158 -0.0777
18200TIP3   OH276014   3.558   5.343  11.838 -0.2425  0.7618 -0.2738
18200TIP3    H176015   3.542   5.435  11.856  2.9180  1.6643 -1.4187
18200TIP3    H276016   3.557   5.301  11.925  0.4095  2.3011  0.5214
18201TIP3   OH276017   6.285   0.713  15.960  0.1817 -0.2505 -0.3389
18201TIP3    H176018   6.207   0.661  15.978  0.0211  0.5022  1.3446
18201TIP3    H276019   6.254   0.804  15.964  0.6606  0.0336 -2.1889
18202TIP3   OH276020   4.048   1.600  10.646 -0.0495 -0.3574 -0.5472
18202TIP3    H176021   3.978   1.665  10.652  0.4506  0.2309 -0.9983
18202TIP3    H276022   4.012   1.533  10.587  0.4669  0.8880 -2.3550
18203TIP3   OH276023   5.787   5.423  16.969 -0.3528  0.2337 -0.1633
18203TIP3    H176024   5.731   5.349  16.944 -1.0255  0.1712  1.4440
18203TIP3    H276025   5.824   5.397  17.053 -0.0043  1.4308  0.0638
18204TIP3   OH276026   0.980   2.120  16.415 -0.8062  0.0395  0.0779
18204TIP3    H176027   1.025   2.198  16.445  2.1612 -1.2825 -0.5802
18204TIP3    H276028   1.004   2.111  16.323 -1.3134 -1.4868  0.0457
18205TIP3   OH276029   0.531   5.935   1.395  0.0835 -0.1542  0.0672
18205TIP3    H176030   0.591   5.934   1.470 -2.2542 -1.7674  2.0583
18205TIP3    H276031   0.557   5.859   1.343  1.9071  1.1401 -1.0302
18206TIP3   OH276032   4.163   2.620   5.522 -0.1483 -0.0817  0.0988
18206TIP3    H176033   4.106   2.561   5.570 -0.1492  0.9428  1.3976
18206TIP3    H276034   4.137   2.610   5.430 -0.2073 -1.9922  0.2982
18207TIP3   OH276035   2.934   1.793   4.929 -0.5558 -0.4942 -0.2403
18207TIP3    H176036   2.985   1.865   4.893 -1.8698  0.9499  0.6827
18207TIP3    H276037   2.927   1.813   5.023  0.7099 -2.8749  0.4497
18208TIP3   OH276038   1.943   4.664  15.054 -0.3288 -0.0342  0.9581
18208TIP3    H176039   1.939   4.717  14.974  0.3370 -2.0704 -0.5299
18208TIP3    H276040   1.857   4.623  15.060  0.3017 -1.5837 -0.0211
18209TIP3   OH276041   5.630   4.502  15.232 -0.3172  0.0884 -0.6281
18209TIP3    H176042   5.672   4.426  15.274 -0.3329  1.6100  2.3633
18209TIP3    H276043   5.690   4.525  15.161  0.1394 -2.1660 -1.0466
18210TIP3   OH276044   2.737   1.487  17.215  0.1816 -0.2911  0.4822
18210TIP3    H176045   2.775   1.422  17.274  1.6691  0.9854  0.9912
18210TIP3    H276046   2.680   1.540  17.270  1.0834  0.5078  0.6712
18211TIP3   OH276047   2.756   6.335  12.623 -0.2807 -0.3651  0.2264
18211TIP3    H176048   2.665   6.311  12.610 -0.5452  1.5559 -2.2641
18211TIP3    H276049   2.805   6.275  12.566 -0.2536  0.2203 -0.3784
18212TIP3   OH276050   3.427   5.707  13.498 -0.6986  0.0729  0.1355
18212TIP3    H176051   3.510   5.659  13.504  0.0197  1.2650 -0.0358
18212TIP3    H276052   3.421   5.732  13.405  0.2481  2.5214  0.6598
18213TIP3   OH276053   1.385   6.032  12.668  0.0896  0.3168 -0.6465
18213TIP3    H176054   1.337   5.987  12.598 -2.1090  0.3642  0.7467
18213TIP3    H276055   1.457   5.973  12.689  0.0607 -0.2849 -2.0810
18214TIP3   OH276056   0.205   4.308   3.816  0.3078  0.1099 -0.2677
18214TIP3    H176057   0.281   4.365   3.804 -1.3932  2.4100 -0.8830
18214TIP3    H276058   0.183   4.317   3.908  0.2815  0.1388 -0.2766
18215TIP3   OH276059   4.702   5.233  15.318 -0.1756  0.3798 -0.0397
18215TIP3    H176060   4.702   5.165  15.251 -0.7190  0.7094 -0.3813
18215TIP3    H276061   4.638   5.203  15.383  1.4090 -0.6803  1.1300
18216TIP3   OH276062   0.166   4.077   2.066 -0.1284 -0.4632  0.2585
18216TIP3    H176063   0.078   4.073   2.102  0.3754  0.9432  1.7941
18216TIP3    H276064   0.192   4.169   2.077  1.0145 -0.5334 -1.4551
18217TIP3   OH276065   2.749   6.742   6.579  0.2424 -0.4032  0.4417
18217TIP3    H176066   2.742   6.786   6.664  2.1100 -0.5995  0.7531
18217TIP3    H276067   2.747   6.812   6.515 -1.5435 -0.2767  0.5765
18218TIP3   OH276068   0.015   4.243   4.781 -0.2824  0.1287 -0.0171
18218TIP3    H176069  -0.061   4.269   4.833  0.6946  1.2086  0.9458
18218TIP3    H276070   0.021   4.309   4.712 -1.0449 -0.7934 -1.0136
18219TIP3   OH276071   5.371   0.286   1.388  0.3067  0.0672  0.4544
18219TIP3    H176072   5.312   0.213   1.370  0.2641  0.4253 -1.0327
18219TIP3    H276073   5.429   0.253   1.456 -0.6523 -0.8205  0.8736
18220TIP3   OH276074   5.549   1.772  11.725 -0.1355 -0.4649 -0.1103
18220TIP3    H176075   5.575   1.858  11.758 -0.3483 -0.6094  0.4423
18220TIP3    H276076   5.566   1.712  11.797 -1.2162 -0.6832 -0.0109
18221TIP3   OH276077   1.284   0.238  13.077  0.3051  0.3067 -0.2114
18221TIP3    H176078   1.274   0.287  12.995 -0.9588  1.2876  0.4887
18221TIP3    H276079   1.323   0.300  13.138 -0.8321  0.3201  0.5381
18222TIP3   OH276080   6.218   3.934  17.066 -0.3175  0.3843  0.2603
18222TIP3    H176081   6.302   3.897  17.094 -1.5209 -2.0864  0.9036
18222TIP3    H276082   6.241   3.992  16.994  1.8533 -1.0548 -0.3266
18223TIP3   OH276083   5.053   1.752  12.029 -0.7612 -0.7097 -0.1154
18223TIP3    H176084   5.145   1.770  12.010 -0.2019  0.6054  3.1399
18223TIP3    H276085   5.006   1.828  11.995 -0.4985 -0.7543 -0.5941
18224TIP3   OH276086   5.534   2.695   5.340 -0.1593  0.5495  0.0710
18224TIP3    H176087   5.577   2.763   5.392  0.5453 -0.3116  0.6557
18224TIP3    H276088   5.465   2.661   5.397  2.6448 -2.6636  1.9625
18225TIP3   OH276089   0.056   0.939  11.891 -0.0561 -0.6035 -0.5208
18225TIP3    H176090   0.049   0.897  11.805 -1.5760 -0.4153 -0.5135
18225TIP3    H276091  -0.013   1.005  11.891  0.4828 -0.0204  0.5351
18226TIP3   OH276092   4.392   6.161   0.123 -0.4234 -0.0024 -0.2303
18226TIP3    H176093   4.486   6.182   0.125 -0.5577  0.6234 -0.0948
18226TIP3    H276094   4.357   6.201   0.202 -1.1001  1.2818 -1.1351
18227TIP3   OH276095   5.350   0.961  15.575 -0.5473 -0.1076 -0.1888
18227TIP3    H176096   5.352   0.881  15.628 -0.4518  0.7047  1.0571
18227TIP3    H276097   5.433   0.960  15.528  1.8329  1.6495  3.5252
18228TIP3   OH276098   1.430   0.391  12.613 -0.3729 -0.0833  0.2543
18228TIP3    H176099   1.397   0.440  12.538 -0.3841 -0.0864  0.2572
18228TIP3    H276100   1.421   0.299  12.588  0.0650 -0.0812  0.0689
18229TIP3   OH276101   5.385   4.658   1.281  0.2451  0.5280  0.3673
18229TIP3    H176102   5.408   4.721   1.212 -1.9081  0.0001 -0.9245
18229TIP3    H276103   5.468   4.614   1.301  0.6999 -0.7114 -3.3997
18230TIP3   OH276104   1.502   6.013  17.325 -0.6683 -0.0124  0.3576
18230TIP3    H176105   1.410   6.000  17.304 -0.2345 -0.8423 -1.2480
18230TIP3    H276106   1.523   6.099  17.287 -0.5389 -0.3170 -0.2874
18231TIP3   OH276107   4.825   6.068   0.854  0.0007 -0.4539 -0.9505
18231TIP3    H176108   4.834   6.085   0.948  0.6882 -1.1955 -0.8697
18231TIP3    H276109   4.876   5.989   0.839  0.6039  0.1326 -2.1148
18232TIP3   OH276110   2.905   1.265   0.392 -0.2399  0.1776 -0.1353
18232TIP3    H176111   2.856   1.226   0.464 -0.7399  2.3062  0.7504
18232TIP3    H276112   2.861   1.348   0.375  0.3854  0.1200 -2.3600
18233TIP3   OH276113   5.601   0.095  14.101  0.3752 -0.5041  0.5872
18233TIP3    H176114   5.529   0.062  14.154 -1.5924 -0.0084 -1.6408
18233TIP3    H276115   5.628   0.021  14.046 -0.1708 -0.0117 -0.3644
18234TIP3   OH276116   2.875   6.711  12.035 -0.2508  0.6727 -0.0331
18234TIP3    H176117   2.928   6.787  12.013  1.8357 -0.2474  1.4920
18234TIP3    H276118   2.918   6.638  11.990  0.1194 -0.1783  1.6146
18235TIP3   OH276119   1.022   0.976   0.324 -0.4390 -0.7257  0.3507
18235TIP3    H176120   1.047   0.944   0.411 -0.2423  0.4716  0.7534
18235TIP3    H276121   1.092   1.037   0.300 -0.0908 -1.6198 -1.0027
18236TIP3   OH276122   3.536   4.294   0.473  0.2346 -0.1097  0.6193
18236TIP3    H176123   3.560   4.266   0.561 -0.8904 -0.4373  0.8469
18236TIP3    H276124   3.471   4.363   0.488 -0.7056 -0.8555  0.0565
18237TIP3   OH276125   0.459   0.693   5.670 -0.1612  0.3818 -0.1413
18237TIP3    H176126   0.386   0.660   5.722 -0.8127  0.1986 -1.1335
18237TIP3    H276127   0.458   0.788   5.683 -1.1222  0.4751 -0.8053
18238TIP3   OH276128   0.569   2.342   0.095  0.3475  0.1236 -0.0150
18238TIP3    H176129   0.597   2.431   0.074  0.4110  0.7865  2.5906
18238TIP3    H276130   0.578   2.335   0.190 -0.8253 -2.2727  0.0053
18239TIP3   OH276131   1.368   1.758  15.645  0.7129  0.5914 -0.1471
18239TIP3    H176132   1.319   1.769  15.727  1.2254 -1.3671  0.4879
18239TIP3    H276133   1.304   1.722  15.584  0.5998  1.0349 -0.2959
18240TIP3   OH276134   0.866   6.583  12.910 -0.4400 -0.0661 -0.1642
18240TIP3    H176135   0.841   6.615  12.823 -0.7542  0.3328  0.0680
18240TIP3    H276136   0.822   6.499  12.918  0.1382 -0.4302 -0.6564
18241TIP3   OH276137   3.468   3.059   6.359 -0.2059 -0.4231 -0.0677
18241TIP3    H176138   3.410   2.992   6.397 -0.4470 -0.4794 -0.5269
18241TIP3    H276139   3.410   3.111   6.303  0.1779 -0.4453 -0.4867
18242TIP3   OH276140   4.146   1.124   0.833  0.2354 -0.5792 -0.2044
18242TIP3    H176141   4.121   1.034   0.811 -0.5113 -0.9805  2.0188
18242TIP3    H276142   4.077   1.178   0.795 -0.3093 -1.1205 -0.0080
18243TIP3   OH276143   5.025   1.400  10.825  0.7607 -0.2337  0.2399
18243TIP3    H176144   4.987   1.475  10.871  1.7705  0.7932 -0.5429
18243TIP3    H276145   5.101   1.376  10.877  0.3575 -0.8356  0.5687
18244TIP3   OH276146   1.669   6.227  16.455  0.1310  0.0528  0.0997
18244TIP3    H176147   1.618   6.291  16.406 -3.6451 -2.1724  0.7427
18244TIP3    H276148   1.649   6.245  16.547 -1.3492 -2.1543  0.2859
18245TIP3   OH276149   5.187   0.450   5.225  0.0526  0.1872  0.0546
18245TIP3    H176150   5.229   0.393   5.289  0.2844  0.5860  0.2595
18245TIP3    H276151   5.134   0.391   5.172  0.9147 -0.3279 -0.2532
18246TIP3   OH276152   0.786   1.202   5.186  0.4674  0.0623 -0.1450
18246TIP3    H176153   0.787   1.243   5.272 -0.4282  0.7793 -0.4560
18246TIP3    H276154   0.732   1.124   5.196 -0.5708  0.7414 -0.2958
18247TIP3   OH276155   5.278   1.062   2.246 -0.4437  0.5887 -0.4351
18247TIP3    H176156   5.304   1.155   2.250  0.5789  0.3441 -0.9260
18247TIP3    H276157   5.259   1.039   2.336 -0.9173  1.3340 -0.3354
18248TIP3   OH276158   5.163   2.677  12.022 -0.7243 -0.4638 -0.0729
18248TIP3    H176159   5.079   2.692  11.978 -1.6572 -1.8884  1.1231
18248TIP3    H276160   5.214   2.755  12.002 -3.0424  1.4201  0.7775
18249TIP3   OH276161   5.709   2.274   2.134  0.2034 -0.0698  0.2661
18249TIP3    H176162   5.635   2.286   2.194 -1.0338 -0.0619 -1.1913
18249TIP3    H276163   5.692   2.190   2.091  1.2869 -0.2737  0.2234
18250TIP3   OH276164   2.051   6.066  13.936 -0.0311  0.4627 -0.2969
18250TIP3    H176165   2.048   6.080  13.842 -1.6847  1.3397 -0.1510
18250TIP3    H276166   2.117   6.127  13.968  0.2150  0.4815 -0.8344
18251TIP3   OH276167   6.061   0.124   1.582 -0.5053  0.5051 -0.3278
18251TIP3    H176168   6.007   0.197   1.550 -1.5688  0.2249  0.7570
18251TIP3    H276169   6.002   0.073   1.638  0.7812 -0.0651  0.5573
18252TIP3   OH276170   1.187   4.402   0.351  0.1582  0.1542  0.8634
18252TIP3    H176171   1.141   4.429   0.430  0.2501  1.4937  0.4787
18252TIP3    H276172   1.144   4.321   0.324 -1.0872  0.6691  1.2665
18253TIP3   OH276173   3.139   3.232  12.983 -0.4261  0.6060  0.0401
18253TIP3    H176174   3.096   3.236  13.068 -0.5240  1.9766 -0.0491
18253TIP3    H276175   3.143   3.139  12.962 -1.1497  0.3086  1.1569
18254TIP3   OH276176   4.112   5.419  13.986 -0.5094 -0.4012 -0.1186
18254TIP3    H176177   4.109   5.438  14.079  0.3527  0.2705 -0.2161
18254TIP3    H276178   4.097   5.325  13.979 -1.4339 -0.3249  0.6264
18255TIP3   OH276179   2.462   6.511  16.728 -0.0434  0.1611  0.3942
18255TIP3    H176180   2.397   6.447  16.700  0.2120  0.3887 -0.7801
18255TIP3    H276181   2.467   6.501  16.823 -0.2573 -1.3154  0.2660
18256TIP3   OH276182   0.073   1.647   3.025  0.1376  0.8309  0.4236
18256TIP3    H176183   0.007   1.652   3.094  0.7789 -0.2263  1.1405
18256TIP3    H276184   0.049   1.569   2.974  1.0487  0.1842  0.9469
18257TIP3   OH276185   1.261   5.706  15.211 -0.2008  0.2778  0.0593
18257TIP3    H176186   1.353   5.681  15.197 -0.4528 -0.6361 -0.0212
18257TIP3    H276187   1.266   5.794  15.247  0.6953  0.4163 -0.3666
18258TIP3   OH276188   5.310   2.029   4.474  0.2722 -0.1778 -0.8767
18258TIP3    H176189   5.391   1.990   4.506 -0.0378 -0.7450 -0.7573
18258TIP3    H276190   5.285   2.092   4.541  0.5080 -0.1554 -0.8125
18259TIP3   OH276191   3.468   4.611  15.052 -0.1154 -0.5774 -0.5200
18259TIP3    H176192   3.434   4.537  15.102 -0.1700 -0.1511  0.0815
18259TIP3    H276193   3.486   4.678  15.118 -0.5674  0.1321 -1.1144
18260TIP3   OH276194   5.238   6.607  14.402 -0.3640  0.0115 -0.6580
18260TIP3    H176195   5.146   6.593  14.380 -0.2232  0.5945 -1.6974
18260TIP3    H276196   5.237   6.642  14.491 -1.1460  0.0288 -0.6675
18261TIP3   OH276197   2.800   2.492   4.470  0.0492  0.1146  0.5633
18261TIP3    H176198   2.742   2.439   4.416 -0.0588  1.2091 -0.4191
18261TIP3    H276199   2.884   2.447   4.467 -0.4164 -0.8364  1.0365
18262TIP3   OH276200   0.447   1.618  12.605 -0.6226 -0.4337  0.8899
18262TIP3    H176201   0.370   1.651  12.559  0.4935  1.0203 -0.0068
18262TIP3    H276202   0.490   1.561  12.541 -0.1723 -0.0778  0.8772
18263TIP3   OH276203   6.357   0.793  14.659  0.2255 -0.0858  0.2197
18263TIP3    H176204   6.402   0.824  14.738  0.8674 -1.5794  0.4753
18263TIP3    H276205   6.408   0.828  14.587  0.8368 -0.3868  0.4990
18264TIP3   OH276206   0.891   2.059  12.284  0.0747 -0.0560  0.6344
18264TIP3    H176207   0.911   2.152  12.288  0.3233 -0.1523  2.9184
18264TIP3    H276208   0.825   2.046  12.353 -2.7074 -0.9960 -1.9629
18265TIP3   OH276209   2.118   2.254   5.850 -0.2176 -0.5199  0.7456
18265TIP3    H176210   2.109   2.162   5.878  1.0656 -0.3284  1.8578
18265TIP3    H276211   2.189   2.253   5.786 -0.6164 -0.3709  0.2883
18266TIP3   OH276212   3.814   2.133  15.267 -0.4598  0.1211 -0.2367
18266TIP3    H176213   3.898   2.112  15.225  0.1239 -0.1235  1.0170
18266TIP3    H276214   3.771   2.049  15.277 -0.8362  0.2380 -0.7992
18267TIP3   OH276215   6.595   6.114   3.155  0.0863 -0.3336  0.4371
18267TIP3    H176216   6.503   6.119   3.133 -0.1746  1.3127  1.6807
18267TIP3    H276217   6.598   6.126   3.250  1.4677 -2.2176  0.6919
18268TIP3   OH276218   4.563   0.978  17.360  0.4754 -0.1687 -0.1763
18268TIP3    H176219   4.645   1.022  17.379  0.3515  0.6076 -1.3568
18268TIP3    H276220   4.498   1.048  17.356  0.2065 -0.4664 -1.7121
18269TIP3   OH276221   6.106   4.745   1.951 -0.5428  0.1028 -0.2228
18269TIP3    H176222   6.064   4.662   1.970  0.3112 -0.5318 -1.0620
18269TIP3    H276223   6.170   4.756   2.022  0.2533 -0.6009 -0.8198
18270TIP3   OH276224   1.399   4.402   1.014 -0.2390  0.7113 -0.4338
18270TIP3    H176225   1.380   4.435   1.101 -1.6031 -0.8717 -0.0723
18270TIP3    H276226   1.374   4.473   0.955 -3.0382  0.4587  0.3112
18271TIP3   OH276227   0.914   2.003  12.636  0.2238  0.0007 -0.0313
18271TIP3    H176228   0.998   2.048  12.638  1.9664 -2.9044 -0.8353
18271TIP3    H276229   0.902   1.970  12.725 -0.1006  0.4769  0.1012
18272TIP3   OH276230   0.913   4.718  16.552 -0.3049 -0.2929 -0.3238
18272TIP3    H176231   0.974   4.670  16.609 -1.0137 -0.8257  0.0009
18272TIP3    H276232   0.904   4.804  16.595  0.4133 -0.1166 -0.5163
18273TIP3   OH276233   0.882   6.059  16.136  0.2773  0.4447 -0.1261
18273TIP3    H176234   0.964   6.100  16.165  0.5326  0.3631 -0.7284
18273TIP3    H276235   0.909   5.986  16.081 -0.2082  0.5847 -0.5584
18274TIP3   OH276236   4.148   2.689  15.218  0.2682 -0.0790 -0.5608
18274TIP3    H176237   4.196   2.734  15.149  0.7385  0.9280  0.3941
18274TIP3    H276238   4.199   2.706  15.297 -1.1621  0.2158  0.3245
18275TIP3   OH276239   3.277   2.406   2.888 -0.0127  0.3183 -0.3131
18275TIP3    H176240   3.264   2.491   2.931  0.1960  1.4726 -2.3936
18275TIP3    H276241   3.189   2.373   2.872 -0.1088 -0.7082  1.9475
18276TIP3   OH276242   5.576   2.022   3.833 -0.6883  0.6942 -0.4119
18276TIP3    H176243   5.574   1.969   3.754  0.9018 -0.0808  0.0294
18276TIP3    H276244   5.669   2.039   3.849 -1.0534  2.0137  0.5238
18277TIP3   OH276245   3.508   0.507   4.257  0.4075 -0.4086 -0.1966
18277TIP3    H176246   3.426   0.553   4.237  0.2583 -1.0079 -1.0182
18277TIP3    H276247   3.492   0.465   4.341 -0.0180 -0.2560 -0.1956
18278TIP3   OH276248   0.517   4.341  12.335  0.2412 -0.1652 -0.2015
18278TIP3    H176249   0.487   4.286  12.263 -1.6884  0.8413 -0.2463
18278TIP3    H276250   0.442   4.344  12.395  1.6751 -0.7262  1.7275
18279TIP3   OH276251   4.275   6.748  11.294 -0.1857 -0.0041  0.0970
18279TIP3    H176252   4.190   6.771  11.257 -0.4627  0.9606  1.2497
18279TIP3    H276253   4.312   6.831  11.322  0.8420 -0.4942  0.2346
18280TIP3   OH276254   2.048   0.712   0.992 -0.0530  0.4451  0.2334
18280TIP3    H176255   2.044   0.665   0.909 -0.2262  1.7286 -0.5088
18280TIP3    H276256   2.142   0.720   1.010 -0.0207 -0.4018  0.5172
18281TIP3   OH276257   4.963   1.452  11.128 -0.0927 -0.4220 -0.3153
18281TIP3    H176258   4.993   1.529  11.175  1.5162 -0.6056 -0.9885
18281TIP3    H276259   4.912   1.487  11.055 -1.2904 -0.0939  0.6480
18282TIP3   OH276260   4.456   3.925  12.595  0.1081 -0.3458  0.2567
18282TIP3    H176261   4.511   3.851  12.568 -1.1795 -0.5175 -2.1902
18282TIP3    H276262   4.485   3.997  12.539  0.3857  0.6532  1.6327
18283TIP3   OH276263   1.754   3.816   1.251  0.6025  0.2104 -0.2053
18283TIP3    H176264   1.694   3.889   1.236  0.2835  0.2593  1.2084
18283TIP3    H276265   1.698   3.747   1.286  1.2164 -0.0740  0.2212
18284TIP3   OH276266   6.077   5.471  11.964 -0.2905  0.0879  0.7377
18284TIP3    H176267   6.160   5.426  11.983 -0.7415 -0.7050  0.9052
18284TIP3    H276268   6.010   5.412  11.999 -1.1169 -0.8734 -2.1484
18285TIP3   OH276269   4.687   6.594  16.113  0.3029 -0.3622 -0.3454
18285TIP3    H176270   4.722   6.505  16.122  1.1259 -0.0888 -0.8476
18285TIP3    H276271   4.663   6.619  16.203  0.8355 -0.7710 -0.0876
18286TIP3   OH276272   2.600   5.163   3.434 -0.0970 -0.1711  0.4042
18286TIP3    H176273   2.660   5.192   3.365  0.6904 -2.6819 -0.0746
18286TIP3    H276274   2.633   5.077   3.460 -1.6074 -0.2072  2.4809
18287TIP3   OH276275   3.366   1.623   1.044 -0.2231 -0.5808 -0.2723
18287TIP3    H176276   3.397   1.593   0.959  0.6527  0.7102 -0.4273
18287TIP3    H276277   3.328   1.709   1.027 -0.3468 -0.4541  0.5873
18288TIP3   OH276278   2.398   2.311  13.857  0.9767 -0.4905  0.7179
18288TIP3    H176279   2.374   2.403  13.869 -2.8085 -1.2175 -0.0238
18288TIP3    H276280   2.403   2.300  13.762 -0.2035 -1.3258  0.7300
18289TIP3   OH276281   4.190   0.236  11.605  0.0141  0.2477  0.1232
18289TIP3    H176282   4.172   0.243  11.512 -1.0091  0.3717  0.3252
18289TIP3    H276283   4.285   0.224  11.610 -0.2588 -3.7971 -1.1608
18290TIP3   OH276284   4.329   0.440  16.145 -0.0534  0.0659 -0.0759
18290TIP3    H176285   4.382   0.511  16.108  0.4480 -0.7167 -0.9047
18290TIP3    H276286   4.284   0.402  16.070  0.6004 -1.2436  0.1644
18291TIP3   OH276287   4.949   6.459  11.814  0.3093 -0.0274  0.5465
18291TIP3    H176288   4.923   6.424  11.899 -0.4307  0.2517  0.4382
18291TIP3    H276289   5.041   6.482  11.825 -0.2147  1.6206  1.8013
18292TIP3   OH276290   5.467   1.332  12.466 -0.4099  0.4392 -0.0777
18292TIP3    H176291   5.558   1.318  12.441 -0.7637  1.0489 -1.8556
18292TIP3    H276292   5.466   1.322  12.561  1.0749 -1.8675 -0.2414
18293TIP3   OH276293   5.207   3.461  13.728  0.1183 -0.2002 -0.1006
18293TIP3    H176294   5.228   3.440  13.637  0.4675  0.0637 -0.0835
18293TIP3    H276295   5.261   3.401  13.779  1.2913  0.8477 -0.0483
18294TIP3   OH276296   1.919   5.647  13.708 -0.0298  0.4055 -0.1533
18294TIP3    H176297   1.944   5.652  13.800 -0.4258 -1.7389  0.1260
18294TIP3    H276298   1.920   5.553  13.688  0.2798  0.8264 -2.4049
18295TIP3   OH276299   4.372   3.485  13.108 -0.2140  1.0914  0.1637
18295TIP3    H176300   4.290   3.528  13.130 -0.9640  0.8905 -1.9742
18295TIP3    H276301   4.346   3.400  13.072  1.0738  0.0897  1.4544
18296TIP3   OH276302   5.906   1.773  16.364  0.4157 -0.5761  0.6380
18296TIP3    H176303   5.889   1.858  16.404  0.1615  0.8305 -2.2156
18296TIP3    H276304   5.995   1.750  16.392  0.5346  0.6942  1.3675
18297TIP3   OH276305   4.582   0.035  16.906 -0.3301 -0.0520 -0.4547
18297TIP3    H176306   4.607  -0.058  16.906 -1.3839 -0.3850  1.1637
18297TIP3    H276307   4.502   0.038  16.855 -0.0178  0.0568 -0.9375
18298TIP3   OH276308   4.842   4.874  17.001  0.4520  0.5706  0.0375
18298TIP3    H176309   4.791   4.871  16.920 -0.4680 -3.1484  0.5769
18298TIP3    H276310   4.790   4.927  17.061 -1.0111 -0.1679 -0.5387
18299TIP3   OH276311   6.711   0.482   1.587 -0.9365  0.1866  0.2891
18299TIP3    H176312   6.750   0.398   1.564 -0.4359  0.9576 -1.9339
18299TIP3    H276313   6.748   0.503   1.672  0.9030 -0.6982 -0.2407
18300TIP3   OH276314   6.467   0.608  16.135  0.2146  0.2051 -0.3494
18300TIP3    H176315   6.411   0.644  16.066  0.3281  0.7979 -0.1384
18300TIP3    H276316   6.469   0.676  16.202 -0.5956 -0.7022  0.6460
18301TIP3   OH276317   3.433   5.968  12.535  0.2154  0.1840 -0.3478
18301TIP3    H176318   3.400   5.882  12.510 -0.9259  0.3202  0.5876
18301TIP3    H276319   3.466   5.957  12.624 -1.7126  1.0906  0.5385
18302TIP3   OH276320   4.642   3.674   0.102  0.3140  0.2154  0.1631
18302TIP3    H176321   4.644   3.689   0.008 -1.1400  0.5162  0.1524
18302TIP3    H276322   4.550   3.684   0.126  0.9297  2.3315  1.9556
18303TIP3   OH276323   1.359   0.351   4.691 -0.0324 -0.1068 -0.2498
18303TIP3    H176324   1.365   0.435   4.646 -0.8159 -0.0038 -0.1736
18303TIP3    H276325   1.397   0.288   4.630 -0.6063  0.1134 -0.8515
18304TIP3   OH276326   2.180   0.222  16.281 -0.7942  0.1147  0.1213
18304TIP3    H176327   2.259   0.277  16.291  0.7691 -1.7378 -1.2911
18304TIP3    H276328   2.206   0.137  16.317 -1.9455 -0.7081 -0.9330
18305TIP3   OH276329   4.093   2.522   1.253 -0.3918 -0.0765  0.4818
18305TIP3    H176330   4.150   2.599   1.257  1.2583 -1.0465 -1.7638
18305TIP3    H276331   4.087   2.492   1.344  0.5096  1.6013  1.1391
18306TIP3   OH276332   4.250   6.644  17.003  0.1398  0.5579 -0.4194
18306TIP3    H176333   4.215   6.723  16.962  0.4300  0.8657 -0.0905
18306TIP3    H276334   4.325   6.619  16.949  0.5807  1.0180 -0.0313
18307TIP3   OH276335   6.286   1.371   0.291 -0.5522 -0.6220  0.3363
18307TIP3    H176336   6.319   1.426   0.362 -0.9947 -0.2252  0.2374
18307TIP3    H276337   6.338   1.291   0.296  1.4109  0.5074 -0.6597
18308TIP3   OH276338   0.409   3.884  16.250 -0.3259  0.1673 -0.3679
18308TIP3    H176339   0.436   3.819  16.315 -1.5346 -1.5633 -1.4984
18308TIP3    H276340   0.390   3.963  16.300  2.8323  0.2837  0.8945
18309TIP3   OH276341   5.490   0.260  16.028 -0.1483 -0.4679  0.5743
18309TIP3    H176342   5.473   0.293  16.116 -0.7478 -0.3100  0.4016
18309TIP3    H276343   5.420   0.198  16.011 -0.3285 -0.1207  0.0161
18310TIP3   OH276344   5.596   0.227  13.362  0.1369 -0.5256 -0.3787
18310TIP3    H176345   5.580   0.308  13.411  1.4447 -0.8705  0.7007
18310TIP3    H276346   5.647   0.255  13.286  1.3975 -0.4228  0.4798
18311TIP3   OH276347   3.506   0.867   6.028 -0.2817  0.1275 -0.1376
18311TIP3    H176348   3.465   0.836   6.109  0.4818  0.1109  0.2516
18311TIP3    H276349   3.581   0.918   6.058 -0.2159  0.4455 -0.8320
18312TIP3   OH276350   2.403   0.852  12.560  0.1656 -0.2249 -0.2889
18312TIP3    H176351   2.458   0.821  12.488  2.2169  2.1588  0.0964
18312TIP3    H276352   2.340   0.911  12.520 -0.5069 -1.0104 -0.4177
18313TIP3   OH276353   5.230   4.977   2.117  0.2439  0.2197  0.7120
18313TIP3    H176354   5.228   4.894   2.070 -1.2943  0.4931  0.2389
18313TIP3    H276355   5.317   4.980   2.157  1.9206  0.2934 -2.6336
18314TIP3   OH276356   6.200   6.272   0.985 -0.5285 -0.2604  0.5287
18314TIP3    H176357   6.208   6.244   1.076 -0.3298  0.0535  0.6069
18314TIP3    H276358   6.231   6.362   0.984 -0.6067 -0.2353  0.1643
18315TIP3   OH276359   2.293   6.041  16.014  0.0614 -0.5192 -0.2949
18315TIP3    H176360   2.327   5.976  15.953  2.2696  1.6773 -1.6004
18315TIP3    H276361   2.364   6.105  16.023 -1.2262  0.6629  2.4969
18316TIP3   OH276362   0.900   2.548  11.886 -0.0999  0.2208 -0.7109
18316TIP3    H176363   0.890   2.584  11.798  2.4646  0.2145 -1.0821
18316TIP3    H276364   0.982   2.499  11.882 -0.5141 -0.7278  1.3933
18317TIP3   OH276365   4.763   0.646   2.976 -0.0745 -0.3116  0.5958
18317TIP3    H176366   4.778   0.728   2.929 -2.8281  0.8169  1.4323
18317TIP3    H276367   4.746   0.673   3.067  0.4717 -1.9793  1.2459
18318TIP3   OH276368   5.130   4.860  16.900 -0.2897  0.3944 -0.2219
18318TIP3    H176369   5.038   4.865  16.927  0.6319  1.1441  3.4009
18318TIP3    H276370   5.153   4.768  16.911 -0.4835  0.2781 -0.7520
18319TIP3   OH276371   5.210   4.251  17.340  0.1998  0.1813 -0.4653
18319TIP3    H176372   5.292   4.213  17.309  0.0952  0.9462 -1.7381
18319TIP3    H276373   5.145   4.182  17.327  0.6237 -0.4339  0.5659
18320TIP3   OH276374   4.998   0.189   4.142 -0.3609 -0.2721  0.2989
18320TIP3    H176375   5.088   0.161   4.159 -0.1263  0.5754  0.5329
18320TIP3    H276376   4.990   0.185   4.047 -0.2449 -0.8513  0.3113
18321TIP3   OH276377   2.632   6.588  15.189 -0.4866  0.0860  0.4581
18321TIP3    H176378   2.705   6.550  15.139 -2.1598 -0.1336 -1.9982
18321TIP3    H276379   2.567   6.518  15.193 -1.5454  1.0389  0.4113
18322TIP3   OH276380   0.526   5.056  14.295  0.2484 -0.1965 -0.5221
18322TIP3    H176381   0.565   5.020  14.374  0.3422  0.6481 -0.1687
18322TIP3    H276382   0.490   5.140  14.323  0.8173  0.3894 -1.5148
18323TIP3   OH276383   1.500   4.372   0.074 -0.1920 -0.5445 -0.0738
18323TIP3    H176384   1.448   4.307   0.028 -1.4365  0.6905 -0.4738
18323TIP3    H276385   1.441   4.407   0.141 -0.0815  1.2216 -0.8447
18324TIP3   OH276386   4.069   3.069  13.048  0.3996 -0.5374  0.1790
18324TIP3    H176387   4.104   3.016  13.121  0.0364  0.0897  0.8192
18324TIP3    H276388   4.070   3.009  12.973  1.2656 -1.0415  0.5750
18325TIP3   OH276389   2.128   6.307   2.937  0.4195  0.1465  0.1628
18325TIP3    H176390   2.150   6.391   2.977  0.3535 -0.6495  1.9396
18325TIP3    H276391   2.044   6.283   2.977  0.6839 -1.0072  0.0491
18326TIP3   OH276392   4.380   3.836  17.016 -0.0670  0.3761  0.1550
18326TIP3    H176393   4.357   3.803  17.104  0.1251  1.4227  0.6129
18326TIP3    H276394   4.452   3.896  17.031  0.6251 -0.1664 -0.8634
18327TIP3   OH276395   2.357   0.825   3.952  0.7533  0.2454  0.1545
18327TIP3    H176396   2.408   0.798   3.876  3.4465  0.9435  1.5805
18327TIP3    H276397   2.373   0.757   4.018 -0.6097  0.2228  0.4902
18328TIP3   OH276398   2.956   0.828  11.820  0.3650 -0.1957 -0.0020
18328TIP3    H176399   2.997   0.892  11.879 -0.5581 -0.6249  1.1489
18328TIP3    H276400   2.880   0.796  11.869 -1.9216  1.2146 -2.3408
18329TIP3   OH276401   0.653   1.670  14.936 -0.3339  0.3821 -0.4206
18329TIP3    H176402   0.743   1.658  14.908 -0.8764  0.7441 -2.4486
18329TIP3    H276403   0.655   1.657  15.031  1.6535 -0.6205 -0.5648
18330TIP3   OH276404   2.496   6.172  14.636  0.4327 -0.6280 -0.1230
18330TIP3    H176405   2.507   6.250  14.690  1.2575  0.6200 -2.0139
18330TIP3    H276406   2.584   6.152  14.605  0.0392 -1.5959 -0.6473
18331TIP3   OH276407   3.545   0.478  14.726 -0.3431 -0.0279 -0.4029
18331TIP3    H176408   3.584   0.450  14.643  1.0792 -3.5032  1.2408
18331TIP3    H276409   3.516   0.397  14.768  1.2197  1.1782  3.5155
18332TIP3   OH276410   1.732   3.873   4.207  0.3726  0.1182  0.3589
18332TIP3    H176411   1.764   3.826   4.130  0.2130 -0.4254  0.6167
18332TIP3    H276412   1.637   3.859   4.206  0.3696  0.1075  0.6525
18333TIP3   OH276413   6.144   5.625  13.319 -0.3894 -0.8387  0.1372
18333TIP3    H176414   6.103   5.622  13.233 -2.8571 -3.1508  1.2500
18333TIP3    H276415   6.189   5.541  13.327  0.6685 -0.2418  0.7648
18334TIP3   OH276416   0.778   0.873   5.091 -0.5242 -0.2869  0.0751
18334TIP3    H176417   0.699   0.912   5.054  0.2573  0.7011 -0.6294
18334TIP3    H276418   0.759   0.779   5.097 -1.6065 -0.1100 -0.4245
18335TIP3   OH276419   0.831   2.458   5.086  0.9066  0.3793 -0.0842
18335TIP3    H176420   0.817   2.490   4.997 -0.3651  0.8663  0.2695
18335TIP3    H276421   0.777   2.379   5.092 -2.0980  2.3588  1.3459
18336TIP3   OH276422   4.347   1.327  11.318 -0.1553  0.6703  0.1131
18336TIP3    H176423   4.283   1.382  11.271 -0.0263 -0.2216 -1.1586
18336TIP3    H276424   4.430   1.346  11.276  0.2404  0.9714  1.0088
18337TIP3   OH276425   3.879   2.644  11.817  0.2805  0.6255  0.1329
18337TIP3    H176426   3.862   2.592  11.739 -1.1904  1.6809 -0.2904
18337TIP3    H276427   3.934   2.716  11.786  0.3814  0.5951  0.2397
18338TIP3   OH276428   1.913   5.252  14.107 -0.3563 -0.1694  0.1250
18338TIP3    H176429   1.955   5.188  14.050  0.1459  1.3971 -1.3513
18338TIP3    H276430   1.964   5.250  14.188  0.6344 -0.5084 -0.4933
18339TIP3   OH276431   2.002   2.713   2.595  0.2520 -0.6349 -0.5668
18339TIP3    H176432   1.932   2.682   2.537  0.7902 -0.4531 -1.3288
18339TIP3    H276433   2.047   2.633   2.622 -1.2720 -0.9411  1.3375
18340TIP3   OH276434   3.559   0.702  13.948  0.3133  0.2784 -0.7396
18340TIP3    H176435   3.537   0.714  14.041  2.0886 -1.0303 -0.0900
18340TIP3    H276436   3.638   0.755  13.936 -0.7218  1.6210 -1.9304
18341TIP3   OH276437   5.431   6.558  15.225 -0.0462  0.1857  0.5619
18341TIP3    H176438   5.374   6.531  15.153  1.5788  1.5120 -1.3191
18341TIP3    H276439   5.418   6.490  15.292 -0.6671 -1.8485 -1.4854
18342TIP3   OH276440   5.580   0.972  16.984 -0.1516 -0.0063  0.1233
18342TIP3    H176441   5.629   0.909  16.930 -0.2935  1.5513 -1.9546
18342TIP3    H276442   5.573   1.050  16.929 -3.5782  0.4204  0.9071
18343TIP3   OH276443   1.933   3.218   4.583 -0.0850 -0.9759 -0.2150
18343TIP3    H176444   1.970   3.252   4.502 -0.6390 -1.2532 -0.5905
18343TIP3    H276445   1.968   3.275   4.652 -1.2174  0.5320 -0.8518
18344TIP3   OH276446   4.114   4.860   5.902  0.0288 -0.7331  0.0160
18344TIP3    H176447   4.122   4.915   5.980  0.0769 -0.6139 -0.0725
18344TIP3    H276448   4.115   4.770   5.936  1.2030 -0.7214  0.0657
18345TIP3   OH276449   1.985   3.313  14.147  0.7383 -0.3257  0.0397
18345TIP3    H176450   2.032   3.252  14.203  0.4047 -1.7649 -1.1671
18345TIP3    H276451   1.895   3.312  14.179  0.6972 -0.6061 -0.0837
18346TIP3   OH276452   2.804   5.931   2.171  0.3077  0.2018  0.2428
18346TIP3    H176453   2.737   5.909   2.106 -2.1802 -0.6189  2.9126
18346TIP3    H276454   2.803   6.026   2.175  0.7792  0.2963 -1.1099
18347TIP3   OH276455   4.853   4.905   1.990 -0.0999 -0.1337  0.3962
18347TIP3    H176456   4.886   4.828   1.945  0.4842  0.0755  0.4575
18347TIP3    H276457   4.768   4.922   1.949  0.0237 -0.4715 -0.0073
18348TIP3   OH276458   3.202   2.864   4.990 -0.4187 -0.1907 -0.3653
18348TIP3    H176459   3.123   2.918   4.991 -1.5879 -1.6614  2.6793
18348TIP3    H276460   3.231   2.863   5.082  1.8411 -1.5152 -1.0218
18349TIP3   OH276461   6.244   5.740   2.657 -0.4646  0.6877  0.5155
18349TIP3    H176462   6.168   5.788   2.689 -1.4356 -1.0221  0.9516
18349TIP3    H276463   6.254   5.768   2.566 -0.9230  1.7588  0.7810
18350TIP3   OH276464   0.802   5.588  10.943  0.4202  0.2654 -0.0694
18350TIP3    H176465   0.777   5.588  10.851 -1.7520  1.4910  0.4514
18350TIP3    H276466   0.822   5.497  10.963 -0.6109 -0.2717 -1.3676
18351TIP3   OH276467   3.997   6.092   5.494  0.1307  0.3612 -0.1023
18351TIP3    H176468   4.034   6.101   5.406 -0.6485  0.2607 -0.4422
18351TIP3    H276469   4.050   6.023   5.535  0.5215  0.4343 -0.4735
18352TIP3   OH276470   3.561   5.539   1.779 -0.0996  0.1529  0.1785
18352TIP3    H176471   3.574   5.605   1.711  0.2120  2.4938  2.3503
18352TIP3    H276472   3.634   5.551   1.839 -0.4593 -1.6791  1.0633
18353TIP3   OH276473   1.550   3.083   2.547 -0.5440 -0.1303  0.1306
18353TIP3    H176474   1.614   3.014   2.531  0.5237  0.5380  1.3885
18353TIP3    H276475   1.574   3.154   2.486 -2.2242 -1.1382 -1.8693
18354TIP3   OH276476   1.645   1.011   3.505 -0.1134 -0.8588  0.4281
18354TIP3    H176477   1.721   1.063   3.478 -0.6412 -0.6129 -0.6444
18354TIP3    H276478   1.575   1.075   3.514 -0.0878 -1.0159  1.9263
18355TIP3   OH276479   0.614   2.176  15.302 -0.6501 -0.5898 -0.3075
18355TIP3    H176480   0.616   2.080  15.310 -0.9774 -0.5649  0.1709
18355TIP3    H276481   0.613   2.207  15.393  0.5116 -0.0954 -0.4477
18356TIP3   OH276482   1.236   5.816   0.608 -0.5943  0.0804 -0.1178
18356TIP3    H176483   1.266   5.854   0.691 -0.2828 -0.5588  0.0639
18356TIP3    H276484   1.240   5.721   0.622 -0.1255 -0.0358 -1.0127
18357TIP3   OH276485   1.426   5.671   1.830 -0.2918 -0.0363  0.3950
18357TIP3    H176486   1.495   5.705   1.888  0.7191 -0.1002 -0.7222
18357TIP3    H276487   1.456   5.583   1.806 -1.7311 -0.8304  1.3920
18358TIP3   OH276488   2.755   2.213  11.221  0.0361 -0.4319  0.1394
18358TIP3    H176489   2.776   2.202  11.314  0.0841  0.8108  0.2904
18358TIP3    H276490   2.825   2.268  11.187 -1.0848  0.8733 -0.1373
18359TIP3   OH276491   6.055   3.586  15.505 -0.0007 -0.4158  0.0276
18359TIP3    H176492   5.971   3.542  15.512 -1.2431  1.7997 -0.2261
18359TIP3    H276493   6.042   3.670  15.550  1.9269  0.1807 -0.4408
18360TIP3   OH276494   3.051   6.122  12.958  0.1091  0.0756  0.1828
18360TIP3    H176495   3.013   6.179  13.025  1.8381  0.8834  0.5337
18360TIP3    H276496   3.137   6.159  12.941  0.5064 -1.3078 -1.0316
18361TIP3   OH276497   0.566   2.826   1.992  0.0037  0.0012 -0.1045
18361TIP3    H176498   0.578   2.811   1.898  2.6846 -1.5991  0.4013
18361TIP3    H276499   0.529   2.745   2.025  1.1510 -0.2792  0.5309
18362TIP3   OH276500   2.446   2.457  15.166  0.5701 -0.2110  0.6841
18362TIP3    H176501   2.478   2.435  15.079  0.9517 -1.8050  1.1917
18362TIP3    H276502   2.485   2.543  15.185  2.2728 -0.8178  0.1389
18363TIP3   OH276503   4.402   4.716   0.658 -0.4006  0.1728  0.3643
18363TIP3    H176504   4.483   4.717   0.606 -1.6096 -2.2214 -1.8126
18363TIP3    H276505   4.430   4.690   0.746  1.3375  0.8469  0.0598
18364TIP3   OH276506   0.315   4.281  16.105 -0.5009  0.0101  0.0373
18364TIP3    H176507   0.355   4.197  16.083  2.1906  0.3294  2.8679
18364TIP3    H276508   0.252   4.260  16.173 -1.9407  0.0269 -1.2536
18365TIP3   OH276509   4.650   3.010   6.138 -0.8484  0.6559 -0.5357
18365TIP3    H176510   4.559   2.994   6.162 -0.3235 -0.6460  0.7492
18365TIP3    H276511   4.693   3.031   6.221  0.1281  0.7311 -1.0485
18366TIP3   OH276512   0.246   3.415  17.343  0.2671 -0.2035 -0.3367
18366TIP3    H176513   0.209   3.349  17.401  1.3405  1.1311  2.0033
18366TIP3    H276514   0.322   3.372  17.303  0.2382 -0.7695  0.2053
18367TIP3   OH276515   6.011   3.801   3.298 -0.0744 -0.1404 -0.7335
18367TIP3    H176516   5.969   3.837   3.377  2.1265  0.7581  0.1154
18367TIP3    H276517   5.952   3.825   3.227 -1.0776  0.9358  0.3998
18368TIP3   OH276518   4.421   5.605   6.943  0.2643  0.1831 -0.1856
18368TIP3    H176519   4.493   5.543   6.946 -1.5577 -2.0479  0.2019
18368TIP3    H276520   4.381   5.592   6.857 -1.4953 -0.8730  0.7504
18369TIP3   OH276521   3.683   5.028   6.473 -0.3117 -0.0954 -0.6302
18369TIP3    H176522   3.697   5.123   6.479 -0.6057 -0.1199  0.9851
18369TIP3    H276523   3.750   4.990   6.531  0.9523 -1.0243 -2.5973
18370TIP3   OH276524   2.138   5.941   6.331  0.3907 -0.5845 -0.2052
18370TIP3    H176525   2.230   5.916   6.344  0.8207  0.4347 -1.1813
18370TIP3    H276526   2.117   5.994   6.408  0.6580 -0.7049 -0.0462
18371TIP3   OH276527   3.263   6.736   3.262  0.1816  0.6849 -0.5699
18371TIP3    H176528   3.293   6.715   3.174 -1.9592  1.2711 -1.5181
18371TIP3    H276529   3.313   6.814   3.287 -1.4959  2.6219 -2.7510
18372TIP3   OH276530   1.485   5.605   5.069  0.1396 -0.3128  0.6694
18372TIP3    H176531   1.513   5.523   5.111 -1.2352 -1.3153 -0.2924
18372TIP3    H276532   1.566   5.653   5.055  0.9531 -1.3801  1.5244
18373TIP3   OH276533   3.388   1.512   6.287 -0.0569  0.1474 -0.8037
18373TIP3    H176534   3.369   1.553   6.203  1.1755 -0.1212 -1.2345
18373TIP3    H276535   3.347   1.425   6.281 -1.5310  0.7794 -0.3971
18374TIP3   OH276536   2.257   1.822  14.036  0.4228  0.4020  0.2295
18374TIP3    H176537   2.187   1.883  14.059  0.4503  1.1535 -1.5224
18374TIP3    H276538   2.311   1.870  13.974 -1.0725 -2.1950 -3.4277
18375TIP3   OH276539   4.592   3.424  11.320  0.0278  0.3704 -0.1271
18375TIP3    H176540   4.643   3.431  11.401 -0.7992 -0.8906  0.5253
18375TIP3    H276541   4.573   3.515  11.297  1.0896  0.7888  0.5546
18376TIP3   OH276542   2.271   5.753  12.206 -0.5190 -0.3237  0.3655
18376TIP3    H176543   2.195   5.703  12.176 -0.3876 -0.3244  0.0310
18376TIP3    H276544   2.234   5.821  12.262 -0.8334  0.0559 -0.2836
18377TIP3   OH276545   5.971   4.495   4.328 -0.1312  0.1727  0.6826
18377TIP3    H176546   5.906   4.563   4.343  0.1545  0.5320  0.3129
18377TIP3    H276547   6.018   4.488   4.411 -1.2518 -0.7557  1.2547
18378TIP3   OH276548   0.406   5.188  15.984  0.1969  0.4077  0.4881
18378TIP3    H176549   0.389   5.119  16.048  0.6005 -1.8217 -1.6510
18378TIP3    H276550   0.501   5.198  15.985  0.2939 -0.3226 -0.3875
18379TIP3   OH276551   3.451   4.115   3.218  0.6189  0.0129  0.3114
18379TIP3    H176552   3.467   4.029   3.257  0.1735 -0.5553 -0.7120
18379TIP3    H276553   3.374   4.102   3.163 -0.5962  1.5415  1.5626
18380TIP3   OH276554   3.059   5.098   5.849  0.2817 -0.0154  0.8138
18380TIP3    H176555   3.031   5.149   5.925  0.6526  0.3070  0.7393
18380TIP3    H276556   3.119   5.156   5.802  0.6642 -0.4966  0.6951
18381TIP3   OH276557   1.912   5.321   1.634  0.1358  0.2116  0.3364
18381TIP3    H176558   1.946   5.390   1.690 -2.0221  1.9142 -0.3107
18381TIP3    H276559   1.817   5.320   1.652 -0.1013 -1.6357 -0.7029
18382TIP3   OH276560   2.273   4.029   5.531 -0.1431 -0.3544 -0.0405
18382TIP3    H176561   2.251   3.973   5.606  0.4457  1.0191  1.2172
18382TIP3    H276562   2.367   4.014   5.519 -0.1060 -0.0804 -0.0812
18383TIP3   OH276563   1.948   1.376   4.631  0.0945 -0.0161 -0.0882
18383TIP3    H176564   1.903   1.392   4.713  0.6911 -2.7407  0.9018
18383TIP3    H276565   2.004   1.300   4.649  0.1577 -0.8046 -3.0272
18384TIP3   OH276566   0.587   4.785  15.366 -0.8560  0.0756  0.2546
18384TIP3    H176567   0.675   4.805  15.335 -0.3609 -0.7900  1.0730
18384TIP3    H276568   0.566   4.857  15.425  0.3324 -0.9557  2.0263
18385TIP3   OH276569   2.350   0.322   6.006  0.0624 -0.5887  0.2476
18385TIP3    H176570   2.304   0.260   5.949 -1.1860  0.3454  0.1953
18385TIP3    H276571   2.422   0.272   6.043 -1.6599 -2.4681  1.2357
18386TIP3   OH276572   2.545   0.901  15.782  0.0642 -0.3810 -0.2049
18386TIP3    H176573   2.488   0.858  15.718 -0.7282 -0.7827  0.7457
18386TIP3    H276574   2.606   0.833  15.808  1.1300  0.0906 -1.3371
18387TIP3   OH276575   6.184   1.725  14.118 -0.4475 -0.3672  0.0631
18387TIP3    H176576   6.241   1.801  14.126 -0.2199 -0.5797  0.5083
18387TIP3    H276577   6.170   1.695  14.208  0.2723 -1.4341 -0.1586
18388TIP3   OH276578   2.590   1.654  15.902 -0.1964  0.1742 -0.3682
18388TIP3    H176579   2.639   1.578  15.870  0.1692 -1.0855  2.8249
18388TIP3    H276580   2.520   1.667  15.838  3.5933  1.6292 -4.8643
18389TIP3   OH276581   6.666   5.416  15.422  0.0534  0.4852 -0.6716
18389TIP3    H176582   6.717   5.496  15.433  0.1853  0.2766  0.3092
18389TIP3    H276583   6.731   5.346  15.419 -0.1458  0.2329  0.4296
18390TIP3   OH276584   4.108   5.036   6.430  0.3139 -0.6201 -0.4645
18390TIP3    H176585   4.177   4.970   6.427  0.3016 -0.6405 -0.2912
18390TIP3    H276586   4.152   5.117   6.404  0.5712 -0.4936  0.3309
18391TIP3   OH276587   5.709   2.597   4.753 -0.3034  0.0054  0.1939
18391TIP3    H176588   5.797   2.563   4.766  0.3313  1.4529 -0.1514
18391TIP3    H276589   5.701   2.669   4.816 -0.1211  1.8042 -1.7313
18392TIP3   OH276590   6.536   0.062   4.756  0.6160  0.3306 -0.4530
18392TIP3    H176591   6.582   0.043   4.838  4.1840 -0.1885 -2.4122
18392TIP3    H276592   6.515  -0.024   4.720 -0.1065  0.5535 -0.5959
18393TIP3   OH276593   4.394   1.421  17.019 -0.5954 -0.4962  1.0314
18393TIP3    H176594   4.353   1.337  17.043 -0.2102 -1.2628 -0.7751
18393TIP3    H276595   4.335   1.458  16.954  0.7615 -0.9116 -0.5173
18394TIP3   OH276596   3.373   4.586  17.060 -0.3092  0.3980 -0.3943
18394TIP3    H176597   3.297   4.593  17.003 -1.0674  0.2457  0.5838
18394TIP3    H276598   3.441   4.548  17.004 -1.0242  0.2879 -1.2046
18395TIP3   OH276599   3.542   5.184   3.489 -0.3000  0.4947  0.0515
18395TIP3    H176600   3.542   5.088   3.494  1.3457  0.4585 -0.0744
18395TIP3    H276601   3.451   5.209   3.506 -0.8980 -1.1143 -0.5918
18396TIP3   OH276602   4.735   4.287  14.791 -0.5044  0.4458  0.0442
18396TIP3    H176603   4.677   4.228  14.743  0.5020  0.7554 -1.6007
18396TIP3    H276604   4.774   4.343  14.724  0.9957  0.8688  1.2208
18397TIP3   OH276605   5.895   5.045  17.109  0.6396  0.8608 -0.1910
18397TIP3    H176606   5.893   4.964  17.161 -0.2424  0.8336 -0.2441
18397TIP3    H276607   5.914   5.016  17.020  1.5001  0.8390 -0.0060
18398TIP3   OH276608   1.363   5.905  11.942 -0.1939  0.3307 -0.2165
18398TIP3    H176609   1.414   5.901  11.861 -0.5143 -1.0106 -0.3684
18398TIP3    H276610   1.322   5.819  11.949  0.3932  0.1594  1.7299
18399TIP3   OH276611   6.668   6.575   3.466 -0.2047  0.2421  0.0468
18399TIP3    H176612   6.751   6.529   3.483  0.0504  0.0135 -1.6071
18399TIP3    H276613   6.629   6.526   3.393  0.0277  2.5307 -1.7296
18400TIP3   OH276614   6.719   3.474  14.475 -0.2089  0.1356 -0.0479
18400TIP3    H176615   6.660   3.548  14.464  0.0459  0.2975 -0.3292
18400TIP3    H276616   6.665   3.397  14.456 -0.1164  0.3341 -1.1573
18401TIP3   OH276617   4.596   4.504   5.236 -0.2320 -0.5797  0.1686
18401TIP3    H176618   4.514   4.454   5.240 -1.1751  0.9747  1.2423
18401TIP3    H276619   4.600   4.535   5.146 -0.7468 -0.8000  0.0612
18402TIP3   OH276620   1.430   4.535   0.298 -0.5439 -0.1605 -0.5191
18402TIP3    H176621   1.501   4.484   0.337 -0.7776 -0.0578  0.0558
18402TIP3    H276622   1.353   4.479   0.309 -0.5567 -0.2797 -1.1551
18403TIP3   OH276623   5.606   5.143   0.917 -0.3169  0.4017  0.0690
18403TIP3    H176624   5.562   5.064   0.946  0.8023  0.0984  1.0367
18403TIP3    H276625   5.536   5.208   0.907 -1.0352 -0.2073  1.0194
18404TIP3   OH276626   0.207   3.639  16.614  0.5589  0.4092 -0.7283
18404TIP3    H176627   0.276   3.612  16.554  2.1429  1.0318  0.7569
18404TIP3    H276628   0.153   3.699  16.563  0.8398 -0.4016 -2.0309
18405TIP3   OH276629   2.419   3.703   5.546  0.5069 -0.5840  0.2039
18405TIP3    H176630   2.369   3.729   5.623  0.9374  2.8151 -0.4809
18405TIP3    H276631   2.362   3.725   5.472  1.0192 -1.5433 -0.4911
18406TIP3   OH276632   5.501   3.735  13.691  0.9190  0.6520 -0.0909
18406TIP3    H176633   5.411   3.728  13.724  0.0961  0.5866 -2.2209
18406TIP3    H276634   5.555   3.710  13.766 -0.8374  0.1366  1.0867
18407TIP3   OH276635   3.524   0.180  15.543  0.5471 -0.1006 -0.2539
18407TIP3    H176636   3.585   0.203  15.473  0.3118 -0.3802 -0.5546
18407TIP3    H276637   3.540   0.245  15.612  0.5868  0.3487 -0.6820
18408TIP3   OH276638   4.388   2.234   3.384 -0.6099 -0.3412  0.4116
18408TIP3    H176639   4.410   2.183   3.462  1.9089 -0.4122 -0.2337
18408TIP3    H276640   4.459   2.214   3.322 -2.1168  0.2773 -1.6448
18409TIP3   OH276641   2.939   6.241  12.076 -0.0175 -0.0087  0.2557
18409TIP3    H176642   2.922   6.147  12.088 -1.6775  0.1506 -0.5474
18409TIP3    H276643   2.902   6.282  12.154 -1.0720  0.1247 -0.3002
18410TIP3   OH276644   5.247   6.753   0.808  0.7971  0.0727 -0.5278
18410TIP3    H176645   5.267   6.803   0.887  2.3493  0.3568 -1.0573
18410TIP3    H276646   5.304   6.791   0.740 -0.8674  0.1731 -1.9242
18411TIP3   OH276647   5.939   0.931   2.064 -0.2288  0.1528 -0.5810
18411TIP3    H176648   5.915   0.970   2.148  0.4590  1.8659 -1.1399
18411TIP3    H276649   5.893   0.984   1.999 -1.0028 -1.3444 -1.3021
18412TIP3   OH276650   0.683   4.197   4.089 -0.0043 -0.6719 -0.6355
18412TIP3    H176651   0.696   4.135   4.160 -0.0311  0.1908  0.1447
18412TIP3    H276652   0.597   4.173   4.052 -1.6874  0.9815  1.8841
18413TIP3   OH276653   1.059   0.081  13.196 -0.5927 -0.4308  0.1648
18413TIP3    H176654   1.127   0.144  13.171 -0.9541 -0.4347 -0.8762
18413TIP3    H276655   1.107   0.004  13.226 -0.1377 -0.3983 -0.4707
18414TIP3   OH276656   6.031   1.562  14.954  0.1655  0.0857  0.0245
18414TIP3    H176657   5.985   1.522  14.880  0.4723 -1.0639  0.4328
18414TIP3    H276658   6.123   1.563  14.927  0.8735 -3.5961  1.6468
18415TIP3   OH276659   6.336   1.553  10.777 -0.3327 -0.2452 -0.6766
18415TIP3    H176660   6.333   1.648  10.762 -2.1098 -0.2959 -0.8559
18415TIP3    H276661   6.389   1.519  10.705 -0.2837  0.5413 -1.0305
18416TIP3   OH276662   0.380   4.853  13.924  0.6599  0.3933 -0.2950
18416TIP3    H176663   0.415   4.824  14.008  0.1299 -1.6771 -0.7379
18416TIP3    H276664   0.299   4.900  13.947 -0.2603 -1.4038  0.3105
18417TIP3   OH276665   3.273   6.328   5.979 -0.0671 -0.5794  0.1817
18417TIP3    H176666   3.233   6.390   6.040  1.0669  0.2551  0.1122
18417TIP3    H276667   3.269   6.373   5.894 -0.4110 -1.1587 -0.1131
18418TIP3   OH276668   1.741   0.808   2.271  0.1812 -0.0836 -0.2511
18418TIP3    H176669   1.774   0.896   2.251  1.1704 -0.2942  0.3754
18418TIP3    H276670   1.745   0.761   2.188  1.6451 -0.1493 -0.1704
18419TIP3   OH276671   4.124   1.673  11.373 -0.0362  0.0672  0.0003
18419TIP3    H176672   4.194   1.715  11.323  0.1276 -0.7528 -0.4707
18419TIP3    H276673   4.056   1.740  11.380  0.0082  0.2492 -1.1828
18420TIP3   OH276674   0.358   0.673   1.183 -0.1595  0.3095 -0.7808
18420TIP3    H176675   0.391   0.638   1.265 -0.5122 -0.6912 -1.0477
18420TIP3    H276676   0.328   0.762   1.204 -1.1030 -0.2568  0.3840
18421TIP3   OH276677   1.369   0.391   3.649 -0.2513 -0.8255 -0.0447
18421TIP3    H176678   1.389   0.396   3.555  0.2616 -1.9448 -0.0034
18421TIP3    H276679   1.421   0.461   3.688  0.9444 -1.5064 -0.3747
18422TIP3   OH276680   0.859   0.629   3.505 -0.1864  0.1018  0.1012
18422TIP3    H176681   0.833   0.549   3.550  1.3640 -0.4062  0.1499
18422TIP3    H276682   0.953   0.619   3.490 -0.2137  1.3295 -1.0935
18423TIP3   OH276683   5.087   5.393  16.618  0.3641  0.1682  0.0435
18423TIP3    H176684   5.078   5.364  16.709  0.0468 -0.2007 -0.1013
18423TIP3    H276685   5.024   5.339  16.569 -0.6259  1.4701 -0.1634
18424TIP3   OH276686   5.316   5.013   3.273 -0.3114  0.5467 -0.1244
18424TIP3    H176687   5.326   4.982   3.183  3.5535 -0.0450  0.3233
18424TIP3    H276688   5.316   4.933   3.326 -1.3913  0.9320  0.4699
18425TIP3   OH276689   6.451   4.912   2.782  0.0033  0.3941 -0.4958
18425TIP3    H176690   6.446   4.979   2.850  0.2620 -0.0191 -0.0601
18425TIP3    H276691   6.544   4.889   2.778 -0.1727 -0.4630 -0.1046
18426TIP3   OH276692   1.508   0.720   1.748  0.3009  0.0909 -0.3342
18426TIP3    H176693   1.584   0.662   1.757  0.3014  0.3742  3.0600
18426TIP3    H276694   1.538   0.805   1.780 -1.3719  0.2131  1.0769
18427TIP3   OH276695   1.895   4.102  13.371 -0.2807 -0.0241 -0.4698
18427TIP3    H176696   1.824   4.167  13.365 -0.7095 -0.2740  1.2071
18427TIP3    H276697   1.850   4.017  13.368 -0.1370 -0.1828  1.0285
18428TIP3   OH276698   3.776   0.529   4.294 -0.4510  0.4871 -0.0750
18428TIP3    H176699   3.799   0.506   4.384 -0.9111  1.9535  0.4534
18428TIP3    H276700   3.682   0.544   4.297 -0.4488  0.6635 -0.7855
18429TIP3   OH276701   2.003   0.852   2.450 -0.0956 -0.0622  0.1309
18429TIP3    H176702   1.968   0.941   2.454 -0.4054 -0.1416 -0.6463
18429TIP3    H276703   1.945   0.801   2.507 -0.8922 -0.0686 -0.6569
18430TIP3   OH276704   5.235   3.209  15.864  0.4922  0.5138  0.1210
18430TIP3    H176705   5.284   3.127  15.866  0.8374  0.7264  1.8611
18430TIP3    H276706   5.204   3.221  15.954  0.1113  2.0914 -0.1923
18431TIP3   OH276707   1.317   2.732  12.993 -0.3784 -0.1935  0.1791
18431TIP3    H176708   1.289   2.814  12.953  1.4291  0.6268  0.4802
18431TIP3    H276709   1.412   2.730  12.980 -0.2244 -1.6454  1.2438
18432TIP3   OH276710   4.114   2.945   4.840 -0.6898 -0.0056 -0.3948
18432TIP3    H176711   4.192   2.999   4.827 -0.5400  0.1620  1.0790
18432TIP3    H276712   4.058   2.967   4.765 -0.5074  1.9659 -0.0177
18433TIP3   OH276713   0.475   1.950  12.461 -0.1749 -0.1898 -0.2141
18433TIP3    H176714   0.563   1.919  12.439  0.9067 -0.6709  3.9444
18433TIP3    H276715   0.420   1.871  12.454  0.2669 -0.4936 -0.3067
18434TIP3   OH276716   0.597   0.986  11.173  0.1824 -0.1757  0.5793
18434TIP3    H176717   0.580   1.069  11.130 -0.8864 -0.6996 -0.0644
18434TIP3    H276718   0.584   0.920  11.105 -2.7932 -1.1282  1.8515
18435TIP3   OH276719   1.569   2.637   1.366  0.2755 -0.4604  0.6264
18435TIP3    H176720   1.494   2.578   1.359  1.2546 -1.6020 -0.8164
18435TIP3    H276721   1.531   2.724   1.368 -1.0645 -0.8380 -2.7380
18436TIP3   OH276722   2.914   5.520  13.934  0.4379 -0.4100 -0.1539
18436TIP3    H176723   2.990   5.548  13.985  0.9148 -0.3476 -0.8940
18436TIP3    H276724   2.851   5.591  13.944 -0.1605 -1.1155  1.7167
18437TIP3   OH276725   6.509   0.078  10.263 -0.2407  0.0394 -0.4154
18437TIP3    H176726   6.598   0.056  10.235  0.0952 -1.5705  1.6073
18437TIP3    H276727   6.484   0.004  10.319 -1.3704  2.2185  2.1471
18438TIP3   OH276728   1.873   4.101   5.966  0.0087  0.2332 -0.1818
18438TIP3    H176729   1.811   4.061   6.027  0.0672  0.4095 -0.0046
18438TIP3    H276730   1.923   4.162   6.020  0.6070 -0.1977 -0.2379
18439TIP3   OH276731   3.776   1.199  11.542 -0.5822 -0.2131 -0.4297
18439TIP3    H176732   3.779   1.187  11.447 -2.0070 -2.0563 -0.3014
18439TIP3    H276733   3.862   1.170  11.573  0.4259  1.7573 -1.2247
18440TIP3   OH276734   0.280   5.154  14.050 -0.2256 -0.5147 -0.0927
18440TIP3    H176735   0.363   5.130  14.010  0.4773  1.8858 -0.2376
18440TIP3    H276736   0.232   5.201  13.982 -1.5032 -1.3925  0.1537
18441TIP3   OH276737   5.510   0.388  10.488 -0.0294  0.7388 -0.0736
18441TIP3    H176738   5.581   0.340  10.531  1.9123  2.2582 -1.3811
18441TIP3    H276739   5.436   0.383  10.549  1.6663  0.3320  2.0568
18442TIP3   OH276740   6.308   1.084   1.424 -0.0977 -0.2806  0.3545
18442TIP3    H176741   6.297   1.079   1.519 -3.5051 -0.6156  0.0636
18442TIP3    H276742   6.346   1.170   1.409  1.8564 -0.7530  2.0126
18443TIP3   OH276743   2.551   4.400   5.118  0.5111 -0.6915  0.7411
18443TIP3    H176744   2.530   4.478   5.066  1.2718 -0.2112  1.1492
18443TIP3    H276745   2.641   4.378   5.093  0.1619 -1.6973  0.3179
18444TIP3   OH276746   1.641   5.247  13.927  0.1103  0.3058 -0.2866
18444TIP3    H176747   1.693   5.209  13.998  0.1238  1.3703  0.2873
18444TIP3    H276748   1.558   5.272  13.969  0.3976  1.6257 -0.4671
18445TIP3   OH276749   6.427   0.022  12.010  0.7756 -0.3781 -0.0402
18445TIP3    H176750   6.517   0.054  11.999  0.7867 -0.2272  0.5003
18445TIP3    H276751   6.416  -0.040  11.937  1.4272 -0.6395  0.0722
18446TIP3   OH276752   1.351   3.284   3.387  0.3135 -0.2521 -0.1370
18446TIP3    H176753   1.261   3.272   3.417  0.4608  0.6003  0.6896
18446TIP3    H276754   1.342   3.316   3.297 -0.1767 -0.9406 -0.3448
18447TIP3   OH276755   1.596   1.288   3.822 -0.3031 -0.0882 -0.0891
18447TIP3    H176756   1.616   1.381   3.816  1.0923 -0.4916 -3.0270
18447TIP3    H276757   1.676   1.248   3.857  0.0512 -0.4478 -1.2794
18448TIP3   OH276758   2.466   1.421   3.898 -0.2833  0.1651 -0.8681
18448TIP3    H176759   2.539   1.482   3.890  0.7773 -0.9189  0.0797
18448TIP3    H276760   2.456   1.407   3.992 -2.3114  0.9343 -0.9175
18449TIP3   OH276761   5.969   3.184   1.880 -0.1072 -0.2784 -0.1349
18449TIP3    H176762   5.945   3.250   1.944  0.3548  0.2226 -0.4648
18449TIP3    H276763   5.904   3.114   1.891 -0.1307 -0.1254  0.7523
18450TIP3   OH276764   4.274   0.970  11.336  0.1955  0.2338 -0.1705
18450TIP3    H176765   4.300   0.923  11.257 -1.7356 -2.0648  0.4283
18450TIP3    H276766   4.215   1.038  11.305 -0.0889 -0.2738 -0.7854
18451TIP3   OH276767   2.560   4.130   5.088  0.2631 -0.4511 -0.0011
18451TIP3    H176768   2.547   4.070   5.014  0.3456  0.7049 -1.0001
18451TIP3    H276769   2.514   4.210   5.061  0.9422  0.2473  0.8807
18452TIP3   OH276770   1.476   1.445  17.220 -0.1900  0.1452  0.3146
18452TIP3    H176771   1.457   1.509  17.289 -3.2304  0.2633 -0.5111
18452TIP3    H276772   1.443   1.362  17.255  1.4120 -0.5051  0.3504
18453TIP3   OH276773   3.255   0.889   4.120 -0.1066 -0.8160  0.5170
18453TIP3    H176774   3.174   0.935   4.143  0.9320  0.6570  1.4066
18453TIP3    H276775   3.240   0.799   4.148 -1.8536 -0.8661 -0.4036
18454TIP3   OH276776   0.058   4.573  17.163  0.3331  0.2578  0.0959
18454TIP3    H176777   0.090   4.651  17.209  0.8382  0.6401 -0.8757
18454TIP3    H276778  -0.013   4.606  17.107 -0.5127 -0.2631  0.8236
18455TIP3   OH276779   5.270   1.170   5.300 -0.2838 -0.1581 -0.3944
18455TIP3    H176780   5.243   1.078   5.291  0.6715 -0.7297  1.8321
18455TIP3    H276781   5.285   1.181   5.394 -0.2856  2.2765 -0.6252
18456TIP3   OH276782   3.617   1.674   6.681  0.0289  0.3331  0.1211
18456TIP3    H176783   3.591   1.732   6.752 -3.1510  0.5813 -1.0770
18456TIP3    H276784   3.624   1.730   6.604 -2.4953 -0.6551 -0.9313
18457TIP3   OH276785   1.976   0.319   0.496  0.1434 -0.2935  0.2448
18457TIP3    H176786   2.031   0.390   0.530  0.4830  0.6406 -2.0289
18457TIP3    H276787   2.020   0.292   0.415 -1.5185 -1.1364 -0.4189
18458TIP3   OH276788   5.721   5.270   3.952  0.3824 -0.2916  0.0906
18458TIP3    H176789   5.750   5.361   3.940  1.2796 -0.4062  1.2801
18458TIP3    H276790   5.628   5.277   3.973  0.2792  0.2936 -0.5038
18459TIP3   OH276791   1.809   0.735   5.446  0.2448  0.5072  0.8546
18459TIP3    H176792   1.806   0.730   5.350 -0.0334 -0.0551  0.8869
18459TIP3    H276793   1.766   0.818   5.467  0.0532  0.4990  0.5004
18460TIP3   OH276794   4.951   3.662   3.007 -0.4055 -0.1953  0.0712
18460TIP3    H176795   5.016   3.707   2.952  2.2085 -3.4698  0.1418
18460TIP3    H276796   4.956   3.707   3.091 -0.4579  1.4722 -0.7716
18461TIP3   OH276797   0.377   6.324  10.689  0.3022  0.0277  0.3863
18461TIP3    H176798   0.286   6.352  10.697  0.2498 -0.3070  1.0733
18461TIP3    H276799   0.373   6.228  10.688  0.6141  0.0174 -0.0659
18462TIP3   OH276800   4.147   4.441  13.538  0.0134  0.1247  0.2681
18462TIP3    H176801   4.178   4.489  13.462 -0.0392  0.4450  0.4473
18462TIP3    H276802   4.215   4.453  13.604 -0.1001  0.1359  0.3849
18463TIP3   OH276803   3.524   2.589   4.350  0.3175 -0.7275  0.0725
18463TIP3    H176804   3.597   2.552   4.301  0.5530 -1.5273  1.0003
18463TIP3    H276805   3.453   2.594   4.286  1.3227  0.5944 -0.9876
18464TIP3   OH276806   0.293   2.257  16.449  0.2404 -0.3531 -0.1117
18464TIP3    H176807   0.273   2.313  16.525  3.3627  0.1319  0.4781
18464TIP3    H276808   0.295   2.318  16.375  0.9450 -0.1456  0.0731
18465TIP3   OH276809   1.643   2.676   3.796 -0.3397 -0.2980  0.3189
18465TIP3    H176810   1.624   2.747   3.858 -1.7433  0.3413 -0.7707
18465TIP3    H276811   1.664   2.601   3.851 -0.1886  0.6023  1.5365
18466TIP3   OH276812   1.449   4.699   6.094 -0.0610  0.0806  0.1870
18466TIP3    H176813   1.500   4.734   6.167  0.3916 -2.9918  1.5266
18466TIP3    H276814   1.384   4.643   6.136  1.3338 -3.2359 -1.6566
18467TIP3   OH276815   1.617   3.899   0.727  0.3134  0.3037 -0.1662
18467TIP3    H176816   1.589   3.968   0.667 -0.7038 -0.4216 -0.5446
18467TIP3    H276817   1.708   3.883   0.703  0.2756  0.8537 -0.7122
18468TIP3   OH276818   3.162   1.415   5.136 -0.1997  0.1013  0.3396
18468TIP3    H176819   3.094   1.375   5.191 -1.3946  1.5547 -0.0062
18468TIP3    H276820   3.222   1.456   5.199 -0.6197  0.3043  0.6134
18469TIP3   OH276821   6.435   6.452  14.597 -0.1439 -0.0853  0.0251
18469TIP3    H176822   6.352   6.418  14.630  1.1209 -0.6288  2.8715
18469TIP3    H276823   6.493   6.376  14.593  1.1779  0.7961  1.3720
18470TIP3   OH276824   5.790   3.019   0.913 -0.2147 -0.1912 -0.0114
18470TIP3    H176825   5.881   3.001   0.890 -0.3512 -1.5074  0.3930
18470TIP3    H276826   5.796   3.072   0.992  0.2055  0.2159 -0.3125
18471TIP3   OH276827   3.729   3.294   1.320 -0.1545 -0.1007  0.3307
18471TIP3    H176828   3.734   3.377   1.368 -1.1435 -0.5914  1.3097
18471TIP3    H276829   3.740   3.320   1.228 -0.0498  1.0707  0.6510
18472TIP3   OH276830   6.485   6.425  12.023 -0.5979 -0.1750  0.2541
18472TIP3    H176831   6.504   6.443  11.931 -1.8014  2.1418  0.3905
18472TIP3    H276832   6.390   6.429  12.029 -0.5027  0.4231  1.6996
18473TIP3   OH276833   2.570   2.839   3.305 -0.1715  0.4297  0.0387
18473TIP3    H176834   2.633   2.831   3.233 -0.9245  0.9836 -0.6963
18473TIP3    H276835   2.555   2.749   3.334 -0.2002  0.1621 -0.7888
18474TIP3   OH276836   6.276   1.857  14.711 -0.4210  0.2377 -0.0377
18474TIP3    H176837   6.278   1.830  14.619 -1.3794  2.1173 -0.6674
18474TIP3    H276838   6.337   1.931  14.716 -1.5269  1.1571  0.4307
18475TIP3   OH276839   6.450   0.994  16.162 -0.4090  0.2125 -0.2919
18475TIP3    H176840   6.437   1.051  16.238 -1.2115 -0.4877  0.1192
18475TIP3    H276841   6.364   0.991  16.121  0.0088  0.5365 -1.2012
18476TIP3   OH276842   3.706   5.085   3.031  0.0973 -0.2015  0.3692
18476TIP3    H176843   3.652   5.163   3.019 -0.3063 -0.2391  1.8082
18476TIP3    H276844   3.789   5.107   2.989  0.0885  1.1233  0.9852
18477TIP3   OH276845   0.866   1.864  12.881 -0.4693 -0.1918  0.1176
18477TIP3    H176846   0.773   1.862  12.905 -0.4610 -0.2023  0.1493
18477TIP3    H276847   0.877   1.793  12.818 -1.3100  2.1917 -2.9719
18478TIP3   OH276848   5.735   0.882  14.205 -0.3409 -0.6811  0.5766
18478TIP3    H176849   5.715   0.947  14.138 -1.5516  1.3787  2.7970
18478TIP3    H276850   5.828   0.894  14.223  0.0762 -1.4699 -0.8666
18479TIP3   OH276851   5.220   0.909  12.833  0.0881 -0.0458 -0.0297
18479TIP3    H176852   5.131   0.944  12.841  0.2530 -0.0195  2.1638
18479TIP3    H276853   5.265   0.939  12.912  2.2858  0.5295 -1.3972
18480TIP3   OH276854   1.009   2.508   1.065  0.1152  0.0213  0.2684
18480TIP3    H176855   0.916   2.529   1.064 -0.2040 -1.2903  0.1555
18480TIP3    H276856   1.036   2.514   0.973 -0.1580 -0.7948  0.1286
18481TIP3   OH276857   4.880   4.659  14.228 -0.0429  0.0262  0.0808
18481TIP3    H176858   4.967   4.658  14.267 -0.2536 -0.1050  0.5539
18481TIP3    H276859   4.854   4.751  14.229 -0.2366 -0.0302  0.6858
18482TIP3   OH276860   1.450   1.884  14.957  0.1539 -0.2136  0.4767
18482TIP3    H176861   1.521   1.948  14.946  1.0414 -0.5432  3.3834
18482TIP3    H276862   1.491   1.809  14.999 -1.5447 -1.2515  0.3870
18483TIP3   OH276863   0.746   0.543  12.744 -0.1486  0.3784 -0.2020
18483TIP3    H176864   0.733   0.509  12.832  0.3610  0.8227  0.0575
18483TIP3    H276865   0.704   0.629  12.745 -1.3579 -0.1760 -0.8258
18484TIP3   OH276866   1.638   6.514   1.674 -0.4751 -0.6310 -0.3846
18484TIP3    H176867   1.557   6.476   1.641  0.1821 -1.4434 -1.1101
18484TIP3    H276868   1.697   6.515   1.598  0.2268 -0.1383  0.1505
18485TIP3   OH276869   5.374   2.819   6.689 -0.0851 -0.4199  0.8386
18485TIP3    H176870   5.301   2.881   6.684  0.0435 -0.1955  1.6044
18485TIP3    H276871   5.446   2.871   6.725 -0.1185 -1.1308  1.9948
18486TIP3   OH276872   0.325   0.589  13.736  0.0195  0.2967 -0.4239
18486TIP3    H176873   0.383   0.660  13.762 -0.0708 -0.2569  1.3934
18486TIP3    H276874   0.369   0.509  13.765 -1.2455 -0.1795  0.2899
18487TIP3   OH276875   2.662   5.725   0.552 -0.4282 -0.3043 -0.3516
18487TIP3    H176876   2.646   5.818   0.535 -0.7078 -0.5273 -1.3963
18487TIP3    H276877   2.581   5.693   0.590 -0.1294 -0.0001  0.5556
18488TIP3   OH276878   1.962   0.444  13.039  0.2109  0.4977  0.7526
18488TIP3    H176879   1.980   0.486  12.955 -1.1663 -1.4789 -0.6020
18488TIP3    H276880   1.867   0.445  13.047  0.3233  0.8427  2.4240
18489TIP3   OH276881   5.767   1.424   2.582 -0.4958  0.4943 -0.2026
18489TIP3    H176882   5.817   1.343   2.570  0.3783  0.7515  1.3919
18489TIP3    H276883   5.793   1.480   2.509 -0.7074 -0.4530 -1.0209
18490TIP3   OH276884   4.181   3.860  11.280  0.0149  0.0871 -0.4532
18490TIP3    H176885   4.173   3.825  11.191 -0.5183 -2.2651  0.4697
18490TIP3    H276886   4.090   3.869  11.310  0.0259  3.3468 -0.9458
18491TIP3   OH276887   5.399   4.604  11.866  0.5084  0.0876  0.4013
18491TIP3    H176888   5.372   4.687  11.827  1.5057  1.8680  3.1453
18491TIP3    H276889   5.331   4.587  11.932  2.6589  1.4154  3.1753
18492TIP3   OH276890   5.942   5.634  13.524  0.0470 -0.4411 -0.2248
18492TIP3    H176891   5.987   5.657  13.605  1.2485  1.3792 -1.3457
18492TIP3    H276892   6.011   5.633  13.458 -0.9354 -1.7252 -1.2923
18493TIP3   OH276893   4.060   2.047  16.068 -0.6062  0.5286 -0.0667
18493TIP3    H176894   3.996   1.976  16.077 -1.2752  0.9792 -1.0418
18493TIP3    H276895   4.095   2.037  15.980 -0.2434  1.0347  0.0147
18494TIP3   OH276896   3.170   3.280  11.004 -0.2101  0.6400  0.3573
18494TIP3    H176897   3.180   3.301  10.911 -1.2911  0.4151  0.1714
18494TIP3    H276898   3.260   3.272  11.037  0.2149 -0.7018 -0.9941
18495TIP3   OH276899   6.718   2.500  10.923  0.3090 -0.2091  0.0823
18495TIP3    H176900   6.804   2.472  10.891  0.7681 -0.0804  1.1470
18495TIP3    H276901   6.707   2.588  10.888  0.3118 -0.4686 -0.5924
18496TIP3   OH276902   3.375   1.629   2.619  1.0755  0.2900  0.3499
18496TIP3    H176903   3.469   1.629   2.640  1.1902  0.1687 -0.1590
18496TIP3    H276904   3.359   1.715   2.581  0.9078  0.4373  0.7533
18497TIP3   OH276905   4.527   5.743  13.727  0.1336 -0.2097  0.0334
18497TIP3    H176906   4.494   5.777  13.810  0.8427  2.1172 -0.5849
18497TIP3    H276907   4.449   5.711  13.682 -0.4095 -0.4295  1.0960
18498TIP3   OH276908   2.263   4.629   0.970  0.0398 -0.0920 -0.0003
18498TIP3    H176909   2.255   4.572   0.894 -1.0921  0.3294 -0.2017
18498TIP3    H276910   2.357   4.648   0.975  0.1459 -0.2284 -1.2017
18499TIP3   OH276911   5.787   3.992  15.818  0.6839  0.4381 -0.3158
18499TIP3    H176912   5.769   3.943  15.898  1.6101 -0.3087 -0.5363
18499TIP3    H276913   5.858   4.052  15.842 -0.3183  1.5857 -0.0975
18500TIP3   OH276914   6.201   0.977   3.509  0.7964 -0.0998  0.3549
18500TIP3    H176915   6.250   0.941   3.435 -0.9974 -2.3198  0.1253
18500TIP3    H276916   6.211   0.911   3.578 -1.5480 -0.4998  0.3829
18501TIP3   OH276917   4.947   2.379   3.602 -0.2009 -0.2282 -0.3032
18501TIP3    H176918   4.989   2.457   3.564  2.5350 -1.8659 -0.9438
18501TIP3    H276919   4.906   2.335   3.528  2.0346 -1.5541 -0.8565
18502TIP3   OH276920   6.098   0.027   2.024  0.7237 -0.0545  0.1688
18502TIP3    H176921   6.088  -0.048   1.966  1.1339  0.1370 -0.1541
18502TIP3    H276922   6.009   0.047   2.053  0.6839 -1.0829  0.8014
18503TIP3   OH276923   1.187   5.943  12.478 -0.1314 -0.4090 -0.2133
18503TIP3    H176924   1.172   5.948  12.384  0.0794 -1.4871 -0.3259
18503TIP3    H276925   1.140   5.864  12.506  1.6149 -1.3804  0.1811
18504TIP3   OH276926   6.143   0.780   0.135  0.2919  0.2154  0.0527
18504TIP3    H176927   6.106   0.794   0.223  0.2340 -0.2196  0.0964
18504TIP3    H276928   6.081   0.824   0.077  0.3990  0.6215  0.2363
18505TIP3   OH276929   1.880   1.431   2.052  0.5117 -0.5398 -0.1303
18505TIP3    H176930   1.905   1.501   1.992  2.3884  0.4976  1.7054
18505TIP3    H276931   1.964   1.392   2.079 -0.2640 -1.1906  1.5117
18506TIP3   OH276932   5.892   0.524  11.209 -0.4537  0.2404 -0.7612
18506TIP3    H176933   5.835   0.596  11.234  0.7616  0.8391  0.4374
18506TIP3    H276934   5.979   0.563  11.202  0.6379 -1.3803  2.0022
18507TIP3   OH276935   0.687   0.078   0.172  0.8824 -0.6906 -0.2371
18507TIP3    H176936   0.775   0.075   0.133  1.1094  0.0805  0.2091
18507TIP3    H276937   0.629   0.050   0.100  1.3094  0.5875 -1.1165
18508TIP3   OH276938   3.992   0.721   1.715  0.1750  0.2067 -0.2828
18508TIP3    H176939   3.994   0.709   1.810 -1.7248  0.0720 -0.2062
18508TIP3    H276940   3.899   0.735   1.695  0.4164 -0.5811 -2.2095
18509TIP3   OH276941   4.229   1.327   1.830  0.0791 -0.1376 -0.2216
18509TIP3    H176942   4.153   1.269   1.841  0.2265 -0.3885 -0.5022
18509TIP3    H276943   4.198   1.413   1.857 -0.1643 -0.3347  0.1381
18510TIP3   OH276944   5.845   2.273   5.836  0.0302 -0.0299  0.8161
18510TIP3    H176945   5.874   2.221   5.911 -0.3593 -1.0507  0.2800
18510TIP3    H276946   5.781   2.334   5.872  1.0080  0.5766  1.5813
18511TIP3   OH276947   6.233   2.779   4.591  0.1494  0.0731 -0.1216
18511TIP3    H176948   6.291   2.735   4.654  1.8126  0.6882 -1.1511
18511TIP3    H276949   6.227   2.717   4.517 -1.4336 -0.4584  0.4188
18512TIP3   OH276950   0.287   4.663  14.184 -0.4754  0.3374 -0.2813
18512TIP3    H176951   0.360   4.721  14.165  0.8468 -0.6007  1.6532
18512TIP3    H276952   0.294   4.645  14.277 -2.4764 -0.7607 -0.2825
18513TIP3   OH276953   5.398   0.928   5.559 -0.2003 -0.0471 -0.0081
18513TIP3    H176954   5.461   0.964   5.495 -1.9212  0.1685 -1.6672
18513TIP3    H276955   5.414   0.979   5.638  2.7570 -1.0576  0.1675
18514TIP3   OH276956   1.405   3.168   1.611 -0.2640 -0.1024 -0.3504
18514TIP3    H176957   1.333   3.195   1.669  2.5409  2.1851  2.4187
18514TIP3    H276958   1.374   3.189   1.523 -3.1794  0.1192  0.6119
18515TIP3   OH276959   0.494   4.872   2.081 -0.3478 -0.1840 -0.5718
18515TIP3    H176960   0.492   4.778   2.102  0.2185 -0.1905 -0.5320
18515TIP3    H276961   0.402   4.899   2.082 -0.4043 -0.3079  1.3770
18516TIP3   OH276962   5.050   3.899  13.694 -0.3155  0.5129  0.5597
18516TIP3    H176963   5.008   3.976  13.734 -1.1241  0.3347  0.0751
18516TIP3    H276964   4.988   3.828  13.708  0.6344 -0.1753  1.4147
18517TIP3   OH276965   1.190   0.897  12.602 -0.0600  0.3601  0.0527
18517TIP3    H176966   1.200   0.963  12.671 -2.7252  0.3543  0.5626
18517TIP3    H276967   1.142   0.943  12.533 -0.3163 -0.5221 -0.3643
18518TIP3   OH276968   3.421   0.786   1.323  0.6123 -0.0086  0.3389
18518TIP3    H176969   3.487   0.717   1.318 -0.6813 -1.2620 -0.1041
18518TIP3    H276970   3.348   0.746   1.369 -0.4883  0.7984 -0.6504
18519TIP3   OH276971   6.349   0.317   5.008  0.2231 -0.6466 -0.3449
18519TIP3    H176972   6.380   0.227   5.019 -0.7523 -0.9063  0.4258
18519TIP3    H276973   6.429   0.369   5.003  0.7988 -1.4269  0.3630
18520TIP3   OH276974   0.083   1.881  12.173  0.3122 -0.1282 -0.5142
18520TIP3    H176975  -0.004   1.921  12.170 -0.1618 -1.1614 -1.1258
18520TIP3    H276976   0.066   1.788  12.188  1.3351 -0.2679 -0.1639
18521TIP3   OH276977   2.415   2.765  14.236 -0.3955  0.4999  0.0358
18521TIP3    H176978   2.420   2.853  14.272 -1.9112  1.6453 -2.3253
18521TIP3    H276979   2.435   2.776  14.142 -1.0898 -1.5725 -0.4071
18522TIP3   OH276980   5.489   2.235   1.824 -0.1500 -0.8033 -0.2022
18522TIP3    H176981   5.478   2.215   1.917 -1.1227  1.3949  0.2312
18522TIP3    H276982   5.413   2.196   1.782 -0.2571 -0.9163  0.0941
18523TIP3   OH276983   4.294   4.719   5.511 -0.0570 -0.0686  0.1724
18523TIP3    H176984   4.274   4.633   5.474 -0.1620 -0.1114  0.3296
18523TIP3    H276985   4.228   4.778   5.474 -1.0172 -0.3661  1.3458
18524TIP3   OH276986   4.382   1.046   2.575  0.3062 -0.2766  0.3020
18524TIP3    H176987   4.349   1.114   2.517  0.3715 -0.2031  0.3500
18524TIP3    H276988   4.451   1.003   2.524 -0.2138 -0.7663  0.0123
18525TIP3   OH276989   1.423   6.483  11.797 -0.2282 -0.1961 -0.1171
18525TIP3    H176990   1.372   6.466  11.877 -1.6939  0.1121 -0.9472
18525TIP3    H276991   1.471   6.402  11.781  0.9583  0.0905  1.6492
18526TIP3   OH276992   0.610   5.348  16.057 -0.3073 -0.1716 -0.3843
18526TIP3    H176993   0.624   5.315  16.146 -1.6615 -1.6275 -0.6729
18526TIP3    H276994   0.535   5.406  16.064  0.6510  1.0963 -0.2994
18527TIP3   OH276995   0.100   6.125  13.355 -0.0537  0.5144 -0.0876
18527TIP3    H176996   0.194   6.119  13.336 -0.0990  0.0113 -0.1673
18527TIP3    H276997   0.059   6.132  13.268 -0.1292  0.0860 -0.0920
18528TIP3   OH276998   1.600   1.524   4.093  0.4182  0.3793  0.7165
18528TIP3    H176999   1.663   1.565   4.034 -0.9527  1.5282  0.0084
18528TIP3    H277000   1.547   1.467   4.037  1.5774 -1.5808  1.5107
18529TIP3   OH277001   2.010   5.274  12.519 -0.2201  0.1107  0.7551
18529TIP3    H177002   1.983   5.258  12.429 -0.4181  3.0166  0.1957
18529TIP3    H277003   1.983   5.196  12.567  1.3573 -2.2574 -1.9390
18530TIP3   OH277004   0.714   6.519  11.572 -0.4378  0.1763  0.0132
18530TIP3    H177005   0.791   6.513  11.515 -0.7337 -1.9620 -0.2582
18530TIP3    H277006   0.730   6.453  11.640 -1.3629  0.7499  0.8051
18531TIP3   OH277007   6.708   0.763   3.791 -0.2672  0.1738  1.0332
18531TIP3    H177008   6.747   0.699   3.731 -1.4698 -0.4870  0.9110
18531TIP3    H277009   6.767   0.766   3.866  0.0401 -0.7664  0.8385
18532TIP3   OH277010   4.350   4.396   4.074 -0.0566  0.0568  0.1725
18532TIP3    H177011   4.348   4.312   4.120 -2.2854 -0.2718 -0.3707
18532TIP3    H277012   4.279   4.446   4.114  0.6461  1.3368 -0.1513
18533TIP3   OH277013   6.125   5.287  13.811 -0.8540  0.2294 -0.2430
18533TIP3    H177014   6.213   5.252  13.798  0.4760  3.0785  0.3153
18533TIP3    H277015   6.095   5.310  13.724 -0.4799  0.4739 -0.3095
18534TIP3   OH277016   2.162   0.518   0.809  0.0486  0.1928  0.5959
18534TIP3    H177017   2.250   0.548   0.832  0.7938 -1.3044 -0.1631
18534TIP3    H277018   2.155   0.534   0.715 -0.6481  0.6339  0.7136
18535TIP3   OH277019   2.652   4.608   0.405 -0.0085 -0.5145  0.0254
18535TIP3    H177020   2.670   4.533   0.349  1.2183 -0.7538  0.7146
18535TIP3    H277021   2.689   4.585   0.490 -0.6143  0.4097  0.5575
18536TIP3   OH277022   5.936   6.151  14.897  0.8296  0.0190 -0.9131
18536TIP3    H177023   5.869   6.218  14.879  0.0212 -0.4230  0.3122
18536TIP3    H277024   6.013   6.181  14.849  0.8979  2.5114  0.5913
18537TIP3   OH277025   2.321   4.003  12.068  0.4546 -0.2794  0.2500
18537TIP3    H177026   2.288   3.920  12.033  2.2029 -0.8587 -0.1117
18537TIP3    H277027   2.411   4.008  12.038  0.7188  1.2526  1.1823
18538TIP3   OH277028   0.288   1.775   5.322  0.4247 -0.3933 -0.4928
18538TIP3    H177029   0.279   1.737   5.410 -1.0826  0.0614 -0.4206
18538TIP3    H277030   0.341   1.711   5.274  2.7711  0.1539  1.1840
18539TIP3   OH277031   2.177   0.921  17.198  0.0001 -0.3951  0.2768
18539TIP3    H177032   2.235   0.915  17.273  0.4432  0.5102  0.0296
18539TIP3    H277033   2.119   0.845  17.205  0.5066 -0.7113  1.1231
18540TIP3   OH277034   3.060   3.664  16.452 -0.7082 -0.1170 -0.1090
18540TIP3    H177035   3.051   3.750  16.493 -0.8284 -0.5669  0.8377
18540TIP3    H277036   3.136   3.673  16.394 -0.8413  0.6762 -0.1731
18541TIP3   OH277037   0.100   4.822  16.945  0.2940 -0.3452 -0.1605
18541TIP3    H177038   0.179   4.845  16.994  0.7920 -0.8963 -0.6895
18541TIP3    H277039   0.125   4.744  16.896 -0.2834  0.0432 -1.0896
18542TIP3   OH277040   2.759   6.429  14.960  0.1484  0.5564 -0.1203
18542TIP3    H177041   2.722   6.348  14.996 -1.8175  1.7002  0.6422
18542TIP3    H277042   2.832   6.400  14.906 -2.1757 -2.0144 -2.2537
18543TIP3   OH277043   2.889   3.490   2.203  0.1202  0.0058 -0.0660
18543TIP3    H177044   2.939   3.539   2.268  1.0513  0.9246 -1.4161
18543TIP3    H277045   2.949   3.421   2.174  1.1720  1.7921 -2.5123
18544TIP3   OH277046   2.349   5.463  13.639 -0.0393  0.2699 -0.5889
18544TIP3    H177047   2.392   5.513  13.709 -0.0727  0.4545 -0.6984
18544TIP3    H277048   2.401   5.384  13.630  1.3334  1.2916 -1.9358
18545TIP3   OH277049   3.308   2.503   1.104  0.0125  0.1884 -0.1758
18545TIP3    H177050   3.394   2.466   1.124  0.1310  0.5160 -0.0662
18545TIP3    H277051   3.326   2.595   1.085 -0.3864  0.3871  0.3974
18546TIP3   OH277052   6.051   2.609  12.869 -0.2068 -0.1989 -0.1213
18546TIP3    H177053   5.983   2.583  12.932  0.3510  0.3413  0.7325
18546TIP3    H277054   6.028   2.700  12.846  0.2866  0.0316  0.2710
18547TIP3   OH277055   2.764   2.337  16.749 -0.4996  0.1032 -0.2433
18547TIP3    H177056   2.783   2.254  16.706  0.3758  0.2603 -0.1818
18547TIP3    H277057   2.669   2.343  16.751 -0.6067 -1.4743  0.8500
18548TIP3   OH277058   4.675   2.345  13.020  0.5571 -0.4625 -0.2554
18548TIP3    H177059   4.721   2.386  12.947 -0.8755  0.4824 -0.6692
18548TIP3    H277060   4.610   2.410  13.047  1.2437 -0.6590  2.0900
18549TIP3   OH277061   0.124   2.958  12.338  0.3946 -0.5308 -0.3841
18549TIP3    H177062   0.070   2.981  12.413 -0.4817  0.9042 -1.4021
18549TIP3    H277063   0.211   2.943  12.374 -0.0257  0.0637  0.9165
18550TIP3   OH277064   4.912   6.705  10.879 -0.3497 -0.0499  0.0764
18550TIP3    H177065   4.929   6.799  10.869 -0.4380  0.2527  2.2129
18550TIP3    H277066   4.847   6.684  10.812  0.2073  1.2343 -0.9104
18551TIP3   OH277067   4.289   0.204   2.214  0.3051  0.0968  0.7915
18551TIP3    H177068   4.329   0.235   2.295 -1.6565 -0.5238  2.0762
18551TIP3    H277069   4.288   0.282   2.157 -0.1259  1.1176  2.1316
18552TIP3   OH277070   5.295   3.956   5.974  0.3840  0.6021  0.4747
18552TIP3    H177071   5.281   3.879   5.919  1.6446  1.3209 -0.9048
18552TIP3    H277072   5.348   4.015   5.921  0.8120  1.7587  2.0998
18553TIP3   OH277073   0.492   1.534  13.516  0.6005  0.0575  0.4881
18553TIP3    H177074   0.576   1.545  13.472  0.3943  1.4644  0.3892
18553TIP3    H277075   0.492   1.443  13.547  1.8960 -0.1317 -0.0247
18554TIP3   OH277076   5.839   1.012   2.972 -0.1692  0.0432  0.1018
18554TIP3    H177077   5.910   0.965   2.929  0.7723  2.2826 -0.9565
18554TIP3    H277078   5.866   1.020   3.063  0.5890  0.2280 -0.1368
18555TIP3   OH277079   3.032   3.424  14.544  0.3709 -0.2790 -0.2579
18555TIP3    H177080   3.068   3.342  14.577  0.4198 -0.3971 -0.6062
18555TIP3    H277081   3.085   3.492  14.587  0.0219 -0.4084  0.3999
18556TIP3   OH277082   2.804   3.675  16.346 -0.2553 -0.1379  0.5159
18556TIP3    H177083   2.897   3.668  16.366  0.2932  0.0028 -1.7440
18556TIP3    H277084   2.763   3.609  16.402  1.4939 -1.8346 -0.0782
18557TIP3   OH277085   3.888   4.064   2.601 -0.4804  0.1844 -0.5670
18557TIP3    H177086   3.894   4.045   2.507  0.6349  0.4340 -0.5508
18557TIP3    H277087   3.825   4.136   2.606 -0.7990 -0.0519 -1.0899
18558TIP3   OH277088   4.626   1.886   5.872  0.4017  0.3703  0.5475
18558TIP3    H177089   4.682   1.943   5.819  1.1280  1.0721  2.0122
18558TIP3    H277090   4.595   1.942   5.944 -1.1221 -0.3683  0.5021
18559TIP3   OH277091   3.983   2.103   1.981  0.2337  0.1148  0.2649
18559TIP3    H177092   4.005   2.078   1.891 -0.4722 -0.1361  0.1598
18559TIP3    H277093   3.964   2.197   1.976 -0.9364 -0.1317 -0.0672
18560TIP3   OH277094   5.388   1.563  15.101  1.0759  0.0580  0.0725
18560TIP3    H177095   5.474   1.535  15.071  1.7083  0.9274  0.9815
18560TIP3    H277096   5.392   1.659  15.100 -0.7684  0.1962 -2.2886
18561TIP3   OH277097   2.740   2.865   6.001 -0.7895  0.0413  0.5308
18561TIP3    H177098   2.768   2.775   6.016 -1.8596  0.0344  3.0202
18561TIP3    H277099   2.671   2.880   6.067 -0.9924  2.5160 -0.1370
18562TIP3   OH277100   2.426   2.743  13.333  0.5568 -0.3038 -0.3270
18562TIP3    H177101   2.516   2.733  13.363  2.1380  1.1343 -3.9576
18562TIP3    H277102   2.407   2.836  13.344 -0.7077 -0.6687  0.8104
18563TIP3   OH277103   6.260   2.299   4.829  0.2851 -0.4536 -0.3057
18563TIP3    H177104   6.330   2.294   4.763  0.7214  0.6491  0.0420
18563TIP3    H277105   6.288   2.238   4.897  1.5787  0.8185  0.3896
18564TIP3   OH277106   5.554   0.230   5.936 -0.5189 -0.0599 -0.0314
18564TIP3    H177107   5.595   0.239   6.022 -0.5700  1.2232 -0.1082
18564TIP3    H277108   5.514   0.144   5.936  0.3025 -0.4566  0.8706
18565TIP3   OH277109   0.486   5.836  15.456  0.4023 -0.1518 -0.4776
18565TIP3    H177110   0.444   5.917  15.486  1.6917  0.3789 -0.0637
18565TIP3    H277111   0.422   5.767  15.476 -1.3574  0.8867 -2.1814
18566TIP3   OH277112   4.796   1.015   0.117  0.1294 -0.4995 -0.3305
18566TIP3    H177113   4.871   1.049   0.069 -0.6854  1.5135 -0.3230
18566TIP3    H277114   4.798   0.921   0.104  1.8831 -0.3459 -1.4212
18567TIP3   OH277115   4.356   2.758   2.901 -0.3757  0.1811  0.2722
18567TIP3    H177116   4.373   2.699   2.827 -0.6602  1.2617 -0.6797
18567TIP3    H277117   4.355   2.700   2.978  0.4751 -0.8902 -0.4900
18568TIP3   OH277118   4.968   4.934  15.660  0.0555 -0.3431 -0.5988
18568TIP3    H177119   5.010   4.968  15.739 -1.3265  1.1277 -0.4630
18568TIP3    H277120   4.876   4.927  15.682 -0.1404 -1.3011 -1.6333
18569TIP3   OH277121   4.419   2.945   5.706 -0.0519 -0.3882 -0.1513
18569TIP3    H177122   4.485   3.010   5.732 -0.6331  0.8748 -1.6704
18569TIP3    H277123   4.448   2.915   5.619 -0.0875 -1.7846  0.2922
18570TIP3   OH277124   5.488   2.166  13.678  0.1820 -0.0609 -0.2471
18570TIP3    H177125   5.496   2.163  13.583 -0.7082 -1.2405 -0.3123
18570TIP3    H277126   5.541   2.093  13.709 -0.0088 -0.0480  0.1196
18571TIP3   OH277127   3.924   6.511   4.525  0.6296  0.4144 -0.7506
18571TIP3    H177128   4.008   6.480   4.494  0.1788 -0.3859 -1.1981
18571TIP3    H277129   3.874   6.530   4.446 -0.8883 -2.5992 -0.6328
18572TIP3   OH277130   5.343   5.683   3.495  0.4547 -0.4523  0.4667
18572TIP3    H177131   5.341   5.753   3.560  1.3886  0.0023  0.0246
18572TIP3    H277132   5.303   5.721   3.417  0.0279 -0.7541  0.5314
18573TIP3   OH277133   5.510   1.784   2.393  0.0685 -0.1029 -0.0395
18573TIP3    H177134   5.508   1.844   2.467  1.2487  1.8696 -1.5157
18573TIP3    H277135   5.421   1.783   2.360 -0.3710 -0.6736  1.1019
18574TIP3   OH277136   1.974   6.614   3.705  0.3297 -0.0348  0.3093
18574TIP3    H177137   1.906   6.681   3.692  0.4534  0.0294 -0.0012
18574TIP3    H277138   1.953   6.577   3.791 -0.4154 -0.3807 -0.0127
18575TIP3   OH277139   4.744   4.713  10.537 -0.1076  0.3541 -0.0502
18575TIP3    H177140   4.662   4.746  10.573  0.0901 -0.5985  1.3493
18575TIP3    H277141   4.803   4.788  10.538 -1.2555  1.4016 -2.2584
18576TIP3   OH277142   5.337   5.257   3.377 -0.2165  0.0604 -1.0614
18576TIP3    H177143   5.328   5.173   3.332 -0.6920 -0.3726 -0.1804
18576TIP3    H277144   5.379   5.314   3.313  2.0533 -1.4144 -0.9646
18577TIP3   OH277145   4.588   3.876   3.744  0.7862  0.0632  0.7988
18577TIP3    H177146   4.676   3.851   3.772  0.9988 -0.2060 -0.0699
18577TIP3    H277147   4.572   3.960   3.787  1.9437  0.6931  0.0659
18578TIP3   OH277148   0.091   3.917  10.668 -0.2289  0.5231  0.7644
18578TIP3    H177149   0.028   3.845  10.674  1.0217 -0.9512 -1.8860
18578TIP3    H277150   0.149   3.904  10.743 -1.6621  0.5153  1.9180
18579TIP3   OH277151   1.640   5.014   0.434  0.6210 -0.1839 -0.4304
18579TIP3    H177152   1.565   5.041   0.488  0.7982 -0.0673 -0.2421
18579TIP3    H277153   1.714   5.061   0.471  0.8616 -0.6165 -0.3597
18580TIP3   OH277154   1.195   1.211   0.418 -0.1667  0.2082 -0.2030
18580TIP3    H177155   1.265   1.271   0.443  0.3997 -0.8495  0.8488
18580TIP3    H277156   1.141   1.261   0.356  2.1380  0.7027 -1.9533
18581TIP3   OH277157   0.637   2.307  14.253  0.1539  0.1006  0.0888
18581TIP3    H177158   0.589   2.257  14.187 -1.4863 -1.3095  2.2221
18581TIP3    H277159   0.675   2.240  14.310  0.7504  1.2979  1.1268
18582TIP3   OH277160   2.973   0.400   4.173  0.0529 -0.5459  0.2686
18582TIP3    H177161   3.052   0.350   4.152 -0.1017 -0.5333 -0.3489
18582TIP3    H277162   2.901   0.340   4.154 -0.0895 -0.5752  0.8826
18583TIP3   OH277163   1.077   1.497   3.648 -0.0180  0.0924 -0.4918
18583TIP3    H177164   1.161   1.473   3.608  0.5531  3.2989 -1.4841
18583TIP3    H277165   1.014   1.437   3.609  1.3841 -0.5580 -1.8741
18584TIP3   OH277166   6.397   2.475  14.845 -0.5173 -0.2113  0.1254
18584TIP3    H177167   6.374   2.546  14.905  1.0638 -0.0141  0.5404
18584TIP3    H277168   6.484   2.446  14.873 -0.4560 -1.2547 -1.0250
18585TIP3   OH277169   1.391   4.912  16.340 -0.2585 -0.7086 -0.1294
18585TIP3    H177170   1.312   4.921  16.393  1.3949 -0.6196  2.5152
18585TIP3    H277171   1.409   5.001  16.309 -0.6169 -0.5327  0.1654
18586TIP3   OH277172   5.613   3.468  13.630 -0.5014  0.5111  0.0042
18586TIP3    H177173   5.595   3.400  13.695  1.5331 -0.3630 -0.2734
18586TIP3    H277174   5.547   3.536  13.647 -1.3537 -0.6459  1.5564
18587TIP3   OH277175   2.928   0.259   2.052 -0.6961 -0.2203  0.2120
18587TIP3    H177176   2.942   0.173   2.090 -0.0105 -0.7903 -1.2341
18587TIP3    H277177   2.837   0.280   2.069 -0.9350 -1.3565  0.3564
18588TIP3   OH277178   3.854   1.519   2.434 -0.2760 -0.2257 -0.0281
18588TIP3    H177179   3.892   1.574   2.502  1.3529 -1.2445 -0.0702
18588TIP3    H277180   3.865   1.569   2.353  0.3173 -0.1977  0.0681
18589TIP3   OH277181   5.050   4.747   5.198 -0.1080 -0.4730 -0.0501
18589TIP3    H177182   4.960   4.716   5.190 -1.4192  2.8289  0.4337
18589TIP3    H277183   5.070   4.741   5.291 -0.2504 -0.1430  0.0017
18590TIP3   OH277184   5.978   5.002  13.698 -0.0020 -0.3925  0.5391
18590TIP3    H177185   5.897   5.051  13.685 -0.2587 -1.0154 -0.3792
18590TIP3    H277186   6.047   5.068  13.701 -0.4997  0.1127  0.8624
18591TIP3   OH277187   3.473   4.929   2.214  0.1543  0.3053  0.5770
18591TIP3    H177188   3.423   4.855   2.248 -0.1380 -1.4526 -3.1776
18591TIP3    H277189   3.408   4.985   2.172  0.8044  0.5999 -0.0506
18592TIP3   OH277190   2.151   4.452   3.864  0.1041 -0.3698  0.3603
18592TIP3    H177191   2.073   4.462   3.917  0.1348  0.2687  0.2930
18592TIP3    H277192   2.166   4.357   3.860  0.0864 -0.4209  1.4547
18593TIP3   OH277193   2.967   1.076   5.014  0.1772  0.0225 -0.3124
18593TIP3    H177194   2.912   1.015   4.965 -0.3294  0.6953 -0.6001
18593TIP3    H277195   3.017   1.123   4.947 -0.4475  0.8788 -0.2062
18594TIP3   OH277196   2.252   4.032  13.725  0.4616  0.7685 -0.0411
18594TIP3    H177197   2.330   3.976  13.720 -0.7877 -0.9847 -1.5703
18594TIP3    H277198   2.276   4.102  13.786  2.0612 -1.5517  2.2319
18595TIP3   OH277199   6.305   1.057  15.197 -0.1948 -0.0064 -0.3257
18595TIP3    H177200   6.296   0.971  15.156  0.4663  1.1089 -3.0770
18595TIP3    H277201   6.242   1.112  15.151  1.0275  1.4901 -0.2956
18596TIP3   OH277202   5.400   3.436  14.339  0.4151 -0.0428  0.9886
18596TIP3    H177203   5.472   3.493  14.314  0.2383 -0.1223  0.2733
18596TIP3    H277204   5.403   3.434  14.434  1.2218  0.1244  0.9732
18597TIP3   OH277205   2.438   4.611   2.853  0.7406  0.0712  0.0568
18597TIP3    H177206   2.532   4.598   2.865  0.4328 -1.6489  0.9678
18597TIP3    H277207   2.412   4.668   2.925  1.3249  1.9926 -1.1823
18598TIP3   OH277208   6.520   3.982  14.963  0.0324 -0.9334  0.5189
18598TIP3    H177209   6.591   4.034  14.927 -1.7981  0.7606 -0.8922
18598TIP3    H277210   6.548   3.962  15.053  2.2587 -0.3969 -0.0027
18599TIP3   OH277211   6.344   2.567   5.268  0.3426 -0.1086 -0.3008
18599TIP3    H177212   6.341   2.613   5.352 -1.2044 -1.4118  0.4123
18599TIP3    H277213   6.409   2.499   5.281  0.2057 -0.2218 -0.2022
18600TIP3   OH277214   0.476   4.707  17.300 -0.1494  0.6711 -0.3729
18600TIP3    H177215   0.447   4.736  17.386 -0.8264 -1.0071  0.0128
18600TIP3    H277216   0.549   4.648  17.318  0.2720  0.9818 -1.0191
18601TIP3   OH277217   1.934   3.542   5.433 -0.0501 -0.0718  0.1695
18601TIP3    H177218   1.913   3.614   5.374  0.6998 -0.0553 -0.0900
18601TIP3    H277219   1.950   3.467   5.375 -4.3504 -1.5187  0.4914
18602TIP3   OH277220   1.559   5.908   0.632 -0.0998  0.0445  0.1219
18602TIP3    H177221   1.637   5.956   0.660 -0.3331 -0.4069  1.6027
18602TIP3    H277222   1.505   5.901   0.710  0.0187 -2.8197  0.0705
18603TIP3   OH277223   4.994   3.888   2.696  0.4626 -0.3166  0.2333
18603TIP3    H177224   5.029   3.817   2.641 -1.9178 -0.8384 -0.7293
18603TIP3    H277225   5.026   3.868   2.784  0.1502 -2.4169 -0.0659
18604TIP3   OH277226   2.958   1.845  14.579  0.0983 -0.4936  0.1689
18604TIP3    H177227   2.936   1.758  14.544  1.9415 -0.3416 -1.5650
18604TIP3    H277228   3.029   1.876  14.523  1.8659  0.6976  2.8828
18605TIP3   OH277229   0.581   3.082  16.647 -0.2269  0.1594 -0.1225
18605TIP3    H177230   0.553   3.133  16.572 -2.7407  1.4391  1.5542
18605TIP3    H277231   0.653   3.132  16.685 -1.2375  1.3634  0.2596
18606TIP3   OH277232   1.377   6.008   3.312 -0.7716  0.2521  0.0139
18606TIP3    H177233   1.390   6.061   3.233  0.4724  0.9301  0.6409
18606TIP3    H277234   1.399   5.919   3.284  1.6810  0.7784  0.0302
18607TIP3   OH277235   3.340   0.944  16.829 -0.6973 -0.2249 -0.1715
18607TIP3    H177236   3.307   0.897  16.753  1.1607 -0.8857 -0.6091
18607TIP3    H277237   3.432   0.961  16.810 -0.0051 -0.9508  2.1671
18608TIP3   OH277238   6.568   5.156  13.477  0.0862 -0.2062 -0.9482
18608TIP3    H177239   6.521   5.146  13.559  2.5987  0.5106  0.6781
18608TIP3    H277240   6.557   5.072  13.432 -0.4039 -1.0203  0.6268
18609TIP3   OH277241   6.379   5.632   5.360 -0.7900  0.1731 -1.3430
18609TIP3    H177242   6.462   5.662   5.326 -0.9114  3.0751  0.5955
18609TIP3    H277243   6.399   5.548   5.403  1.5032  1.4426  0.2629
18610TIP3   OH277244   2.577   1.228  16.451 -0.4134 -0.4314 -0.5725
18610TIP3    H177245   2.567   1.285  16.374  1.4370  2.1574  0.9364
18610TIP3    H277246   2.538   1.278  16.523  1.3753 -0.9749  0.8533
18611TIP3   OH277247   1.369   1.810   3.108  0.2877 -0.7058  0.4699
18611TIP3    H177248   1.445   1.787   3.161  0.6234 -3.0412 -0.8982
18611TIP3    H277249   1.372   1.906   3.102  2.4463 -0.6659  1.3961
18612TIP3   OH277250   5.680   6.119  16.189  0.2430 -0.4476 -0.0650
18612TIP3    H177251   5.655   6.190  16.248  1.3519 -0.8377  0.9084
18612TIP3    H277252   5.760   6.150  16.147  0.7241 -1.1119  0.3497
18613TIP3   OH277253   1.061   6.445   3.648 -0.5106  0.4147  0.0697
18613TIP3    H177254   1.117   6.422   3.574 -0.2654 -1.4273  0.7675
18613TIP3    H277255   0.973   6.421   3.620 -0.3115 -1.1547  0.6257
18614TIP3   OH277256   5.649   0.122   2.419  0.1082 -0.4256 -0.6426
18614TIP3    H177257   5.633   0.067   2.495  0.3574  0.9460  0.4487
18614TIP3    H277258   5.599   0.081   2.348 -0.2030 -1.6796  0.2765
18615TIP3   OH277259   2.323   5.334  11.600 -0.0009 -0.0018 -0.8148
18615TIP3    H177260   2.378   5.331  11.522 -0.3881  0.7943 -1.1298
18615TIP3    H277261   2.355   5.410  11.649 -0.0161 -0.2673 -0.3852
18616TIP3   OH277262   4.834   3.235  15.211 -0.5265  0.1680  0.3697
18616TIP3    H177263   4.897   3.207  15.277 -1.3673 -2.6165  0.0922
18616TIP3    H277264   4.749   3.232  15.255 -0.7239  2.1411  0.2251
18617TIP3   OH277265   0.046   4.881   2.226  0.7768 -0.0218 -0.9583
18617TIP3    H177266   0.062   4.786   2.226 -1.6692 -0.7418  3.4369
18617TIP3    H277267  -0.042   4.890   2.191  0.6678  0.4941 -0.5649
18618TIP3   OH277268   6.142   4.995  12.587  0.2031 -0.0056  0.3761
18618TIP3    H177269   6.072   5.048  12.624  0.4797  2.0712 -1.8693
18618TIP3    H277270   6.100   4.910  12.570 -0.7990  0.0688  2.1292
18619TIP3   OH277271   3.967   2.716   3.841 -0.3754  0.5191  0.3332
18619TIP3    H177272   4.038   2.750   3.896  1.5016 -0.9843 -1.0446
18619TIP3    H277273   3.996   2.733   3.751 -2.3252  0.9011 -0.2684
18620TIP3   OH277274   0.520   0.419  13.885 -0.4576  0.4247 -0.2366
18620TIP3    H177275   0.531   0.469  13.965  1.1571 -0.9411  0.4583
18620TIP3    H277276   0.603   0.374  13.873 -1.1189 -0.4426 -1.9662
18621TIP3   OH277277   3.391   4.324  13.715 -0.1499 -0.4017 -0.3393
18621TIP3    H177278   3.377   4.397  13.654  1.3954 -0.4010 -0.7493
18621TIP3    H277279   3.346   4.350  13.795  0.1621  0.9128 -0.5636
18622TIP3   OH277280   3.781   1.473  12.194 -0.4564 -0.3011  0.4639
18622TIP3    H177281   3.833   1.552  12.210  0.2295 -0.1415 -2.0376
18622TIP3    H277282   3.693   1.505  12.173 -0.2978 -0.2035 -0.0796
18623TIP3   OH277283   5.922   5.778   5.671 -0.4997 -0.2130 -0.0323
18623TIP3    H177284   5.860   5.725   5.722  0.4340 -0.8994  0.4165
18623TIP3    H277285   5.910   5.748   5.580 -1.2955  0.1477 -0.0572
18624TIP3   OH277286   3.991   2.053  15.025  0.2812 -0.5912 -0.1780
18624TIP3    H177287   3.968   2.145  15.013 -1.3068 -0.4989  2.6405
18624TIP3    H277288   4.087   2.052  15.027  0.3192  1.2274  0.9584
18625TIP3   OH277289   5.094   3.867   1.472 -0.3580 -0.2347  0.4390
18625TIP3    H177290   5.168   3.922   1.447 -0.8350  1.1096  1.8293
18625TIP3    H277291   5.039   3.864   1.394  0.3106  0.1988 -0.0616
18626TIP3   OH277292   0.412   3.783   1.488  0.3537  0.3764 -0.0197
18626TIP3    H177293   0.384   3.734   1.566  1.8006  1.1235  1.0151
18626TIP3    H277294   0.489   3.831   1.517  1.3213  0.1663 -2.1120
18627TIP3   OH277295   2.665   3.913  16.544  0.1439  0.3243 -0.0304
18627TIP3    H177296   2.588   3.863  16.517  0.3184 -0.2394  0.4921
18627TIP3    H277297   2.738   3.870  16.498  0.3685 -0.2767  0.8693
18628TIP3   OH277298   0.242   2.490  13.930 -0.2873 -0.0028 -0.3703
18628TIP3    H177299   0.234   2.394  13.929 -2.9119  0.1342  0.8864
18628TIP3    H277300   0.255   2.512  14.022 -0.9952  0.9160 -0.4852
18629TIP3   OH277301   3.682   2.641  13.904 -0.1036  0.3025  0.3413
18629TIP3    H177302   3.653   2.667  13.992 -1.0474  2.1488 -0.4378
18629TIP3    H277303   3.604   2.652  13.849  0.8962  0.9074 -1.0311
18630TIP3   OH277304   5.470   1.058  13.675  0.4497 -0.4787 -0.2569
18630TIP3    H177305   5.442   1.068  13.765  1.0387 -1.2840  0.0354
18630TIP3    H277306   5.446   0.968  13.652 -0.8657  0.1045 -1.3459
18631TIP3   OH277307   2.073   3.964   2.832 -0.1255  0.1381  0.2391
18631TIP3    H177308   2.001   3.947   2.772  0.4801 -0.2166 -0.4031
18631TIP3    H277309   2.057   3.906   2.906  0.2578 -1.0033 -0.5476
18632TIP3   OH277310   1.237   4.567   2.325 -0.4850 -0.2569  0.8291
18632TIP3    H177311   1.148   4.601   2.329 -0.3167  0.3455 -0.2392
18632TIP3    H277312   1.271   4.580   2.414 -0.5984  1.9287  0.5968
18633TIP3   OH277313   1.572   0.820   0.386  0.6310  0.1066 -0.4898
18633TIP3    H177314   1.598   0.783   0.302 -0.4016  2.1746 -1.8130
18633TIP3    H277315   1.634   0.891   0.402  0.3107  0.2759  0.0540
18634TIP3   OH277316   0.222   0.310  15.722 -0.1505 -0.3381 -0.5102
18634TIP3    H177317   0.179   0.385  15.764 -0.5166 -0.4812 -0.6268
18634TIP3    H277318   0.237   0.339  15.632 -1.4278 -0.8475 -0.9082
18635TIP3   OH277319   3.264   3.904  15.007 -0.4997  0.2740 -0.0793
18635TIP3    H177320   3.187   3.927  15.060 -0.7352  0.5160 -0.5201
18635TIP3    H277321   3.325   3.976  15.021 -0.0927 -0.2266  0.7707
18636TIP3   OH277322   1.011   5.794  14.522  0.2377 -0.0652  0.7360
18636TIP3    H177323   0.929   5.811  14.475  1.2738  0.9304 -0.8227
18636TIP3    H277324   1.010   5.700  14.538 -0.7001 -0.2551 -0.3135
18637TIP3   OH277325   6.490   3.674  13.314  0.6844 -0.0705 -0.0695
18637TIP3    H177326   6.531   3.735  13.374 -0.9843 -0.0141  1.0936
18637TIP3    H277327   6.517   3.587  13.346  1.9359 -0.0051 -0.8856
18638TIP3   OH277328   5.877   3.355  16.437 -0.0425  0.1801  0.0774
18638TIP3    H177329   5.943   3.365  16.505  0.0975 -1.7463  0.2748
18638TIP3    H277330   5.918   3.299  16.372 -0.6537  0.9122 -0.9715
18639TIP3   OH277331   6.125   5.832  14.435  0.0415 -0.3575  0.5091
18639TIP3    H177332   6.153   5.741  14.444  0.9480 -0.0965  0.3905
18639TIP3    H277333   6.111   5.843  14.341  1.5399  0.0707  0.3080
18640TIP3   OH277334   3.981   4.302   2.989  0.2786 -0.4438 -0.4033
18640TIP3    H177335   3.982   4.350   2.906  0.6119 -0.1549 -0.2395
18640TIP3    H277336   3.942   4.218   2.968 -1.2741  0.2703 -0.4919
18641TIP3   OH277337   0.896   6.539   1.859  0.3612 -0.9919  0.7095
18641TIP3    H177338   0.842   6.522   1.782  0.2106  0.9571  0.3255
18641TIP3    H277339   0.833   6.558   1.929  0.4930  1.0466  0.3213
18642TIP3   OH277340   2.236   2.574   5.316  0.2538 -0.2431 -0.0625
18642TIP3    H177341   2.291   2.651   5.298 -0.2258 -0.0580 -0.8077
18642TIP3    H277342   2.165   2.581   5.252 -0.1308 -0.9767  0.2807
18643TIP3   OH277343   2.837   2.382  12.544 -0.3560 -0.2659  0.6194
18643TIP3    H177344   2.922   2.420  12.566 -0.4161  0.3122 -0.1374
18643TIP3    H277345   2.837   2.298  12.590  0.4890 -0.1307  0.8930
18644TIP3   OH277346   1.664   2.050   6.242 -0.8796 -0.0189 -0.7510
18644TIP3    H177347   1.629   2.111   6.307 -0.7848 -1.9332  1.2178
18644TIP3    H277348   1.759   2.055   6.254 -0.9060 -1.5245  0.4797
18645TIP3   OH277349   1.367   5.763   1.389  0.0295  0.5294  0.4955
18645TIP3    H177350   1.292   5.770   1.447 -1.2356  0.8523 -1.0934
18645TIP3    H277351   1.434   5.719   1.441 -1.6266 -0.8120  1.6103
18646TIP3   OH277352   6.381   3.380  15.010  0.2897  0.0013 -0.3835
18646TIP3    H177353   6.351   3.329  15.085 -0.2353  0.1023 -0.5165
18646TIP3    H277354   6.407   3.315  14.945  2.7317 -0.1139  0.6126
18647TIP3   OH277355   4.247   0.648   2.027  0.3800  0.3070  0.5602
18647TIP3    H177356   4.323   0.669   1.973 -0.2490 -0.8128 -0.8511
18647TIP3    H277357   4.258   0.700   2.107  1.1773  2.3387 -0.7882
18648TIP3   OH277358   4.408   1.773   5.743  0.7652  0.3226 -0.3472
18648TIP3    H177359   4.426   1.693   5.792  0.0450  0.4737  0.1803
18648TIP3    H277360   4.472   1.837   5.776 -0.4828  0.7797  1.3204
18649TIP3   OH277361   1.885   2.019   4.170  0.1821 -0.0456  0.3659
18649TIP3    H177362   1.871   2.101   4.122  1.1856  0.1187  0.3494
18649TIP3    H277363   1.814   1.962   4.139 -0.3791  0.7226  0.1956
18650TIP3   OH277364   4.865   6.359   2.058 -0.1162  0.1634 -0.3695
18650TIP3    H177365   4.843   6.289   1.997  0.6202 -1.2264  0.8934
18650TIP3    H277366   4.809   6.343   2.134  0.8386  0.2764  0.3775
18651TIP3   OH277367   0.818   0.916  11.352  0.1881 -0.0065  0.0955
18651TIP3    H177368   0.830   0.822  11.365 -0.7111 -0.2022 -0.4088
18651TIP3    H277369   0.752   0.923  11.283 -2.0895  0.9816  2.2075
18652TIP3   OH277370   5.574   1.919  11.986  0.7124 -0.4041  0.5290
18652TIP3    H177371   5.581   1.824  11.994 -0.7506 -0.5762  0.0074
18652TIP3    H277372   5.506   1.944  12.048 -1.0490 -0.1050 -1.3941
18653TIP3   OH277373   3.695   2.473   3.214  0.1448  0.0307  0.6105
18653TIP3    H177374   3.788   2.493   3.225  0.4413 -0.5043 -0.6819
18653TIP3    H277375   3.657   2.555   3.181  0.1847  0.2070  0.9988
18654TIP3   OH277376   2.981   4.245  13.358 -0.0827 -0.0292  0.1779
18654TIP3    H177377   3.054   4.251  13.419 -0.0594  1.5845  0.0272
18654TIP3    H277378   2.986   4.155  13.324  0.7625 -0.4985  1.4450
18655TIP3   OH277379   4.861   2.159  11.669  0.2633  0.5218  0.3178
18655TIP3    H177380   4.878   2.222  11.739  2.1124  0.9155 -0.4495
18655TIP3    H277381   4.943   2.152  11.622 -0.8707  0.0918 -1.7017
18656TIP3   OH277382   1.355   2.084   6.334 -1.0732  0.1136 -0.6019
18656TIP3    H177383   1.330   2.117   6.248  1.6889  1.1471 -1.1252
18656TIP3    H277384   1.441   2.043   6.319 -0.0297  1.2715  1.8337
18657TIP3   OH277385   3.813   3.776   0.888  0.4978  0.2499 -0.0657
18657TIP3    H177386   3.842   3.700   0.836  0.1806  0.3533 -0.4014
18657TIP3    H277387   3.811   3.848   0.826 -1.0798  0.1119 -0.2199
18658TIP3   OH277388   2.154   0.317   3.534 -0.0331  0.1754  0.8018
18658TIP3    H177389   2.163   0.264   3.613 -1.7652 -2.9764 -0.9319
18658TIP3    H277390   2.074   0.368   3.548  1.3307  2.0355  2.2455
18659TIP3   OH277391   0.004   6.158  17.202  0.4902 -0.0887 -0.4290
18659TIP3    H177392  -0.014   6.155  17.108  0.7254 -1.1679 -0.4565
18659TIP3    H277393  -0.081   6.172  17.243  0.4186  0.5917 -0.8141
18660TIP3   OH277394   2.992   2.293   0.512  0.2394  0.4405 -0.1333
18660TIP3    H177395   3.080   2.311   0.545  0.5549  0.2418 -0.8321
18660TIP3    H277396   2.947   2.378   0.513  0.3839  0.5104  0.3836
18661TIP3   OH277397   5.109   5.534   4.665  0.0728  0.1994  0.7589
18661TIP3    H177398   5.044   5.603   4.673  0.6124  0.5301  2.9225
18661TIP3    H277399   5.183   5.576   4.620 -0.4975  0.3361 -0.0638
18662TIP3   OH277400   2.171   0.907  15.269 -0.6584  0.4691 -0.3945
18662TIP3    H177401   2.169   0.987  15.216 -1.9161  0.1465 -0.8605
18662TIP3    H277402   2.091   0.861  15.246 -0.2943 -0.5973  0.3997
18663TIP3   OH277403   1.820   2.557   0.160  0.4400 -0.2655  0.8743
18663TIP3    H177404   1.772   2.618   0.104 -0.5636  2.0263  3.9583
18663TIP3    H277405   1.839   2.482   0.103 -0.0609  2.0031 -2.5829
18664TIP3   OH277406   0.224   3.145  13.324 -0.2641 -0.1803  0.0192
18664TIP3    H177407   0.301   3.132  13.268 -0.7584  2.0143 -1.3024
18664TIP3    H277408   0.192   3.057  13.342  1.5978 -1.0695 -0.7509
18665TIP3   OH277409   4.038   0.592   0.559 -0.3844  0.1000  0.5821
18665TIP3    H177410   4.001   0.629   0.478 -0.3542 -0.9672  0.0673
18665TIP3    H277411   3.967   0.541   0.597  0.0378 -0.5793  0.4730
18666TIP3   OH277412   2.280   5.985   3.210 -0.0259  0.7293  0.5527
18666TIP3    H177413   2.203   6.040   3.225  0.1157  2.9583 -4.7853
18666TIP3    H277414   2.256   5.930   3.136  1.9157 -2.3551  2.0286
18667TIP3   OH277415   6.391   2.988  11.937 -0.3503 -0.1064 -0.2481
18667TIP3    H177416   6.457   2.939  11.887  1.4215  1.0815  0.8260
18667TIP3    H277417   6.321   2.924  11.952  1.3528 -2.0122  0.1173
18668TIP3   OH277418   3.188   2.091   0.167  0.1062 -0.6417  0.1392
18668TIP3    H177419   3.172   2.179   0.131  1.6141 -1.3529 -2.5642
18668TIP3    H277420   3.102   2.060   0.193 -0.7470  0.9349 -0.6378
18669TIP3   OH277421   6.477   3.831   1.447  0.5267 -0.2251 -0.0165
18669TIP3    H177422   6.458   3.737   1.448 -0.8923  0.0470  1.0073
18669TIP3    H277423   6.431   3.863   1.369 -0.5451 -0.1072  0.6421
18670TIP3   OH277424   4.381   2.077  15.477  0.4362  0.0379  0.2090
18670TIP3    H177425   4.475   2.082  15.458  0.0362 -1.2457 -2.5774
18670TIP3    H277426   4.368   1.987  15.508 -0.0214 -0.1002 -0.3854
18671TIP3   OH277427   1.031   3.322   0.255  0.3010  0.3527 -0.5555
18671TIP3    H177428   1.088   3.397   0.272  0.6436  0.7809 -3.1467
18671TIP3    H277429   0.948   3.345   0.296  0.8244  1.5101 -0.0949
18672TIP3   OH277430   0.526   5.229   2.520  0.3625  0.4907  0.2132
18672TIP3    H177431   0.564   5.160   2.574 -0.5831  0.7894  1.2820
18672TIP3    H277432   0.466   5.276   2.578 -2.1374 -0.3185 -1.5386
18673TIP3   OH277433   0.699   5.109   2.937 -0.3881  0.3813 -0.1315
18673TIP3    H177434   0.608   5.110   2.907 -0.8096 -2.8933  0.7014
18673TIP3    H277435   0.749   5.079   2.861 -0.6824 -2.1678  0.5953
18674TIP3   OH277436   4.932   2.206  14.421  0.2000 -0.7334  0.1242
18674TIP3    H177437   5.026   2.191  14.415  1.1822  4.0027 -0.3226
18674TIP3    H277438   4.913   2.204  14.514  0.8580 -1.2473  0.2524
18675TIP3   OH277439   1.040   4.435   1.482 -0.1335  0.2893 -0.5582
18675TIP3    H177440   1.007   4.406   1.397 -0.7467  1.4685 -0.7399
18675TIP3    H277441   1.091   4.514   1.463 -1.7075  1.5902  0.3254
18676TIP3   OH277442   2.199   4.224  11.597 -0.1040 -0.3083 -0.3224
18676TIP3    H177443   2.211   4.175  11.678  3.4070  0.5630 -0.1230
18676TIP3    H277444   2.208   4.159  11.527 -0.6286 -0.6877 -0.0370
18677TIP3   OH277445   3.991   2.757  16.847 -0.0493  0.1570  0.5014
18677TIP3    H177446   3.925   2.826  16.845 -0.1450  0.0553 -0.7265
18677TIP3    H277447   4.073   2.803  16.864 -0.2655  0.4335  0.8060
18678TIP3   OH277448   1.749   4.143   0.376  0.2057 -0.1623 -0.0549
18678TIP3    H177449   1.681   4.113   0.437 -0.5232 -0.1645 -0.8450
18678TIP3    H277450   1.706   4.142   0.290  0.8535  0.9409 -0.4147
18679TIP3   OH277451   3.384   3.970  12.625 -0.2845 -0.2745 -0.3221
18679TIP3    H177452   3.412   4.059  12.646  1.0469 -1.0855  1.5627
18679TIP3    H277453   3.299   3.961  12.667  0.2474 -0.3506  0.7648
18680TIP3   OH277454   6.607   1.298  13.392 -0.0637 -0.9510  0.0190
18680TIP3    H177455   6.581   1.238  13.322 -0.4129 -1.5996  0.6926
18680TIP3    H277456   6.679   1.253  13.437 -0.5874 -1.0584  0.7733
18681TIP3   OH277457   4.790   1.795   1.742 -0.7928 -0.2509 -0.3551
18681TIP3    H177458   4.734   1.813   1.666 -1.0458  0.1034 -0.0863
18681TIP3    H277459   4.739   1.736   1.796 -0.5274 -0.6707 -0.5570
18682TIP3   OH277460   3.199   5.112  14.563 -0.1546 -0.3484  0.3065
18682TIP3    H177461   3.276   5.057  14.572  0.1097 -0.1816 -0.7961
18682TIP3    H277462   3.216   5.187  14.621  1.4619  0.6908 -1.3963
18683TIP3   OH277463   5.442   3.834  14.937 -0.0876 -1.0265 -0.1700
18683TIP3    H177464   5.370   3.771  14.946  1.5572 -2.6802  4.0496
18683TIP3    H277465   5.491   3.803  14.861 -1.3277 -2.6652 -0.3685
18684TIP3   OH277466   1.839   5.274  17.248  0.6860 -0.1947 -0.0805
18684TIP3    H177467   1.763   5.253  17.193  1.0029  0.2005 -0.6845
18684TIP3    H277468   1.842   5.370  17.248  3.1425 -0.1063 -2.9211
18685TIP3   OH277469   3.753   6.705   0.086 -0.2270 -0.1942  0.0931
18685TIP3    H177470   3.835   6.753   0.074 -0.3801  0.0736  0.1213
18685TIP3    H277471   3.771   6.646   0.160 -0.6272  1.1267  1.2702
18686TIP3   OH277472   5.255   4.477   3.945 -0.4498  0.2003  0.3216
18686TIP3    H177473   5.242   4.419   4.020 -1.4960  0.1434  0.1053
18686TIP3    H277474   5.349   4.496   3.946 -0.0322 -1.6171  0.3275
18687TIP3   OH277475   3.852   6.137   2.456 -0.1909  0.2984 -0.7217
18687TIP3    H177476   3.939   6.168   2.481 -0.0436  1.1521 -2.1698
18687TIP3    H277477   3.869   6.073   2.387 -0.6966  0.2501 -0.8056
18688TIP3   OH277478   3.706   6.556   3.762  0.6866 -0.2358 -0.4771
18688TIP3    H177479   3.780   6.512   3.804  0.8889  0.3495 -0.1998
18688TIP3    H277480   3.634   6.544   3.824  0.4743 -1.0462 -0.8781
18689TIP3   OH277481   0.542   1.934   0.841 -0.1420  0.8631 -0.2051
18689TIP3    H177482   0.618   1.935   0.783  0.0129  1.2035  0.0006
18689TIP3    H277483   0.517   1.842   0.846 -1.3359  1.0137 -2.3332
18690TIP3   OH277484   0.308   5.268  17.382 -0.0812  0.1278 -0.0556
18690TIP3    H177485   0.374   5.337  17.385 -1.4274  1.4944  2.5643
18690TIP3    H277486   0.357   5.187  17.394  1.2948  0.8875 -0.3820
18691TIP3   OH277487   2.568   4.380   4.586  0.3738  0.5553 -0.2550
18691TIP3    H177488   2.601   4.338   4.507  2.1128  0.6327  0.4002
18691TIP3    H277489   2.636   4.442   4.611  0.2717 -0.0860  1.7905
18692TIP3   OH277490   2.652   2.441   1.214  0.1870 -0.3261  0.3055
18692TIP3    H177491   2.721   2.449   1.280 -0.4517 -0.9989  1.0711
18692TIP3    H277492   2.689   2.483   1.136  1.4798 -0.7082  0.6866
18693TIP3   OH277493   4.672   2.505   6.391 -0.1633  0.6696 -0.4555
18693TIP3    H177494   4.660   2.520   6.485 -1.2562 -1.1519 -0.2743
18693TIP3    H277495   4.742   2.440   6.386 -1.4958 -0.7777 -0.7779
18694TIP3   OH277496   1.003   5.410   5.772  0.5210 -0.7330 -0.0739
18694TIP3    H177497   1.048   5.332   5.803  2.0088 -0.1887 -0.7927
18694TIP3    H277498   1.070   5.478   5.769 -0.4765  0.2708 -0.6117
18695TIP3   OH277499   2.388   0.112   3.913  0.1817 -0.6842 -0.5506
18695TIP3    H177500   2.470   0.100   3.865  1.5494 -1.6487  1.8632
18695TIP3    H277501   2.346   0.026   3.911  0.0012 -0.5996 -0.4428
18696TIP3   OH277502   2.546   4.100  11.202  1.1548 -0.4535 -0.1288
18696TIP3    H177503   2.506   4.153  11.133  0.3862  0.9244  1.2925
18696TIP3    H277504   2.569   4.018  11.160  0.6769  0.3312 -1.9976
18697TIP3   OH277505   0.179   2.678  15.558 -0.5642  0.0925  0.6043
18697TIP3    H177506   0.088   2.698  15.581 -1.0428 -1.2839  0.0282
18697TIP3    H277507   0.223   2.763  15.556 -1.5902  0.6786  1.9220
18698TIP3   OH277508   4.802   1.758  13.138 -0.2721  0.3590 -0.0382
18698TIP3    H177509   4.867   1.791  13.200  0.2118  1.9254 -1.3138
18698TIP3    H277510   4.726   1.815  13.149 -0.3249  0.4088 -0.6130
18699TIP3   OH277511   5.720   2.808   2.027  0.0420  0.3521 -0.6515
18699TIP3    H177512   5.689   2.896   2.005 -0.4524 -0.4974 -3.9277
18699TIP3    H277513   5.810   2.806   1.994  0.3743 -0.0913  0.2646
18700TIP3   OH277514   1.920   6.008  15.052  0.0634 -0.1439 -0.0055
18700TIP3    H177515   1.900   5.914  15.055  0.3391 -0.2109 -0.2801
18700TIP3    H277516   1.933   6.027  14.959 -0.5037  0.2766 -0.0070
18701TIP3   OH277517   0.310   0.866  16.739 -0.1594 -0.3823 -0.4027
18701TIP3    H177518   0.357   0.846  16.820  0.8977  0.8197 -0.6934
18701TIP3    H277519   0.232   0.811  16.743  0.8176 -1.7663  0.5209
18702TIP3   OH277520   3.866   2.940  15.785 -0.2664 -0.1505 -0.2817
18702TIP3    H177521   3.771   2.949  15.776 -0.5960 -2.4200  0.3278
18702TIP3    H277522   3.898   2.943  15.695 -1.1020 -0.7814 -0.6188
18703TIP3   OH277523   0.741   2.996  13.132 -0.2654  0.2229  0.6960
18703TIP3    H177524   0.763   2.970  13.221  1.4899  0.6898  0.4346
18703TIP3    H277525   0.824   3.025  13.094 -1.1869  1.1929 -0.6956
18704TIP3   OH277526   2.006   4.051   0.201  0.3756 -0.1224  0.1925
18704TIP3    H177527   1.993   4.056   0.106 -1.3308  1.1145  0.4611
18704TIP3    H277528   1.998   4.141   0.232  3.6773 -0.0409  1.2594
18705TIP3   OH277529   3.132   0.586   0.259  0.0605 -0.1207 -0.3001
18705TIP3    H177530   3.160   0.507   0.305 -1.1566 -0.1935  0.3703
18705TIP3    H277531   3.199   0.651   0.280 -0.4511 -0.1568  1.6240
18706TIP3   OH277532   4.682   1.171   7.017 -0.5446 -0.5883 -0.0837
18706TIP3    H177533   4.642   1.192   6.933 -1.0664 -1.4803 -0.0718
18706TIP3    H277534   4.755   1.233   7.026 -0.3531 -0.6255 -1.2836
18707TIP3   OH277535   4.152   6.221  11.891  0.0500 -0.1751  0.1003
18707TIP3    H177536   4.064   6.192  11.917 -0.4639  1.3907  0.1823
18707TIP3    H277537   4.142   6.251  11.801  0.7786 -1.0692 -0.2983
18708TIP3   OH277538   6.136   0.744   3.676  0.3523  0.5354 -0.3191
18708TIP3    H177539   6.142   0.750   3.771 -0.6448  3.9511 -0.3546
18708TIP3    H277540   6.065   0.682   3.660  0.3736  0.1020  1.1604
18709TIP3   OH277541   3.068   3.616  13.839 -0.4752  0.2442  0.3258
18709TIP3    H177542   3.151   3.623  13.792 -0.9581 -0.1072 -0.5963
18709TIP3    H277543   3.093   3.599  13.930  0.4486 -1.3478 -0.1987
18710TIP3   OH277544   2.938   4.340   6.092  0.1982  0.1093 -0.2373
18710TIP3    H177545   2.851   4.370   6.116  0.7481  2.1824 -0.6768
18710TIP3    H277546   2.922   4.269   6.029 -1.1718  0.9480 -0.8866
18711TIP3   OH277547   1.815   4.688   2.807  0.4131 -0.2271 -0.3833
18711TIP3    H177548   1.774   4.621   2.753 -1.2791 -0.7653  1.4244
18711TIP3    H277549   1.846   4.754   2.746 -3.0077  0.1147 -1.9729
18712TIP3   OH277550   2.334   5.510   1.144 -0.2633  0.1128  0.5127
18712TIP3    H177551   2.381   5.427   1.147 -1.6304 -0.6549  2.0925
18712TIP3    H277552   2.295   5.519   1.230 -1.9001  1.3794 -0.3032
18713TIP3   OH277553   2.891   5.306  16.171 -0.2874 -0.7216  0.0668
18713TIP3    H177554   2.938   5.381  16.207  1.1381 -1.7144  0.3773
18713TIP3    H277555   2.801   5.337  16.160 -0.4107  0.2232  2.7845
18714TIP3   OH277556   0.962   3.233  14.010 -0.5836  0.1707 -0.0619
18714TIP3    H177557   0.961   3.283  13.929 -0.1656 -0.0320 -0.1966
18714TIP3    H277558   0.873   3.199  14.019  0.0100 -2.1662 -1.9220
18715TIP3   OH277559   1.878   4.243   3.818 -0.5199 -0.0918  0.4548
18715TIP3    H177560   1.950   4.179   3.824  0.1720  0.5952 -0.2452
18715TIP3    H277561   1.879   4.287   3.903  0.2262  0.2496  0.2809
18716TIP3   OH277562   4.523   3.531   1.400  0.6021  0.3281  0.4010
18716TIP3    H177563   4.561   3.445   1.420  3.9717  1.0450 -1.9931
18716TIP3    H277564   4.570   3.560   1.322 -2.7482  2.9779 -0.8597
18717TIP3   OH277565   4.571   0.708  16.705 -0.4436 -0.0550  0.6638
18717TIP3    H177566   4.565   0.614  16.722  0.3203 -0.2856 -0.2423
18717TIP3    H277567   4.490   0.730  16.660 -0.0786 -0.5645 -0.2769
18718TIP3   OH277568   0.225   5.121  16.944 -0.2471 -0.6388 -0.3041
18718TIP3    H177569   0.168   5.170  17.003 -1.0647  1.3593 -2.5580
18718TIP3    H277570   0.179   5.038  16.929 -0.1075 -1.1081  1.6254
18719TIP3   OH277571   0.475   4.177   2.277  0.1867 -0.2033 -0.8570
18719TIP3    H177572   0.566   4.166   2.306  0.5107 -1.3037 -2.1862
18719TIP3    H277573   0.464   4.112   2.208 -1.6667 -0.1748 -0.6360
18720TIP3   OH277574   2.989   6.225   4.927  0.3519  0.1156  0.2215
18720TIP3    H177575   3.076   6.225   4.967  0.4148  1.3029  0.1111
18720TIP3    H277576   3.005   6.196   4.837  0.8344  1.5183 -0.1648
18721TIP3   OH277577   3.979   2.812  14.969 -0.3964 -0.4115 -0.0808
18721TIP3    H177578   4.051   2.868  14.940 -0.9657  0.2060 -0.3509
18721TIP3    H277579   4.004   2.724  14.943 -0.1068 -0.0928 -0.9066
18722TIP3   OH277580   3.423   3.872  15.298 -0.0888 -0.3937 -0.0448
18722TIP3    H177581   3.349   3.824  15.262  0.6816 -1.4580 -0.2771
18722TIP3    H277582   3.444   3.938  15.231 -2.2504  1.5292  1.0291
18723TIP3   OH277583   0.459   6.591   1.501 -0.3984  0.2212  0.3044
18723TIP3    H177584   0.500   6.514   1.541 -0.5031 -0.2490 -0.4914
18723TIP3    H277585   0.513   6.609   1.424 -0.9305  0.3774 -0.0342
18724TIP3   OH277586   0.579   0.789  16.418 -0.1916  0.2639  0.3735
18724TIP3    H177587   0.508   0.852  16.434  0.2825  0.5054  1.6705
18724TIP3    H277588   0.580   0.779  16.323 -1.4919  0.7964  0.2685
18725TIP3   OH277589   1.061   2.441  11.398  0.4736  0.4639  0.1060
18725TIP3    H177590   1.073   2.524  11.350 -1.3841  0.6724 -0.0760
18725TIP3    H277591   1.074   2.374  11.331 -1.0267  0.7261 -0.4968
18726TIP3   OH277592   3.753   6.299   1.742 -0.2131 -0.3753  0.0947
18726TIP3    H177593   3.789   6.217   1.709 -0.5171 -0.8284  0.8530
18726TIP3    H277594   3.719   6.277   1.828  2.5448  1.2633  1.7396
18727TIP3   OH277595   4.423   2.040   0.751  0.2356 -0.9467 -0.0694
18727TIP3    H177596   4.504   2.058   0.702  1.6755  0.1272  2.4685
18727TIP3    H277597   4.399   2.125   0.789  0.9444 -2.1405  3.4121
18728TIP3   OH277598   5.241   3.570  11.304 -0.0854  0.1157 -0.0936
18728TIP3    H177599   5.163   3.624  11.296  0.1652  1.1255  2.9433
18728TIP3    H277600   5.216   3.501  11.366  1.6991  1.2849  2.0866
18729TIP3   OH277601   0.185   4.579  12.846 -0.2837 -0.1556 -0.7699
18729TIP3    H177602   0.152   4.668  12.858 -1.6637 -0.7956  0.4954
18729TIP3    H277603   0.242   4.585  12.769 -1.3873  1.5444 -1.5219
18730TIP3   OH277604   0.874   5.374   2.116 -0.2192 -0.3843  0.1274
18730TIP3    H177605   0.813   5.303   2.136  0.4166 -0.9761  0.0039
18730TIP3    H277606   0.861   5.393   2.024 -0.6251 -0.1112  0.2403
18731TIP3   OH277607   6.706   0.823  16.907 -0.9088 -0.5628 -0.0492
18731TIP3    H177608   6.765   0.841  16.981 -0.2158 -0.1600 -0.6788
18731TIP3    H277609   6.698   0.908  16.862 -0.6973 -0.9674 -0.8734
18732TIP3   OH277610   1.645   3.233   2.337 -0.1176 -0.8075 -0.4470
18732TIP3    H177611   1.567   3.243   2.283  1.3271  1.7785 -2.3091
18732TIP3    H277612   1.692   3.317   2.327  3.2257 -2.4419  0.0202
18733TIP3   OH277613   6.629   2.193   4.774  0.3114  0.8512 -0.4869
18733TIP3    H177614   6.564   2.248   4.730  0.1510 -0.9122 -2.6641
18733TIP3    H277615   6.588   2.107   4.779  1.4161  0.3691  0.7416
18734TIP3   OH277616   1.441   6.371   3.157  0.2005  0.3660  0.7084
18734TIP3    H177617   1.473   6.300   3.102  1.4021  0.9805  0.5777
18734TIP3    H277618   1.474   6.351   3.244  2.7370  1.9797  0.2280
18735TIP3   OH277619   4.704   0.349  11.720 -0.5685 -0.3894 -0.7042
18735TIP3    H177620   4.720   0.265  11.764  0.2228 -0.6769 -1.5361
18735TIP3    H277621   4.748   0.413  11.776  2.4387 -0.9971 -2.1857
18736TIP3   OH277622   4.982   0.229   0.935 -0.1897 -0.4603 -0.3168
18736TIP3    H177623   4.972   0.305   0.992  1.6523  2.5349 -3.6045
18736TIP3    H277624   5.063   0.188   0.965 -0.0479  0.1403  0.1529
18737TIP3   OH277625   1.914   0.529  10.770 -0.8839  0.4042 -0.2682
18737TIP3    H177626   1.898   0.623  10.757  1.7925  1.0115  0.2848
18737TIP3    H277627   1.934   0.496  10.683 -0.9094  0.5519 -0.3306
18738TIP3   OH277628   6.222   3.002  15.066  0.1189 -0.1876 -0.2675
18738TIP3    H177629   6.207   3.090  15.102 -0.0682 -0.3755  0.1263
18738TIP3    H277630   6.250   2.950  15.142  0.3180 -0.4442 -0.5185
18739TIP3   OH277631   4.323   0.615  13.309  0.3421 -0.4910  0.8989
18739TIP3    H177632   4.278   0.615  13.393  0.8458 -0.8475  1.1754
18739TIP3    H277633   4.367   0.530  13.306  1.4634  0.0822  0.8944
18740TIP3   OH277634   0.166   5.789  14.803 -0.1370  0.0255 -0.4662
18740TIP3    H177635   0.126   5.801  14.890  2.4071  3.3573  0.4211
18740TIP3    H277636   0.247   5.742  14.821 -0.0838 -0.1807 -1.2352
18741TIP3   OH277637   1.020   2.127  16.983 -0.1284 -0.1591  0.1384
18741TIP3    H177638   0.986   2.062  16.921  0.9435 -0.6639  0.0557
18741TIP3    H277639   1.113   2.134  16.961 -0.2858  1.6919 -0.0985
18742TIP3   OH277640   2.739   1.345   0.741 -0.4385  0.2250  0.7087
18742TIP3    H177641   2.794   1.403   0.792 -0.2494  0.6687  0.0089
18742TIP3    H277642   2.720   1.393   0.661 -1.7142  0.0207  0.8608
18743TIP3   OH277643   3.385   3.253   4.416  0.5314  0.2110 -0.0592
18743TIP3    H177644   3.315   3.252   4.482  0.2742 -0.4303 -0.3284
18743TIP3    H277645   3.441   3.326   4.441  0.0061  0.4576  0.4212
18744TIP3   OH277646   2.496   1.984   3.221 -0.3801 -0.3167  0.7379
18744TIP3    H177647   2.411   1.952   3.192 -0.8211  0.5847  0.9977
18744TIP3    H277648   2.555   1.962   3.149 -0.7075 -1.4296  0.7814
18745TIP3   OH277649   6.250   4.134   3.566  0.5277 -0.4543 -0.5966
18745TIP3    H177650   6.338   4.170   3.559  0.7041 -0.8838 -0.5478
18745TIP3    H277651   6.212   4.179   3.642  0.7037 -0.2809 -0.6084
18746TIP3   OH277652   5.405   4.753  13.474  0.2481  0.0386  0.5148
18746TIP3    H177653   5.388   4.706  13.555 -2.3139 -0.9813 -0.5024
18746TIP3    H277654   5.320   4.755  13.429  1.5554  0.5811 -2.1303
18747TIP3   OH277655   5.044   4.153   2.682 -0.0789 -1.0026 -0.0419
18747TIP3    H177656   5.013   4.077   2.730  1.1340 -2.1065 -0.9395
18747TIP3    H277657   5.095   4.117   2.609  0.7989  0.6665 -0.3111
18748TIP3   OH277658   1.743   4.628   4.810  0.8709  0.0797  0.0813
18748TIP3    H177659   1.779   4.673   4.734  2.5762  0.6403  1.1558
18748TIP3    H277660   1.756   4.690   4.882 -2.5567  0.4382  0.5607
18749TIP3   OH277661   0.855   5.648   6.486  0.0077 -0.1743 -0.2399
18749TIP3    H177662   0.769   5.654   6.528  0.4711 -0.2239  0.7332
18749TIP3    H277663   0.911   5.607   6.551  1.1367  1.2272 -0.2671
18750TIP3   OH277664   0.147   5.444   3.848 -0.0502 -0.0418 -0.0100
18750TIP3    H177665   0.180   5.520   3.801  1.0659 -0.8352 -0.5531
18750TIP3    H277666   0.222   5.412   3.898 -0.8292 -0.0802  1.1713
18751TIP3   OH277667   1.815   5.286  14.803  0.4554 -0.0520 -0.6945
18751TIP3    H177668   1.771   5.278  14.718 -0.2291 -1.9315 -0.2109
18751TIP3    H277669   1.895   5.335  14.783 -0.6906  1.4073 -2.0118
18752TIP3   OH277670   6.218   4.403   2.823  0.6687 -0.4672  0.4579
18752TIP3    H177671   6.227   4.436   2.912 -0.4527  0.8024  0.1340
18752TIP3    H277672   6.216   4.482   2.768 -1.6407 -1.0523 -0.4021
18753TIP3   OH277673   5.148   3.148   5.966  0.4784 -0.4940 -1.1558
18753TIP3    H177674   5.089   3.172   6.037  0.0653 -1.7192 -1.0702
18753TIP3    H277675   5.196   3.072   5.998  0.3107 -1.0519 -2.1570
18754TIP3   OH277676   3.706   3.436   5.415  0.6356 -0.2267 -0.2360
18754TIP3    H177677   3.613   3.456   5.418  0.9990  1.4507  1.6960
18754TIP3    H277678   3.750   3.521   5.422  2.3109 -1.0753  0.1525
18755TIP3   OH277679   1.438   3.948   1.197 -0.3491  0.1167  0.1713
18755TIP3    H177680   1.345   3.926   1.188 -0.7010  1.5681 -0.0449
18755TIP3    H277681   1.445   3.986   1.285  0.2911 -1.0812  0.6534
18756TIP3   OH277682   6.540   2.520  15.247 -0.4840 -0.0293  0.2845
18756TIP3    H177683   6.632   2.520  15.272 -0.5443 -0.2262  0.5101
18756TIP3    H277684   6.515   2.427  15.247 -0.5697 -0.0070 -0.1904
18757TIP3   OH277685   3.575   5.690   5.776  0.8338  0.5592 -0.1774
18757TIP3    H177686   3.534   5.777   5.772 -1.0422 -0.3125 -1.6846
18757TIP3    H277687   3.503   5.631   5.799  2.1299 -0.6084  1.0754
18758TIP3   OH277688   3.793   1.818  11.006  0.5415 -0.1874 -0.6627
18758TIP3    H177689   3.735   1.862  10.943 -0.4352  1.1496  1.0863
18758TIP3    H277690   3.832   1.746  10.956 -0.6671  0.4224 -2.6077
18759TIP3   OH277691   4.056   3.170   6.036 -0.2695  0.0631  0.4474
18759TIP3    H177692   4.102   3.123   6.106 -1.1168 -0.1635  0.8656
18759TIP3    H277693   3.992   3.108   6.003 -1.1867  0.8125  0.7869
18760TIP3   OH277694   5.415   1.052   5.803 -0.4559  0.5389 -0.4582
18760TIP3    H177695   5.484   1.045   5.869 -1.2880 -1.8546  0.2523
18760TIP3    H277696   5.360   1.124   5.834  0.1503  0.6171  0.4815
18761TIP3   OH277697   3.842   0.319   2.603 -0.8033 -0.2282 -0.0159
18761TIP3    H177698   3.749   0.297   2.606 -0.8891 -0.0522 -0.8896
18761TIP3    H277699   3.887   0.236   2.621 -1.1191 -0.1508  1.1923
18762TIP3   OH277700   0.822   2.912  13.385 -0.1786 -0.1914  0.1805
18762TIP3    H177701   0.882   2.979  13.351  0.0133 -2.0889 -3.8224
18762TIP3    H277702   0.878   2.850  13.431 -0.0576  1.0922  1.8735
18763TIP3   OH277703   0.412   2.971  14.956 -0.4173  0.2347 -0.6186
18763TIP3    H177704   0.390   3.049  15.007 -1.8637  0.2722 -1.2579
18763TIP3    H277705   0.471   2.921  15.012  0.9070  1.9886 -0.3749
18764TIP3   OH277706   6.474   3.376  12.187 -0.3015  0.3724 -0.3425
18764TIP3    H177707   6.554   3.352  12.141  0.8695  0.6082  1.4618
18764TIP3    H277708   6.483   3.470  12.204  0.1219 -0.0032  1.7721
18765TIP3   OH277709   2.030   0.185  12.149  0.2384  0.5916 -0.5875
18765TIP3    H177710   2.076   0.205  12.067 -0.1738  0.2459 -0.9023
18765TIP3    H277711   1.963   0.122  12.125  0.8505 -0.4029  0.2220
18766TIP3   OH277712   3.460   3.067   1.276  0.4984 -0.6748  0.2413
18766TIP3    H177713   3.501   3.148   1.247 -0.2788 -0.4085 -0.1354
18766TIP3    H277714   3.379   3.061   1.225  0.5830 -1.7287  0.1968
18767TIP3   OH277715   5.874   0.477   3.870  0.0830  0.1459 -0.2961
18767TIP3    H177716   5.944   0.537   3.845  2.8101 -2.0854  1.4212
18767TIP3    H277717   5.826   0.522   3.940  0.9765  0.9710 -0.2029
18768TIP3   OH277718   6.246   4.817  16.642 -0.0345  0.4198  0.1387
18768TIP3    H177719   6.267   4.870  16.719 -0.5848  0.4790  0.2504
18768TIP3    H277720   6.210   4.880  16.579  1.2005  0.5258 -0.4996
18769TIP3   OH277721   3.480   5.335   0.485  0.5641  0.2716  0.2909
18769TIP3    H177722   3.575   5.328   0.475  0.4873  0.0499 -0.2893
18769TIP3    H277723   3.467   5.425   0.517  0.8919  0.6838 -0.6976
18770TIP3   OH277724   5.495   4.505  10.881 -0.0073 -0.3277 -0.1118
18770TIP3    H177725   5.408   4.544  10.880  0.3003  0.8590  3.6955
18770TIP3    H277726   5.480   4.412  10.862 -1.3427  0.5121 -4.3772
18771TIP3   OH277727   5.859   2.924  14.405 -0.2760  0.0470 -0.4745
18771TIP3    H177728   5.798   2.882  14.465  0.1215 -0.5186 -0.4562
18771TIP3    H277729   5.945   2.892  14.432  0.0115  0.6436 -0.6487
18772TIP3   OH277730   2.200   2.544  12.568 -0.0003 -0.0840  0.1615
18772TIP3    H177731   2.176   2.634  12.547 -0.6050 -0.4249 -0.7056
18772TIP3    H277732   2.292   2.548  12.593  0.3503  0.6005 -1.1565
18773TIP3   OH277733   2.541   5.169  13.908 -0.0197 -0.0732  0.4810
18773TIP3    H177734   2.627   5.205  13.928 -0.4931  1.6198 -0.2891
18773TIP3    H277735   2.524   5.197  13.818 -0.5480 -2.1069 -0.1015
18774TIP3   OH277736   2.960   0.495   5.040  0.2929  0.3971 -0.0957
18774TIP3    H177737   3.003   0.558   5.097  2.7798 -1.4160  0.2233
18774TIP3    H277738   2.953   0.416   5.094 -1.5359 -0.0114 -0.8814
18775TIP3   OH277739   3.784   0.304   1.688  0.4327  0.1116  0.0906
18775TIP3    H177740   3.840   0.362   1.636 -0.2323  1.0048  0.3408
18775TIP3    H277741   3.789   0.340   1.776  0.7227 -0.7695  0.4456
18776TIP3   OH277742   5.629   1.964   5.658 -0.7069  0.3252 -0.8224
18776TIP3    H177743   5.594   2.052   5.673  0.9924  0.7300  1.2005
18776TIP3    H277744   5.597   1.913   5.733  0.7850  0.0403 -0.3514
18777TIP3   OH277745   3.128   1.773   4.065 -0.1150  0.4586 -0.4704
18777TIP3    H177746   3.158   1.819   4.143  1.1892 -2.1372  0.6674
18777TIP3    H277747   3.193   1.794   3.998  1.5846 -1.1497  0.5873
18778TIP3   OH277748   5.921   2.942   3.517  0.5087 -0.1164 -0.0217
18778TIP3    H177749   5.945   3.029   3.548 -0.3343  0.4269 -0.8352
18778TIP3    H277750   5.851   2.958   3.453 -1.2121 -1.4969  1.3839
18779TIP3   OH277751   2.166   3.257   0.594 -0.1657 -0.3082  0.5041
18779TIP3    H177752   2.164   3.289   0.685  2.5090 -0.9972  0.9096
18779TIP3    H277753   2.075   3.237   0.574 -1.5174  3.8134  1.5082
18780TIP3   OH277754   3.111   3.066  15.246  0.6391 -0.0334  0.6384
18780TIP3    H177755   3.057   2.988  15.257 -0.2053  0.5286  0.5872
18780TIP3    H277756   3.178   3.040  15.184  1.0857 -1.0675  1.5160
18781TIP3   OH277757   5.653   6.005  15.890  0.4596  0.2790  0.1173
18781TIP3    H177758   5.579   5.992  15.949 -1.5399 -0.6651 -2.4128
18781TIP3    H277759   5.623   6.073  15.829  0.5689 -1.8561 -2.4973
18782TIP3   OH277760   6.653   6.726   5.752 -0.1311  0.4493 -0.0528
18782TIP3    H177761   6.606   6.646   5.777  0.2097  0.0621 -0.6284
18782TIP3    H277762   6.707   6.747   5.828  1.5338 -1.1858 -0.6950
18783TIP3   OH277763   1.049   4.113   2.635 -0.5796  0.7414 -0.2994
18783TIP3    H177764   1.030   4.165   2.556  0.4332  0.0320 -1.0411
18783TIP3    H277765   1.079   4.177   2.699 -0.2296  1.1927 -0.9023
18784TIP3   OH277766   0.189   2.312   0.149 -0.5106  0.0092  0.1507
18784TIP3    H177767   0.241   2.262   0.212 -0.2758 -0.0985 -0.1280
18784TIP3    H277768   0.218   2.402   0.161  0.5719 -0.1941 -0.7947
18785TIP3   OH277769   6.339   4.161   1.735 -0.2373 -0.3291 -0.7817
18785TIP3    H177770   6.422   4.207   1.742 -1.0033  0.8206  1.8018
18785TIP3    H277771   6.359   4.071   1.760 -0.1622  0.5594  2.8560
18786TIP3   OH277772   0.619   4.086   4.558  0.0410 -0.1407 -0.1796
18786TIP3    H177773   0.664   4.168   4.538  1.9660 -1.0934  0.0552
18786TIP3    H277774   0.626   4.077   4.653 -0.3620 -0.4815 -0.1789
18787TIP3   OH277775   5.101   4.157  15.800  0.1114 -0.5366  0.0578
18787TIP3    H177776   5.038   4.086  15.782 -1.7342  1.0110  0.0316
18787TIP3    H277777   5.106   4.205  15.717  1.0737 -0.4319  0.1739
18788TIP3   OH277778   3.127   1.330   0.860  0.4823 -0.2084  0.2491
18788TIP3    H177779   3.190   1.348   0.930  0.7479 -0.4825  0.0803
18788TIP3    H277780   3.051   1.384   0.882 -0.3746 -2.0167  2.0184
18789TIP3   OH277781   1.288   1.112  15.019  0.1021 -0.1394  0.0405
18789TIP3    H177782   1.368   1.062  15.001 -0.2913 -1.1252  0.9233
18789TIP3    H277783   1.243   1.116  14.935 -0.4556 -2.3876  0.1671
18790TIP3   OH277784   3.166   4.665  16.023  0.4492  0.1034  0.0558
18790TIP3    H177785   3.201   4.716  15.950  1.9062  0.0328  0.6781
18790TIP3    H277786   3.165   4.727  16.096  0.7201 -0.3285  0.4257
18791TIP3   OH277787   3.004   6.696   6.468  0.4239  0.2046 -0.0607
18791TIP3    H177788   3.034   6.615   6.509 -0.4402  0.5662  1.3736
18791TIP3    H277789   2.912   6.703   6.494 -0.1223  0.5535 -1.9840
18792TIP3   OH277790   5.690   3.005   1.296 -0.3154 -0.0290  0.2035
18792TIP3    H177791   5.624   3.055   1.343 -1.2872  2.0703 -3.0986
18792TIP3    H277792   5.754   3.070   1.267  0.8165 -1.3814 -0.4748
18793TIP3   OH277793   3.888   1.712  12.278 -0.5569  0.5736 -0.1769
18793TIP3    H177794   3.931   1.797  12.279 -1.3629  0.9862  1.2026
18793TIP3    H277795   3.878   1.689  12.370  2.1316 -2.3093 -0.4302
18794TIP3   OH277796   2.313   0.139  16.882  0.1387  0.6237 -0.4022
18794TIP3    H177797   2.306   0.072  16.814 -1.1574  0.7387 -0.3967
18794TIP3    H277798   2.369   0.099  16.948 -0.4207 -0.3738 -0.5070
18795TIP3   OH277799   4.115   6.652   0.318  0.2599  0.0174  0.0017
18795TIP3    H177800   4.210   6.637   0.318  0.2956  0.0689 -1.2471
18795TIP3    H277801   4.084   6.609   0.397  1.7641  3.2734  2.5857
18796TIP3   OH277802   5.214   4.324  12.749 -0.4581 -0.5297 -0.8047
18796TIP3    H177803   5.229   4.279  12.666  0.2091 -2.0696  0.0986
18796TIP3    H277804   5.235   4.416  12.731 -1.6168 -0.5882 -2.6518
18797TIP3   OH277805   2.047   1.569   2.328  0.1645  0.3581  0.4290
18797TIP3    H177806   2.030   1.522   2.246  0.2776 -0.2374  0.7457
18797TIP3    H277807   1.979   1.637   2.331  0.1052  0.3271 -0.1134
18798TIP3   OH277808   0.939   4.933   5.165 -0.5224  0.3229 -0.9513
18798TIP3    H177809   0.946   4.838   5.155  0.3504  0.3918 -1.0328
18798TIP3    H277810   0.980   4.969   5.086 -0.3218  0.7755 -0.6468
18799TIP3   OH277811   0.700   1.965   0.138  0.2566  0.5066  0.0353
18799TIP3    H177812   0.716   1.959   0.043  0.8230 -1.8273  0.2012
18799TIP3    H277813   0.614   1.925   0.149  1.1423 -1.3784  0.6591
18800TIP3   OH277814   0.006   2.230  17.383 -0.1250 -0.1966  0.0745
18800TIP3    H177815  -0.071   2.228  17.439 -0.0979  0.4395  0.1395
18800TIP3    H277816   0.079   2.248  17.443 -0.2387  1.7001 -0.2851
18801TIP3   OH277817   6.112   4.777  11.899 -0.3604 -0.2049  0.5186
18801TIP3    H177818   6.117   4.740  11.811  2.7331  0.0537  0.4505
18801TIP3    H277819   6.040   4.840  11.895 -2.1804 -2.2222 -0.9188
18802TIP3   OH277820   0.295   3.312   1.539  0.3560  0.3982  0.0105
18802TIP3    H177821   0.353   3.247   1.580 -0.1678  1.0059  1.8033
18802TIP3    H277822   0.244   3.348   1.612 -2.2288 -0.0232 -1.4581
18803TIP3   OH277823   6.292   5.415   3.479  0.2369 -0.3230  0.1072
18803TIP3    H177824   6.358   5.472   3.438 -0.0979 -0.3989 -0.5473
18803TIP3    H277825   6.210   5.439   3.436 -0.1704 -0.2194  0.9284
18804TIP3   OH277826   6.508   2.605   1.029  0.1184 -0.9071 -0.4573
18804TIP3    H177827   6.580   2.561   0.984  1.1896  1.9811 -1.8151
18804TIP3    H277828   6.439   2.613   0.964 -0.7035 -1.9323  0.2589
18805TIP3   OH277829   1.588   5.386  11.969 -0.3831  0.2085 -0.4945
18805TIP3    H177830   1.549   5.311  12.012 -1.9961  1.3437  0.1399
18805TIP3    H277831   1.559   5.380  11.878 -0.6366  0.1444 -0.4084
18806TIP3   OH277832   1.530   0.106   1.079  0.0955 -0.2511 -0.1435
18806TIP3    H177833   1.514   0.019   1.042  0.6789 -0.3245 -0.2389
18806TIP3    H277834   1.485   0.166   1.019 -1.6024 -0.5746  0.7484
18807TIP3   OH277835   2.939   1.753  12.836 -0.1465 -0.1470  0.0979
18807TIP3    H177836   2.922   1.696  12.761  0.6277  0.0168 -0.2048
18807TIP3    H277837   2.997   1.702  12.893  0.3066  0.2130 -0.0316
18808TIP3   OH277838   3.868   1.166   3.601  0.0925 -0.5491 -0.0865
18808TIP3    H177839   3.956   1.134   3.584  0.2854 -0.6271  0.9663
18808TIP3    H277840   3.810   1.098   3.567  0.3524  0.3230 -2.4825
18809TIP3   OH277841   4.606   2.221   5.341 -0.2173  0.6069 -0.2829
18809TIP3    H177842   4.553   2.297   5.363 -0.5750  0.4437 -0.5668
18809TIP3    H277843   4.678   2.257   5.287 -0.7524  0.6584 -0.9757
18810TIP3   OH277844   6.307   3.518   0.168 -0.1496 -0.2880  0.1919
18810TIP3    H177845   6.273   3.496   0.081 -2.2086 -0.3108  0.9553
18810TIP3    H277846   6.237   3.567   0.210  1.3606  0.9861  1.3650
18811TIP3   OH277847   5.794   5.112  14.384  0.3540  0.3010  0.2336
18811TIP3    H177848   5.810   5.092  14.292 -0.1257  1.2887 -0.0770
18811TIP3    H277849   5.809   5.029  14.430  1.5899  0.0345 -0.6050
18812TIP3   OH277850   0.243   0.408  13.058 -0.0045 -0.1011  0.0168
18812TIP3    H177851   0.303   0.481  13.073  1.7604 -1.6355  0.8162
18812TIP3    H277852   0.299   0.331  13.055 -1.5445 -1.2714 -2.9179
18813TIP3   OH277853   3.347   2.435   1.482  0.2200  0.1902 -0.0367
18813TIP3    H177854   3.406   2.504   1.451 -0.9433  1.1371 -0.2268
18813TIP3    H277855   3.401   2.356   1.482  1.3101  0.8969 -0.8096
18814TIP3   OH277856   5.595   4.309  13.910 -0.3938 -0.5045  0.5881
18814TIP3    H177857   5.535   4.360  13.856  1.9545 -0.0755 -1.8231
18814TIP3    H277858   5.566   4.218  13.900 -0.7736 -0.2851 -0.3800
18815TIP3   OH277859   5.575   3.300   0.675 -0.3925  0.2519 -0.1728
18815TIP3    H177860   5.605   3.291   0.585  0.0472  0.3537 -0.0417
18815TIP3    H277861   5.481   3.285   0.671 -0.2126 -0.8936 -0.4750
18816TIP3   OH277862   5.465   5.604   5.066  0.0000  0.5801 -0.1455
18816TIP3    H177863   5.388   5.647   5.029 -2.8950 -2.3441  2.0558
18816TIP3    H277864   5.477   5.526   5.012  0.2398  0.0387  0.6803
18817TIP3   OH277865   6.351   4.147   3.874  0.4149  0.5674 -0.3043
18817TIP3    H177866   6.392   4.076   3.826  1.9571  1.9705 -1.1502
18817TIP3    H277867   6.341   4.113   3.963  0.8968 -0.7620 -0.7329
18818TIP3   OH277868   1.406   0.033   6.232 -0.3622 -0.0184  0.1213
18818TIP3    H177869   1.385   0.115   6.276 -0.5724 -0.5363  1.0333
18818TIP3    H277870   1.405  -0.032   6.302  0.2181 -0.7317 -0.5139
18819TIP3   OH277871   4.050   1.117   5.248  0.3192  0.0566  0.2620
18819TIP3    H177872   4.013   1.167   5.175  0.6642  0.5017  0.3883
18819TIP3    H277873   4.110   1.055   5.207  2.1286  1.7135  0.2809
18820TIP3   OH277874   0.746   5.179  10.610 -0.0572  0.6319  0.2382
18820TIP3    H177875   0.820   5.230  10.578  0.3915  1.3094  2.1881
18820TIP3    H277876   0.725   5.218  10.695 -1.3657 -0.8249  0.6371
18821TIP3   OH277877   6.490   6.653  17.116  0.1121 -0.1517 -0.0310
18821TIP3    H177878   6.506   6.559  17.123 -0.8478 -0.1941  3.5916
18821TIP3    H277879   6.417   6.660  17.055  0.5301 -1.7012 -0.7604
18822TIP3   OH277880   4.158   3.560  11.158 -0.2961 -0.8722  0.3944
18822TIP3    H177881   4.135   3.559  11.065 -0.9037  1.4598  0.4778
18822TIP3    H277882   4.239   3.611  11.162 -2.1882  2.3466  1.4306
18823TIP3   OH277883   4.484   1.778   1.300  0.2294 -0.2719  0.1780
18823TIP3    H177884   4.406   1.738   1.338 -0.8822  1.4133 -0.2530
18823TIP3    H277885   4.470   1.775   1.205  0.7434 -0.0619  0.0896
18824TIP3   OH277886   5.307   2.313  13.239 -0.4580  0.1610 -0.4605
18824TIP3    H177887   5.304   2.366  13.159 -0.5238  0.7796 -0.0601
18824TIP3    H277888   5.400   2.304  13.258 -0.4120 -0.6979 -1.0607
18825TIP3   OH277889   6.545   6.587   0.397 -0.1938  0.8514  0.4213
18825TIP3    H177890   6.608   6.595   0.469 -0.7613  0.3337  0.9852
18825TIP3    H277891   6.504   6.501   0.410 -0.7245  1.0075 -0.1746
18826TIP3   OH277892   4.409   4.049   2.828 -0.0542 -0.4497  0.0835
18826TIP3    H177893   4.354   4.038   2.906 -2.1525  1.9891 -0.8796
18826TIP3    H277894   4.346   4.046   2.755  1.8767 -3.0832 -1.6670
18827TIP3   OH277895   1.001   5.604   4.953 -0.4832  0.0603  0.4867
18827TIP3    H177896   0.943   5.646   5.016 -0.4671 -0.2209  0.6891
18827TIP3    H277897   1.058   5.675   4.922 -1.0450  0.3725  0.1572
18828TIP3   OH277898   3.694   3.912  13.341 -0.7414  0.2873 -0.2335
18828TIP3    H177899   3.785   3.942  13.349 -1.1511  1.1662  1.5447
18828TIP3    H277900   3.672   3.878  13.428 -2.4569  1.1150 -0.2992
18829TIP3   OH277901   2.249   6.506   2.150  0.7566 -0.3661  0.5089
18829TIP3    H177902   2.225   6.498   2.058  0.7698 -0.3465  0.5038
18829TIP3    H277903   2.327   6.452   2.159  1.2482  0.2923  0.3231
18830TIP3   OH277904   3.952   1.581   0.830 -0.6627  0.1047 -0.2199
18830TIP3    H177905   3.912   1.495   0.820 -1.2208  0.5104 -1.6960
18830TIP3    H277906   4.018   1.569   0.899 -1.1073 -1.3550 -0.0211
18831TIP3   OH277907   2.480   3.451   0.162 -0.1821 -0.4272  0.4423
18831TIP3    H177908   2.476   3.526   0.222 -1.2570  0.6935 -0.9748
18831TIP3    H277909   2.573   3.434   0.151  0.0583  0.1236  1.4803
18832TIP3   OH277910   3.418   5.543  17.140  0.0538 -0.8255  0.4294
18832TIP3    H177911   3.331   5.504  17.148  0.7483 -2.6080 -0.1224
18832TIP3    H277912   3.468   5.480  17.087  1.5231  0.4117  0.2596
18833TIP3   OH277913   3.654   1.985   0.765 -0.3354  0.1863  0.5840
18833TIP3    H177914   3.660   1.891   0.782 -0.9770  0.2501  1.2057
18833TIP3    H277915   3.561   2.001   0.748 -0.6265  1.0429  2.6499
18834TIP3   OH277916   5.354   1.203   0.105 -0.1340 -0.0180 -0.0226
18834TIP3    H177917   5.388   1.118   0.079  1.5593  1.2225 -2.1249
18834TIP3    H277918   5.431   1.252   0.133 -1.0265  0.9943  0.7199
18835TIP3   OH277919   2.692   0.292   4.139 -1.0496  0.1102 -0.0364
18835TIP3    H177920   2.682   0.207   4.097 -0.2806 -0.3898  0.7614
18835TIP3    H277921   2.659   0.355   4.075 -1.8322 -0.7977 -0.5493
18836TIP3   OH277922   5.324   0.085  14.290 -0.3057  0.0413  0.2397
18836TIP3    H177923   5.240   0.108  14.250 -0.0059 -1.2708 -1.2554
18836TIP3    H277924   5.314  -0.007  14.315  1.0101 -0.4877 -0.9993
18837TIP3   OH277925   5.529   0.125   3.846 -0.0811  0.1163 -0.0897
18837TIP3    H177926   5.558   0.200   3.795 -0.8033  0.4808  0.0285
18837TIP3    H277927   5.524   0.158   3.936 -1.3174  0.2066 -0.1717
18838TIP3   OH277928   0.600   3.064   3.423  0.1336 -0.1931  0.4838
18838TIP3    H177929   0.559   2.980   3.446 -0.0084 -0.4526 -0.6692
18838TIP3    H277930   0.598   3.067   3.328 -1.1757  1.7897  0.5196
18839TIP3   OH277931   3.510   2.600   3.473 -0.2360 -0.6823 -0.3336
18839TIP3    H177932   3.538   2.510   3.492 -1.0337 -0.4446  2.3401
18839TIP3    H277933   3.506   2.643   3.559 -1.8205  1.3381 -1.3294
18840TIP3   OH277934   0.534   2.604   2.973 -0.3306  0.5210 -0.7292
18840TIP3    H177935   0.578   2.621   3.056  0.3269 -0.7307 -0.7817
18840TIP3    H277936   0.441   2.609   2.993 -0.3392 -2.9283  0.9512
18841TIP3   OH277937   3.695   1.031   3.383  0.1662  0.5631  0.0256
18841TIP3    H177938   3.713   1.108   3.328  1.1156  0.4012  0.0861
18841TIP3    H277939   3.777   0.981   3.380 -0.6855 -0.8443 -0.6321
18842TIP3   OH277940   3.849   4.310  15.855  0.1546 -0.7932 -0.1869
18842TIP3    H177941   3.928   4.278  15.811  0.7746  0.7453 -0.2703
18842TIP3    H277942   3.804   4.362  15.788  0.1662  0.0666  0.4577
18843TIP3   OH277943   3.584   5.152  16.895  0.2503 -0.2190  0.2414
18843TIP3    H177944   3.649   5.125  16.960  0.9336 -1.1381 -0.7933
18843TIP3    H277945   3.579   5.247  16.904 -0.4091 -0.3914  2.3044
18844TIP3   OH277946   6.037   1.903  14.361  0.0531  0.1705  0.1481
18844TIP3    H177947   6.100   1.956  14.313  1.6276 -1.8956 -0.2078
18844TIP3    H277948   6.086   1.825  14.386 -1.3769  0.0724  3.0496
18845TIP3   OH277949   1.371   0.040   1.584 -0.0159  0.3138 -0.1655
18845TIP3    H177950   1.438   0.046   1.515  1.7149  1.9617  1.5426
18845TIP3    H277951   1.329   0.126   1.584 -0.9323 -0.1200 -0.0094
18846TIP3   OH277952   6.239   5.900  16.983 -0.3993 -0.2669 -0.0216
18846TIP3    H177953   6.306   5.910  16.916  2.1547  1.2057  2.5393
18846TIP3    H277954   6.223   5.806  16.987  2.4993 -0.8342  0.1247
18847TIP3   OH277955   1.197   1.507   4.630 -1.2973 -0.4951  0.9740
18847TIP3    H177956   1.205   1.587   4.681 -0.3415  0.6762 -0.9083
18847TIP3    H277957   1.286   1.488   4.600 -2.0062 -0.1324 -1.6110
18848TIP3   OH277958   2.140   4.466   2.297 -0.3422  0.1743  0.4889
18848TIP3    H177959   2.074   4.516   2.249  0.4934  0.3813 -0.4568
18848TIP3    H277960   2.091   4.391   2.333 -1.2619  0.7888  0.5448
18849TIP3   OH277961   6.101   6.460  13.237 -0.2457 -0.1844  0.7884
18849TIP3    H177962   6.008   6.484  13.239 -0.2843 -0.3196  0.6310
18849TIP3    H277963   6.145   6.531  13.283 -0.3425  0.2910  0.1626
18850TIP3   OH277964   2.474   1.319   4.174 -0.0432 -1.1605 -0.2077
18850TIP3    H177965   2.441   1.340   4.262 -3.1069 -0.0653 -1.4736
18850TIP3    H277966   2.451   1.227   4.161 -1.5156 -0.7680 -0.5710
18851TIP3   OH277967   6.618   0.741   4.142 -0.7033  0.7223 -0.0873
18851TIP3    H177968   6.601   0.777   4.229  2.3305  1.9706  0.1112
18851TIP3    H277969   6.545   0.771   4.089 -1.4679  1.8688  1.5167
18852TIP3   OH277970   5.079   4.890  16.390 -0.3617  0.6639  0.1964
18852TIP3    H177971   5.127   4.962  16.350  2.4397 -1.8017 -1.1759
18852TIP3    H277972   5.119   4.879  16.476  0.2414 -0.1356 -0.1724
18853TIP3   OH277973   6.649   4.036   1.329  0.1310 -0.3167 -0.4413
18853TIP3    H177974   6.707   3.999   1.262  0.6085 -0.5465  0.0912
18853TIP3    H277975   6.623   3.961   1.382 -2.6775 -0.6838 -2.0975
18854TIP3   OH277976   1.063   4.222  12.473  0.2569  0.1509  0.4756
18854TIP3    H177977   1.059   4.230  12.568  0.1939 -1.4973  0.6358
18854TIP3    H277978   1.003   4.150  12.452 -0.8591  1.3997 -0.9646
18855TIP3   OH277979   0.919   1.578   1.047  0.1937  0.3520  0.4510
18855TIP3    H177980   0.930   1.544   1.136 -1.6921  1.9549  1.3768
18855TIP3    H277981   0.974   1.656   1.043 -0.1823  0.6215  0.4332
18856TIP3   OH277982   0.370   6.690  13.288  0.0975 -0.2376 -0.6967
18856TIP3    H177983   0.288   6.660  13.328  0.5014 -0.0567  0.2917
18856TIP3    H277984   0.436   6.677  13.356  0.6785  0.7230 -1.0635
18857TIP3   OH277985   2.114   4.021  11.386  0.2790 -0.0680  0.1063
18857TIP3    H177986   2.075   3.951  11.440  0.7327  1.5260  2.7077
18857TIP3    H277987   2.201   3.989  11.363  1.2109  0.1937  2.8147
18858TIP3   OH277988   0.597   3.186  13.612  0.1264 -0.7913 -0.1004
18858TIP3    H177989   0.590   3.138  13.694 -0.8883 -0.1007  0.2398
18858TIP3    H277990   0.636   3.270  13.636  1.8106 -1.3859 -0.6751
18859TIP3   OH277991   3.501   1.339   5.995  0.6491  0.0612 -0.5204
18859TIP3    H177992   3.412   1.375   5.994  0.4036 -0.4490  0.9862
18859TIP3    H277993   3.502   1.279   6.069  1.7905 -1.1746 -1.4842
18860TIP3   OH277994   2.658   4.778   5.902  0.4882 -0.6004 -0.3304
18860TIP3    H177995   2.587   4.770   5.839 -0.3926 -0.1655  0.5924
18860TIP3    H277996   2.714   4.847   5.866  0.8712 -1.4555 -1.4333
18861TIP3   OH277997   3.466   0.343   6.435 -0.2891  0.3036 -0.2866
18861TIP3    H177998   3.403   0.413   6.417  0.6091  0.8928 -1.2742
18861TIP3    H277999   3.420   0.263   6.411 -0.6539  0.7303 -1.0638
18862TIP3   OH278000   5.813   6.351  15.317  0.5330  0.3648 -0.3963
18862TIP3    H178001   5.887   6.308  15.275  1.0244 -0.5993  1.4026
18862TIP3    H278002   5.750   6.281  15.334  0.2795  0.7664  0.3508
18863TIP3   OH278003   1.328   5.497  14.787 -0.4285 -0.3569 -0.6192
18863TIP3    H178004   1.354   5.501  14.879 -1.1947 -0.2345 -0.3965
18863TIP3    H278005   1.347   5.407  14.760  1.8628  0.1720 -0.9993
18864TIP3   OH278006   3.372   4.745   6.126  0.0725 -0.5603 -0.2113
18864TIP3    H178007   3.464   4.737   6.101  0.1830  0.2505 -0.1055
18864TIP3    H278008   3.361   4.683   6.198  0.3425 -1.2020 -0.7104
18865TIP3   OH278009   3.537   5.043  11.677 -0.0536 -0.3843  0.5366
18865TIP3    H178010   3.521   5.136  11.689  1.9335  0.3127 -1.4551
18865TIP3    H278011   3.458   5.000  11.710 -0.5811  1.8884  2.5134
18866TIP3   OH278012   5.577   5.942  15.503  0.0636 -0.2838  0.1665
18866TIP3    H178013   5.510   5.942  15.572 -0.8233 -1.0550 -0.6713
18866TIP3    H278014   5.599   5.850  15.491 -1.5153 -0.4090 -2.2004
18867TIP3   OH278015   3.589   4.668  16.021 -0.0655 -0.0464 -0.5477
18867TIP3    H178016   3.555   4.639  16.105  1.2979 -1.6153 -0.4936
18867TIP3    H278017   3.515   4.659  15.961 -0.7698  0.1577  0.2763
18868TIP3   OH278018   0.054   3.528  16.796  0.4258 -0.0741  0.1908
18868TIP3    H178019   0.087   3.447  16.835 -0.4379 -0.8684 -0.6920
18868TIP3    H278020   0.128   3.563  16.747  0.4488 -1.0325 -0.4986
18869TIP3   OH278021   6.753   5.072  12.101 -0.3792 -0.2015  0.1508
18869TIP3    H178022   6.680   5.011  12.091 -0.7013  0.3884 -1.5807
18869TIP3    H278023   6.722   5.153  12.060  1.2838  0.0039 -0.7900
18870TIP3   OH278024   1.646   1.648   5.080 -0.4702  0.1251 -0.3016
18870TIP3    H178025   1.731   1.606   5.094 -1.0646 -1.2847 -0.7521
18870TIP3    H278026   1.665   1.720   5.021  0.4617  0.0237 -0.1498
18871TIP3   OH278027   3.825   1.239  15.137  0.1731  0.4480 -0.9551
18871TIP3    H178028   3.912   1.227  15.175  1.0991  0.0457 -3.0297
18871TIP3    H278029   3.822   1.332  15.114  0.6229  0.2071 -2.0723
18872TIP3   OH278030   0.040   4.010  13.224 -0.0556 -0.4631 -0.3027
18872TIP3    H178031   0.010   3.931  13.180  1.5673 -0.5267 -1.3669
18872TIP3    H278032   0.089   4.058  13.157  1.4461  0.0275  1.0688
18873TIP3   OH278033   1.820   6.253  15.342  0.2007 -0.1933  0.2061
18873TIP3    H178034   1.840   6.215  15.257  1.0977  0.0301  0.3068
18873TIP3    H278035   1.725   6.256  15.346  0.1566  0.7985 -1.2365
18874TIP3   OH278036   5.595   2.742   1.532  0.4386  0.3471  0.1344
18874TIP3    H178037   5.576   2.836   1.529 -1.8012 -0.0418  0.5647
18874TIP3    H278038   5.526   2.705   1.586  0.4713 -1.7320 -1.1417
18875TIP3   OH278039   5.119   3.765  11.036 -0.0413  0.2059 -0.3189
18875TIP3    H178040   5.143   3.801  11.122  1.5588  0.5228 -0.8654
18875TIP3    H278041   5.093   3.842  10.985 -0.7601  0.0448 -0.2087
18876TIP3   OH278042   4.488   2.374  16.001  0.3377  0.2642  0.2429
18876TIP3    H178043   4.468   2.451  15.949 -0.0035  0.7221  1.0331
18876TIP3    H278044   4.429   2.379  16.076 -0.6110 -1.4582 -0.3321
18877TIP3   OH278045   3.901   2.104  17.048  0.2086  0.0827  0.7456
18877TIP3    H178046   3.919   2.049  16.972  3.1360 -1.3245  2.3053
18877TIP3    H278047   3.834   2.057  17.097  1.4180 -1.2897  1.1631
18878TIP3   OH278048   3.501   0.529   1.700 -0.4066 -0.2458 -0.2857
18878TIP3    H178049   3.512   0.434   1.711 -0.9278 -0.1241  1.9430
18878TIP3    H278050   3.549   0.567   1.774 -1.0522  1.1561 -0.5502
18879TIP3   OH278051   2.450   0.751  15.018  0.5027  0.1306 -0.4466
18879TIP3    H178052   2.392   0.822  14.992 -0.6855 -0.7625 -0.2804
18879TIP3    H278053   2.495   0.727  14.937  1.0523  1.1613 -0.4743
18880TIP3   OH278054   3.250   0.522   6.464 -1.5692  0.0433 -0.1841
18880TIP3    H178055   3.163   0.552   6.440 -1.2009  0.9533 -0.4301
18880TIP3    H278056   3.295   0.601   6.494 -0.8151 -0.4071 -0.1022
18881TIP3   OH278057   6.252   6.204  16.883  0.5965  0.3054  0.6263
18881TIP3    H178058   6.242   6.155  16.964 -0.8004 -0.2005  0.1762
18881TIP3    H278059   6.293   6.142  16.822 -2.6370 -1.0032 -0.4443
18882TIP3   OH278060   6.228   1.851  16.397 -0.3542 -0.3148 -0.4929
18882TIP3    H178061   6.258   1.768  16.360 -0.1909 -0.8291  0.7338
18882TIP3    H278062   6.283   1.863  16.475 -0.7811  0.6498 -0.3334
18883TIP3   OH278063   6.345   4.536   1.969 -0.1228  0.0233  0.1788
18883TIP3    H178064   6.368   4.617   2.014  5.1509 -1.7684  1.4524
18883TIP3    H278065   6.391   4.541   1.885 -1.8914 -0.6617 -0.8884
18884TIP3   OH278066   3.830   3.007  10.717  0.1835  0.1836 -0.0653
18884TIP3    H178067   3.913   2.998  10.763  1.4322  0.4152 -2.1596
18884TIP3    H278068   3.819   3.101  10.704 -0.5967  0.1808  0.4528
18885TIP3   OH278069   3.088   2.470   4.329  0.1560  0.3879  0.5040
18885TIP3    H178070   3.133   2.392   4.299 -1.1263 -0.7898  1.4829
18885TIP3    H278071   3.144   2.505   4.398  1.4611  1.2161 -0.9194
18886TIP3   OH278072   5.234   2.142   2.949  0.1463  0.0980  0.4038
18886TIP3    H178073   5.259   2.168   3.037  1.0189  2.3710 -0.4287
18886TIP3    H278074   5.317   2.136   2.901 -0.3355 -0.6399 -0.3752
18887TIP3   OH278075   5.279   4.943   2.985  0.0878  0.3660  0.5330
18887TIP3    H178076   5.189   4.912   2.977  0.1267  0.5375 -0.6803
18887TIP3    H278077   5.329   4.890   2.924  0.8670  0.0986  1.3872
18888TIP3   OH278078   0.452   2.690  17.138  0.3718 -0.2050 -0.6268
18888TIP3    H178079   0.487   2.640  17.065  2.3851 -1.1738  0.8765
18888TIP3    H278080   0.525   2.746  17.165 -0.5110  0.5433  0.2889
18889TIP3   OH278081   5.517   3.609   0.211 -0.6147 -0.2889  0.4344
18889TIP3    H178082   5.543   3.699   0.234 -0.7579  0.3253 -1.6315
18889TIP3    H278083   5.523   3.606   0.116 -0.6891 -2.4807  0.4678
18890TIP3   OH278084   3.901   6.715  12.579 -0.0929  0.6378  0.6830
18890TIP3    H178085   3.831   6.682  12.524  0.8310 -0.3094  0.0362
18890TIP3    H278086   3.869   6.706  12.668 -0.5282 -0.4416  0.4291
18891TIP3   OH278087   4.561   3.304  17.328  0.4836 -0.5127  0.1206
18891TIP3    H178088   4.593   3.228  17.280 -0.8521 -0.6336 -0.6173
18891TIP3    H278089   4.574   3.282  17.420  1.1147 -1.1612 -0.1158
18892TIP3   OH278090   4.307   1.895   0.315  0.4975 -0.1499  0.8626
18892TIP3    H178091   4.369   1.967   0.307 -0.2054  0.2998 -1.1787
18892TIP3    H278092   4.236   1.930   0.369 -1.4010  1.9946 -2.6462
18893TIP3   OH278093   3.274   0.590   2.792  0.0747 -0.2191  0.3341
18893TIP3    H178094   3.361   0.565   2.760  0.4846  1.2083  0.2379
18893TIP3    H278095   3.272   0.686   2.782 -0.9885 -0.0808  1.6163
18894TIP3   OH278096   3.708   0.424  12.850  0.2394 -0.0584  0.3427
18894TIP3    H178097   3.799   0.403  12.828 -0.4822 -1.4102 -1.6469
18894TIP3    H278098   3.668   0.339  12.870 -0.8544  0.3846  0.1036
18895TIP3   OH278099   4.220   6.476  10.994  0.4440  0.0685 -0.3337
18895TIP3    H178100   4.290   6.417  11.022 -0.4842 -2.1817 -2.3869
18895TIP3    H278101   4.260   6.532  10.927  0.7794  0.2330  0.0024
18896TIP3   OH278102   4.025   6.442  14.831 -0.8269  0.5601  0.1048
18896TIP3    H178103   4.087   6.425  14.760 -1.2121  0.5049 -0.2232
18896TIP3    H278104   3.997   6.355  14.860 -2.0073  0.5998 -0.8703
18897TIP3   OH278105   0.565   3.094  17.383  0.6312 -0.1024  0.2325
18897TIP3    H178106   0.648   3.135  17.406  0.6362 -0.4455  0.8595
18897TIP3    H278107   0.518   3.087  17.466 -1.0707  2.3284 -0.4263
18898TIP3   OH278108   1.528   2.701   3.298 -0.0040 -0.0347 -0.2030
18898TIP3    H178109   1.521   2.714   3.393  0.9826  1.2292 -0.2680
18898TIP3    H278110   1.457   2.755   3.262  1.0126  1.3326 -0.2506
18899TIP3   OH278111   4.331   3.581  16.442 -0.5226 -0.5003 -0.2324
18899TIP3    H178112   4.376   3.626  16.514 -0.1508 -2.3069  0.7163
18899TIP3    H278113   4.336   3.488  16.464 -1.9479 -0.9904 -1.7305
18900TIP3   OH278114   0.392   0.693  14.945 -0.3235  0.7491 -0.1851
18900TIP3    H178115   0.388   0.689  14.850 -0.3278  1.4657 -0.2173
18900TIP3    H278116   0.332   0.763  14.969 -1.5114 -0.4326  0.4517
18901TIP3   OH278117   1.097   2.476   6.154 -0.2397  0.0401 -0.5128
18901TIP3    H178118   1.116   2.558   6.200  0.7869 -0.8712  0.7680
18901TIP3    H278119   1.105   2.498   6.061 -0.3900  1.4749 -0.2068
18902TIP3   OH278120   3.927   6.482   2.372  0.7452 -1.0260  0.4470
18902TIP3    H178121   3.901   6.552   2.312  0.4229 -0.0666  1.6586
18902TIP3    H278122   3.924   6.402   2.320 -1.8437 -0.5703 -0.2007
18903TIP3   OH278123   5.845   3.415  14.210 -0.5347  0.7754 -0.4420
18903TIP3    H178124   5.797   3.377  14.284  0.1745  1.5959  0.4548
18903TIP3    H278125   5.906   3.346  14.184 -1.8646 -0.1164 -1.3177
18904TIP3   OH278126   5.192   1.033   0.336 -0.2580  0.1297 -0.3118
18904TIP3    H178127   5.269   1.086   0.317 -0.0860 -0.1517 -0.4024
18904TIP3    H278128   5.125   1.096   0.363 -0.1660  0.4275 -0.7711
18905TIP3   OH278129   6.020   0.156  14.905 -0.3985  0.3357 -0.6478
18905TIP3    H178130   5.987   0.077  14.863  2.1631 -0.5541 -1.1748
18905TIP3    H278131   5.998   0.227  14.844  0.6992 -0.5431 -2.1380
18906TIP3   OH278132   5.634   1.340  13.933  0.6324 -0.2218  0.3614
18906TIP3    H178133   5.705   1.300  13.984  1.3659  1.4632  0.7320
18906TIP3    H278134   5.621   1.426  13.973  0.6458  0.8286 -1.7545
18907TIP3   OH278135   2.872   4.175  13.864  0.2640  0.3507 -0.2247
18907TIP3    H178136   2.967   4.189  13.860  0.4193 -0.5412  0.0220
18907TIP3    H278137   2.837   4.224  13.790  1.1981 -1.4500 -1.9893
18908TIP3   OH278138   3.147   2.397   3.583 -0.7252  0.3585 -0.6504
18908TIP3    H178139   3.111   2.308   3.579  0.1301 -0.2963  3.0720
18908TIP3    H278140   3.101   2.438   3.656  2.7677  0.9837  1.4154
18909TIP3   OH278141   1.023   6.158   5.607 -0.4147  0.5313  0.5399
18909TIP3    H178142   0.964   6.142   5.680 -2.1419  0.1357 -0.8873
18909TIP3    H278143   1.062   6.073   5.588 -2.6410 -0.2175 -1.1666
18910TIP3   OH278144   2.417   3.451   3.452  0.5676  0.6534  0.1791
18910TIP3    H178145   2.366   3.502   3.388 -0.6428  0.0135  0.5939
18910TIP3    H278146   2.457   3.381   3.401  0.5596  0.8190 -0.0579
18911TIP3   OH278147   4.637   4.900   3.848  0.2732 -0.7014  0.3140
18911TIP3    H178148   4.706   4.847   3.808 -0.4837 -1.8581  0.4946
18911TIP3    H278149   4.618   4.968   3.783  2.6937  0.6651  0.9277
18912TIP3   OH278150   5.462   5.926  13.138  0.6131 -0.4605  0.3048
18912TIP3    H178151   5.435   5.953  13.050  0.4312 -1.4522  0.0442
18912TIP3    H278152   5.466   5.831  13.133  1.1850 -0.4873  1.2112
18913TIP3   OH278153   5.381   5.978  16.678  0.0406 -0.7382 -0.0581
18913TIP3    H178154   5.403   6.008  16.590 -1.0089 -0.4001 -0.2144
18913TIP3    H278155   5.286   5.972  16.679  0.0360 -0.7586  1.0511
18914TIP3   OH278156   5.768   4.956   6.298  0.4307 -0.4385 -0.1580
18914TIP3    H178157   5.738   4.865   6.309 -0.1246 -0.1004  1.3173
18914TIP3    H278158   5.862   4.948   6.282  0.4790 -1.2470  0.4543
18915TIP3   OH278159   3.481   1.589  13.342  0.1134 -0.8253 -0.5352
18915TIP3    H178160   3.488   1.579  13.247 -2.6639 -1.9694 -0.7224
18915TIP3    H278161   3.495   1.501  13.376  1.5519 -0.3391  0.1962
18916TIP3   OH278162   5.953   0.538  13.821  0.6470 -0.0075 -0.0231
18916TIP3    H178163   6.015   0.515  13.890 -0.2636 -2.0168  0.2033
18916TIP3    H278164   5.934   0.630  13.836  3.5952  0.7270 -0.1765
18917TIP3   OH278165   1.330   6.723  13.046 -0.0728  0.4221  0.1385
18917TIP3    H178166   1.325   6.818  13.038 -0.6635  0.4121  0.3895
18917TIP3    H278167   1.424   6.704  13.040 -0.0822  0.8007 -2.1905
18918TIP3   OH278168   2.417   4.368  16.899 -0.1463 -0.9677 -0.1383
18918TIP3    H178169   2.511   4.375  16.884 -0.2218 -1.0141 -0.6420
18918TIP3    H278170   2.379   4.358  16.812 -0.7623  0.6942 -0.1094
18919TIP3   OH278171   1.136   5.852  13.468  0.1345 -0.1379 -0.1322
18919TIP3    H178172   1.111   5.916  13.401  0.7284  0.2100 -0.0295
18919TIP3    H278173   1.145   5.904  13.548  0.0683 -0.4471  0.0786
18920TIP3   OH278174   1.596   0.198   3.892 -0.5930 -0.1859  0.4039
18920TIP3    H178175   1.630   0.190   3.981 -0.8462  0.4301  0.5626
18920TIP3    H278176   1.521   0.257   3.901 -0.9379 -0.5423 -0.1345
18921TIP3   OH278177   4.854   6.140   1.417  0.6031 -1.1094  0.1787
18921TIP3    H178178   4.788   6.071   1.428 -0.4465 -0.2206 -0.3579
18921TIP3    H278179   4.804   6.217   1.391  1.5393  0.3165  2.3047
18922TIP3   OH278180   5.935   4.105  16.510  0.3409 -0.3525  0.0649
18922TIP3    H178181   5.964   4.147  16.429  1.8511 -0.3575  0.5674
18922TIP3    H278182   5.873   4.168  16.548 -1.4846 -0.9621 -1.7195
18923TIP3   OH278183   4.280   3.193   1.538  0.3063  0.3883 -0.5065
18923TIP3    H178184   4.277   3.277   1.491 -0.3154  0.6579  0.0082
18923TIP3    H278185   4.198   3.190   1.587 -0.1504 -0.9881 -1.3154
18924TIP3   OH278186   0.970   2.823  14.504  0.2960 -0.3195 -0.5095
18924TIP3    H178187   0.940   2.751  14.560 -0.6778  0.6062  0.1885
18924TIP3    H278188   0.964   2.788  14.415  0.2688 -1.2548 -0.1540
18925TIP3   OH278189   1.689   6.357  15.774 -0.1037  0.2980  0.4020
18925TIP3    H178190   1.779   6.363  15.741 -0.2451  1.6355  0.1762
18925TIP3    H278191   1.637   6.334  15.696  0.0269 -0.3446  0.5043
18926TIP3   OH278192   0.862   6.280   4.871 -0.3621 -0.1571  0.2027
18926TIP3    H178193   0.781   6.329   4.882 -1.0304 -1.4892  1.5889
18926TIP3    H278194   0.836   6.188   4.882  1.0229 -0.7618 -1.2060
18927TIP3   OH278195   5.207   1.447  11.360  0.0419 -0.2065  0.4741
18927TIP3    H178196   5.295   1.465  11.392  0.5832 -0.6243 -0.7420
18927TIP3    H278197   5.164   1.533  11.357  0.4762  0.0241  0.8491
18928TIP3   OH278198   5.964   6.745  15.175 -0.2022  0.3132  0.2849
18928TIP3    H178199   5.958   6.725  15.082 -0.9184 -0.2125  0.4341
18928TIP3    H278200   5.900   6.687  15.216  1.0159 -0.3883  1.2579
18929TIP3   OH278201   5.526   0.835   1.395  0.0966  0.2104 -0.6898
18929TIP3    H178202   5.553   0.917   1.437 -1.6406  1.7972 -2.4898
18929TIP3    H278203   5.593   0.820   1.327  0.9519 -0.4404  0.2671
18930TIP3   OH278204   2.945   3.045   4.945 -0.1226  0.2463  0.2788
18930TIP3    H178205   2.913   3.076   5.030 -0.6106 -0.0226  0.1994
18930TIP3    H278206   2.926   3.118   4.885 -2.1350 -0.5104 -0.0956
18931TIP3   OH278207   1.923   4.094  16.371 -0.1703 -0.9061 -0.2941
18931TIP3    H178208   1.871   4.157  16.320  0.6466 -0.3976 -0.5096
18931TIP3    H278209   1.860   4.026  16.395 -0.6627 -0.9544 -1.6452
18932TIP3   OH278210   5.795   2.909  12.694  0.0720 -0.3304  0.0405
18932TIP3    H178211   5.725   2.896  12.629  0.4788 -0.7769 -0.3219
18932TIP3    H278212   5.775   2.994  12.734 -0.1156  0.0182 -0.7639
18933TIP3   OH278213   6.446   2.983   2.726 -0.4042 -0.2705 -0.4703
18933TIP3    H178214   6.396   3.050   2.679 -0.0720 -0.7871 -1.5787
18933TIP3    H278215   6.407   2.982   2.814 -2.1600 -0.4498 -1.2046
18934TIP3   OH278216   4.115   6.502  12.288 -0.2734 -0.6992 -0.5058
18934TIP3    H178217   4.078   6.590  12.284 -0.0746 -0.6344 -0.9247
18934TIP3    H278218   4.209   6.515  12.302  0.1940 -0.7600 -3.1016
18935TIP3   OH278219   1.290   2.415  11.068  0.0357 -0.3557  0.7077
18935TIP3    H178220   1.195   2.406  11.066  0.2051 -3.2224  1.2568
18935TIP3    H278221   1.307   2.501  11.029 -2.6441 -0.8566 -1.9351
18936TIP3   OH278222   6.038   4.081  13.316 -0.8334 -0.0026 -0.1176
18936TIP3    H178223   5.980   4.150  13.283 -0.4681 -0.3380 -1.5259
18936TIP3    H278224   5.995   4.050  13.396 -2.5036 -0.1133 -1.0161
18937TIP3   OH278225   4.680   4.617  15.059  0.3685  0.8613  0.2576
18937TIP3    H178226   4.768   4.645  15.084  0.8233  0.6083 -0.9731
18937TIP3    H278227   4.625   4.639  15.135  1.2834  2.0445  0.6085
18938TIP3   OH278228   2.729   3.106  16.829  0.2041 -0.0670  0.1288
18938TIP3    H178229   2.664   3.170  16.857  1.2607  0.7518  0.7977
18938TIP3    H278230   2.781   3.088  16.907  1.2458 -0.1321 -0.5450
18939TIP3   OH278231   0.288   1.277  13.728  0.1705  0.6043  0.6452
18939TIP3    H178232   0.376   1.254  13.699 -0.5197  1.1353 -2.1922
18939TIP3    H278233   0.268   1.213  13.797  2.9282  0.8359  1.7886
18940TIP3   OH278234   5.049   5.746  13.855 -0.2920 -0.8913  0.2629
18940TIP3    H178235   4.999   5.728  13.775  0.6415 -0.2952 -0.4825
18940TIP3    H278236   4.996   5.809  13.903  0.2763  0.7053 -1.1141
18941TIP3   OH278237   6.028   2.700  14.750  0.3136  0.7611  0.0094
18941TIP3    H178238   6.057   2.655  14.670  1.0180 -0.0900  0.7145
18941TIP3    H278239   6.110   2.729  14.792  0.2160 -1.4035  1.8886
18942TIP3   OH278240   2.382   1.918   4.111 -0.2749  0.2387 -0.5207
18942TIP3    H178241   2.293   1.892   4.085 -0.4876  2.1331 -1.9265
18942TIP3    H278242   2.437   1.893   4.037  0.2767 -0.2859  0.0512
18943TIP3   OH278243   0.043   4.606  13.746  0.1272 -0.1559  0.3663
18943TIP3    H178244   0.055   4.656  13.827  2.1657 -0.3131  0.2063
18943TIP3    H278245   0.101   4.647  13.683  0.3703 -1.5121 -0.3309
18944TIP3   OH278246   6.651   4.686  12.628 -0.7355 -0.0061  0.1992
18944TIP3    H178247   6.559   4.690  12.654 -0.8808  1.0421 -0.4287
18944TIP3    H278248   6.657   4.603  12.579 -2.1708  1.3526 -2.5615
18945TIP3   OH278249   1.042   0.910  16.373 -0.3088 -0.1038 -0.3645
18945TIP3    H178250   0.996   0.944  16.297 -3.1984  0.5156  1.5110
18945TIP3    H278251   1.019   0.817  16.376 -0.0786 -0.1604 -0.3226
18946TIP3   OH278252   3.008   1.825   1.392 -0.5548 -0.2287 -0.0228
18946TIP3    H178253   3.044   1.907   1.425 -0.2605 -0.4650  0.2465
18946TIP3    H278254   2.948   1.852   1.322 -1.0334  0.2689  0.5625
18947TIP3   OH278255   4.907   0.128   4.468 -0.1646 -0.2078 -0.2000
18947TIP3    H178256   4.859   0.206   4.442  0.7829  0.2335 -0.6493
18947TIP3    H278257   4.954   0.100   4.389  1.0774 -0.0674  0.4598
18948TIP3   OH278258   1.993   3.264  15.517  0.0607 -0.2444 -0.1320
18948TIP3    H178259   2.005   3.251  15.424 -1.4172  0.0466 -0.4017
18948TIP3    H278260   2.030   3.186  15.558  0.0961 -0.7037 -1.0178
18949TIP3   OH278261   2.191   6.296  14.081  0.0015 -0.5770 -0.3505
18949TIP3    H178262   2.184   6.232  14.152 -0.3846  0.0983  0.2361
18949TIP3    H278263   2.133   6.367  14.108 -0.6443 -0.5855 -1.6641
18950TIP3   OH278264   0.939   0.837  13.665 -0.7299  0.2371  0.2043
18950TIP3    H178265   0.909   0.921  13.632 -1.4853 -0.0454  0.1514
18950TIP3    H278266   0.916   0.838  13.758 -1.7398 -0.3228 -0.0130
18951TIP3   OH278267   2.752   3.255  11.824  0.7080  0.1620 -0.4751
18951TIP3    H178268   2.703   3.185  11.866 -2.6819  0.5375 -3.3099
18951TIP3    H278269   2.751   3.233  11.731  0.6559  3.2482 -1.3254
18952TIP3   OH278270   4.892   1.048  14.944  0.8361  0.2910 -0.4842
18952TIP3    H178271   4.892   1.088  14.857  1.4157 -0.1955 -0.7163
18952TIP3    H278272   4.903   0.954  14.928 -0.0504  0.0699  0.0737
18953TIP3   OH278273   1.619   5.345   1.542 -0.2343  0.2007 -0.2417
18953TIP3    H178274   1.644   5.368   1.453 -0.9802 -0.2263 -0.5722
18953TIP3    H278275   1.576   5.260   1.534 -0.8183  0.4186  0.4430
18954TIP3   OH278276   5.561   3.169  12.781  0.6141  0.4977  0.4529
18954TIP3    H178277   5.572   3.218  12.700  2.3885 -1.4460 -0.5662
18954TIP3    H278278   5.649   3.160  12.817  0.0034  0.3029  1.9795
18955TIP3   OH278279   3.920   2.375   0.782 -0.0657  0.1720  0.4633
18955TIP3    H178280   3.825   2.376   0.770 -0.3251 -3.1344  1.3322
18955TIP3    H278281   3.944   2.467   0.787 -3.0947  1.1528 -0.5695
18956TIP3   OH278282   3.601   4.724   2.019  0.2240  0.3982  0.1015
18956TIP3    H178283   3.581   4.817   2.008  1.9632  0.9691  1.3158
18956TIP3    H278284   3.679   4.709   1.966 -0.6457 -0.6428 -0.9190
18957TIP3   OH278285   3.118   2.356   0.148  0.2560  0.0506 -0.1727
18957TIP3    H178286   3.107   2.381   0.056 -0.4835 -2.6203 -0.9050
18957TIP3    H278287   3.046   2.401   0.193  0.4556  1.1766 -0.9198
18958TIP3   OH278288   5.156   3.315   5.737 -0.3281 -0.2677 -0.2752
18958TIP3    H178289   5.103   3.378   5.785  0.7799  1.5437 -1.3162
18958TIP3    H278290   5.171   3.244   5.799  1.9376  2.3911  2.5517
18959TIP3   OH278291   4.274   6.326  10.713  0.2088 -0.7265  0.2030
18959TIP3    H178292   4.317   6.273  10.646 -0.4565 -1.5545  0.4144
18959TIP3    H278293   4.335   6.325  10.787  0.9526  0.2038 -0.3714
18960TIP3   OH278294   5.955   2.298  16.966 -0.0558  0.1089 -0.3025
18960TIP3    H178295   5.864   2.316  16.943 -0.0743  2.1466  1.1403
18960TIP3    H278296   5.952   2.272  17.058  0.9076  1.8247  0.2683
18961TIP3   OH278297   4.778   4.137   6.435  0.2559 -0.6913  0.2214
18961TIP3    H178298   4.831   4.210   6.404  1.4730 -1.8350 -0.5240
18961TIP3    H278299   4.752   4.162   6.523 -0.6269  1.2782 -0.5396
18962TIP3   OH278300   0.476   4.248   5.779  0.1138 -0.3093 -0.2622
18962TIP3    H178301   0.497   4.287   5.864 -1.0025  0.3424 -0.2686
18962TIP3    H278302   0.547   4.277   5.721 -0.4778  1.4537 -0.1702
18963TIP3   OH278303   2.414   6.245   5.157 -0.1087  0.2107  0.4910
18963TIP3    H178304   2.460   6.297   5.090  2.3962  1.6538  3.1216
18963TIP3    H278305   2.338   6.298   5.180 -1.6062 -0.7765 -1.7639
18964TIP3   OH278306   4.180   3.673  14.044 -0.5045 -0.1289 -0.0895
18964TIP3    H178307   4.262   3.703  14.004 -0.2975  1.1570  1.2193
18964TIP3    H278308   4.133   3.629  13.972 -0.4009  2.5291 -1.9116
18965TIP3   OH278309   4.413   0.696   0.662  0.3333  0.6309 -0.2006
18965TIP3    H178310   4.428   0.623   0.723 -0.5254  0.5657 -0.0578
18965TIP3    H278311   4.489   0.753   0.674  2.0028 -1.1270 -1.6446
18966TIP3   OH278312   5.462   0.691   6.781 -0.1362  0.0972 -0.3053
18966TIP3    H178313   5.368   0.708   6.780 -0.3279 -0.7005 -2.5873
18966TIP3    H278314   5.501   0.769   6.742  0.2939  0.8511  1.5333
18967TIP3   OH278315   1.915   3.157  16.612 -0.1091 -0.0334  0.1974
18967TIP3    H178316   1.886   3.102  16.685 -0.3119 -0.9264 -0.5258
18967TIP3    H278317   1.988   3.208  16.647 -1.2232  0.7519  1.4719
18968TIP3   OH278318   2.571   6.715  13.466  0.7983  0.1449 -0.0566
18968TIP3    H178319   2.660   6.689  13.442  0.2213 -2.6988  0.5837
18968TIP3    H278320   2.517   6.687  13.391 -0.0306 -2.0131  1.2498
18969TIP3   OH278321   2.606   1.653  11.627  0.1482  0.4273  0.6877
18969TIP3    H178322   2.568   1.644  11.715 -0.5161 -0.5643  0.3194
18969TIP3    H278323   2.631   1.564  11.603 -0.9963  0.4506 -0.6907
18970TIP3   OH278324   2.849   5.966   1.120  0.0323  0.3765  0.4385
18970TIP3    H178325   2.927   5.994   1.071  0.7743  0.9770  1.8834
18970TIP3    H278326   2.853   5.870   1.118  1.0632  0.3961  0.8592
18971TIP3   OH278327   1.696   6.489   2.785  0.0435 -0.1006 -0.0393
18971TIP3    H178328   1.662   6.567   2.741 -0.8587  0.0863  0.9310
18971TIP3    H278329   1.688   6.419   2.720  0.7108  0.5722 -0.8673
18972TIP3   OH278330   0.034   1.381  12.902 -0.2788 -0.1056  0.2926
18972TIP3    H178331   0.019   1.467  12.862  1.4140 -0.3612 -0.9616
18972TIP3    H278332   0.097   1.399  12.972 -3.1987  0.3394  3.0340
18973TIP3   OH278333   5.211   2.276  13.654 -0.0764 -0.0489 -0.1234
18973TIP3    H178334   5.207   2.332  13.577  0.2079  0.8611  0.5098
18973TIP3    H278335   5.176   2.192  13.624 -0.1286  0.3365 -1.1930
18974TIP3   OH278336   2.665   2.664  13.856  0.4623 -0.1005 -0.1789
18974TIP3    H178337   2.717   2.735  13.895  0.2556  1.4000 -2.4349
18974TIP3    H278338   2.731   2.602  13.823  0.6608 -0.6421  1.1737
18975TIP3   OH278339   1.573   2.893   3.975  0.1247  0.4630  0.2496
18975TIP3    H178340   1.534   2.891   4.062  0.5467  0.2233  0.4374
18975TIP3    H278341   1.513   2.944   3.922  0.4262  1.5701  0.9597
18976TIP3   OH278342   0.449   5.542   4.235  0.6403  0.0353 -0.5353
18976TIP3    H178343   0.428   5.634   4.217  2.9886  0.7731  0.0836
18976TIP3    H278344   0.542   5.535   4.214  0.5526 -2.1764 -0.3823
18977TIP3   OH278345   3.685   5.153  15.429  0.8389  0.2642  0.0813
18977TIP3    H178346   3.625   5.097  15.477 -0.8402  1.7339 -0.2146
18977TIP3    H278347   3.740   5.193  15.496  1.0373 -0.5416  0.4160
18978TIP3   OH278348   3.323   0.743   0.394 -0.4683  0.3348 -0.0830
18978TIP3    H178349   3.321   0.839   0.388 -0.1260  0.2690 -3.1140
18978TIP3    H278350   3.400   0.718   0.344 -1.8721 -1.5558 -1.4721
18979TIP3   OH278351   4.679   4.042  15.791 -0.4843 -0.2984  0.0440
18979TIP3    H178352   4.696   4.136  15.791  0.2444 -0.3743  2.0047
18979TIP3    H278353   4.766   4.002  15.788 -0.7024 -0.8704  0.9840
18980TIP3   OH278354   6.349   3.487  13.025  0.9002  0.5190 -0.7964
18980TIP3    H178355   6.355   3.457  12.935 -0.1239 -0.6576 -0.4977
18980TIP3    H278356   6.431   3.459  13.066  0.6536 -0.4294 -0.9451
18981TIP3   OH278357   4.402   3.252   5.941 -0.0146  0.1795 -0.6996
18981TIP3    H178358   4.488   3.215   5.923  0.5034  2.1720 -2.8084
18981TIP3    H278359   4.342   3.203   5.885 -0.3544 -1.3033  0.8727
18982TIP3   OH278360   5.445   4.315   3.523 -0.0334 -0.1956  0.0830
18982TIP3    H178361   5.515   4.368   3.485  0.5005 -0.3920  0.7756
18982TIP3    H278362   5.474   4.296   3.611 -0.6763 -0.8180  0.1724
18983TIP3   OH278363   1.335   0.549   0.452 -0.0148  0.5789  0.0028
18983TIP3    H178364   1.293   0.463   0.456  1.2128  0.0024  1.3295
18983TIP3    H278365   1.321   0.578   0.362 -2.4436  0.0549  0.1230
18984TIP3   OH278366   3.090   4.848  17.339  0.4993  0.2327 -0.4744
18984TIP3    H178367   3.002   4.881  17.318  0.1401  0.3116  1.0865
18984TIP3    H278368   3.103   4.776  17.276 -1.4702 -1.0302  0.4432
18985TIP3   OH278369   4.273   5.125   3.521  0.0066 -0.0927  0.0213
18985TIP3    H178370   4.309   5.158   3.438 -0.6056  1.2974  0.2755
18985TIP3    H278371   4.347   5.124   3.581  0.1124  0.5474 -0.0866
18986TIP3   OH278372   1.339   6.627   2.076  0.0065 -0.3982 -0.3241
18986TIP3    H178373   1.391   6.657   2.150  0.3708 -2.9285  0.5307
18986TIP3    H278374   1.397   6.634   2.000  0.3993  0.0620  0.0204
18987TIP3   OH278375   4.414   3.695  11.196 -0.2958  0.3877  0.1835
18987TIP3    H178376   4.454   3.698  11.283  1.0448  0.4671 -0.4135
18987TIP3    H278377   4.405   3.786  11.170  0.9104  0.3434 -0.4519
18988TIP3   OH278378   0.120   3.134  11.689  0.1014 -0.1193 -0.5186
18988TIP3    H178379   0.092   3.131  11.598  0.4326 -0.0695 -0.6253
18988TIP3    H278380   0.171   3.054  11.701  1.6383  0.7609 -0.9109
18989TIP3   OH278381   1.538   5.589  15.251 -0.4208  0.2241  0.2537
18989TIP3    H178382   1.553   5.536  15.330  0.3031  0.8599  0.5610
18989TIP3    H278383   1.604   5.658  15.257 -0.2223  0.1590 -1.0200
18990TIP3   OH278384   6.324   2.335   0.341  0.8201 -0.0274 -0.1420
18990TIP3    H178385   6.247   2.278   0.341  0.1269  0.8593 -0.6591
18990TIP3    H278386   6.371   2.311   0.261  3.1562 -3.1386  1.9475
18991TIP3   OH278387   5.534   2.806  16.112  0.1920  0.2776 -0.5758
18991TIP3    H178388   5.626   2.816  16.136  0.3237  0.1277 -0.9982
18991TIP3    H278389   5.509   2.720  16.147 -0.0419  0.7016  0.3081
18992TIP3   OH278390   3.138   1.452   4.575  0.1382  0.3161  0.2583
18992TIP3    H178391   3.084   1.527   4.599  1.5583  0.8607  1.9863
18992TIP3    H278392   3.112   1.431   4.485 -3.0369  0.3987  1.0312
18993TIP3   OH278393   4.050   2.911   0.281 -0.0721  0.1922  0.6958
18993TIP3    H178394   3.992   2.988   0.277 -0.4311 -0.0872  0.4525
18993TIP3    H278395   4.104   2.918   0.202 -2.1963 -1.4235 -1.0377
18994TIP3   OH278396   1.819   6.256  12.725  0.0839 -0.2715  0.1499
18994TIP3    H178397   1.776   6.202  12.658 -0.2609 -1.1259  1.0390
18994TIP3    H278398   1.913   6.245  12.707  0.0024 -0.6591 -0.0727
18995TIP3   OH278399   5.121   1.868   4.546 -0.3185  0.2454  0.3565
18995TIP3    H178400   5.068   1.915   4.610  0.0931  1.4185 -0.1332
18995TIP3    H278401   5.175   1.936   4.506 -0.0798 -0.5761 -0.7516
18996TIP3   OH278402   4.144   0.697   6.014  0.0524  0.1824  0.4211
18996TIP3    H178403   4.072   0.751   6.046 -0.4631  0.8986 -1.8008
18996TIP3    H278404   4.215   0.711   6.078 -1.1419  0.8999  1.6412
18997TIP3   OH278405   0.044   3.242  14.114 -0.0845 -0.4802  0.4963
18997TIP3    H178406   0.010   3.330  14.096 -0.5369  0.2614  4.1197
18997TIP3    H278407   0.034   3.195  14.032 -3.8258  1.6073 -0.4643
18998TIP3   OH278408   5.335   6.740  12.611  0.7213 -0.1815  0.4115
18998TIP3    H178409   5.409   6.785  12.571 -0.1280  0.8183 -0.0989
18998TIP3    H278410   5.288   6.808  12.660 -0.0368 -0.7218  0.4699
18999TIP3   OH278411   4.369   2.167  13.331 -0.5251  0.6660  0.3579
18999TIP3    H178412   4.373   2.071  13.335 -1.2397  0.4273 -2.4896
18999TIP3    H278413   4.399   2.196  13.417  2.3053 -2.0336  0.4609
19000TIP3   OH278414   3.833   6.132  11.752  0.2774  0.4154 -0.6130
19000TIP3    H178415   3.820   6.164  11.841 -0.2440  1.0352 -0.9104
19000TIP3    H278416   3.910   6.075  11.759  0.0475  0.1869  0.2972
19001TIP3   OH278417   2.176   3.172  14.758  0.3182  0.2492  0.3831
19001TIP3    H178418   2.089   3.197  14.787  0.4641  0.4136  0.6773
19001TIP3    H278419   2.210   3.117  14.828  0.1848 -0.3913 -0.0411
19002TIP3   OH278420   0.746   5.242   0.965 -0.1593  0.3098 -0.5955
19002TIP3    H178421   0.716   5.230   0.874 -0.1075 -1.8712 -0.3800
19002TIP3    H278422   0.744   5.154   1.002  2.2129  0.7774  0.7876
19003TIP3   OH278423   3.739   4.443  16.454  0.4793  0.1985  0.3755
19003TIP3    H178424   3.709   4.534  16.442  3.1125  1.1428  0.2861
19003TIP3    H278425   3.674   4.404  16.513 -0.4460  2.2952  0.8357
19004TIP3   OH278426   6.690   0.714   0.694 -0.0481 -1.0168 -0.1536
19004TIP3    H178427   6.750   0.788   0.692 -1.2436  0.0493  1.1294
19004TIP3    H278428   6.733   0.650   0.750 -0.7207  0.3781  2.0745
19005TIP3   OH278429   1.654   4.750   5.406  0.7938  0.2346 -0.3045
19005TIP3    H178430   1.574   4.752   5.458  0.9138 -0.6070 -0.0853
19005TIP3    H278431   1.648   4.828   5.350 -0.3229  0.0048 -0.5178
19006TIP3   OH278432   5.374   5.603  13.060 -0.2836 -0.3198 -0.3310
19006TIP3    H178433   5.344   5.512  13.068  1.1531 -0.7771  0.1889
19006TIP3    H278434   5.425   5.618  13.140  1.1807  0.2797 -1.3526
19007TIP3   OH278435   4.155   2.526  15.651  0.6669 -0.0502 -0.0868
19007TIP3    H178436   4.109   2.521  15.735  2.1963 -0.5074  0.7545
19007TIP3    H278437   4.185   2.436  15.634 -0.6926 -0.2448 -1.7777
19008TIP3   OH278438   5.237   5.013   4.615  0.0837 -0.2743 -0.8455
19008TIP3    H178439   5.166   5.042   4.673 -0.2166  0.5752 -1.6007
19008TIP3    H278440   5.256   4.924   4.643  0.0992  0.1844  0.6897
19009TIP3   OH278441   0.793   2.730   0.525  0.2103 -0.1405  0.4932
19009TIP3    H178442   0.825   2.761   0.440 -1.9775  2.9092  0.6053
19009TIP3    H278443   0.757   2.644   0.506  0.1145  0.2988 -1.6383
19010TIP3   OH278444   2.724   0.223   2.497  0.0989  0.2908 -0.5838
19010TIP3    H178445   2.772   0.285   2.442  1.4149  0.0587  0.2428
19010TIP3    H278446   2.660   0.277   2.544  2.0289  1.3166  1.0490
19011TIP3   OH278447   4.954   0.661  16.999 -0.0318 -0.0583 -0.1290
19011TIP3    H178448   4.902   0.581  17.009  0.2053 -0.1706  0.2287
19011TIP3    H278449   4.989   0.678  17.086 -0.1234  0.4669 -0.1928
19012TIP3   OH278450   2.346   4.902  11.158 -0.1277 -0.5165 -0.4655
19012TIP3    H178451   2.441   4.887  11.154  0.0777  0.9080 -1.4510
19012TIP3    H278452   2.337   4.997  11.167 -1.4496 -0.7423  1.1529
19013TIP3   OH278453   2.099   3.008  11.193 -0.1662 -0.9999 -0.0292
19013TIP3    H178454   2.061   2.947  11.256  0.6524 -0.3643  1.1322
19013TIP3    H278455   2.118   2.955  11.116 -0.1026 -2.0585  0.7002
19014TIP3   OH278456   3.212   6.292   2.392 -0.1817 -0.2284 -0.0955
19014TIP3    H178457   3.269   6.307   2.467 -0.3746 -1.1671  0.2563
19014TIP3    H278458   3.171   6.377   2.376  2.5572  0.9553 -1.4636
19015TIP3   OH278459   0.336   2.433   1.068  0.0253  0.0209 -0.2492
19015TIP3    H178460   0.327   2.368   1.138 -2.9996 -0.6779 -1.1122
19015TIP3    H278461   0.358   2.514   1.114  1.5924 -1.1043  1.0956
19016TIP3   OH278462   6.005   2.860  15.908 -0.7394 -0.1528 -0.5097
19016TIP3    H178463   6.051   2.876  15.991 -0.2029 -1.9674 -0.3975
19016TIP3    H278464   6.028   2.769  15.886 -3.6272 -0.8654 -0.8943
19017TIP3   OH278465   3.885   2.252   5.334 -0.1019 -0.1911  0.0219
19017TIP3    H178466   3.858   2.296   5.254  0.4096 -0.7929 -0.4942
19017TIP3    H278467   3.842   2.301   5.404  0.2590  0.9865 -0.5419
19018TIP3   OH278468   0.899   5.549   5.410 -0.1692  0.3605  0.3778
19018TIP3    H178469   0.990   5.519   5.415 -0.3047  0.0803  1.4661
19018TIP3    H278470   0.847   5.474   5.439 -0.9532 -0.2955 -2.4142
19019TIP3   OH278471   5.715   5.780  13.151  0.0645 -0.2733  0.1988
19019TIP3    H178472   5.667   5.719  13.207  0.3988 -2.0496 -1.3496
19019TIP3    H278473   5.647   5.833  13.109 -0.2506  0.1914  1.2429
19020TIP3   OH278474   1.023   1.114   0.769 -0.0447  0.1876 -0.4157
19020TIP3    H178475   0.974   1.188   0.804 -0.0736  0.2733 -0.6332
19020TIP3    H278476   1.112   1.148   0.758 -0.2967  0.5327 -1.5455
19021TIP3   OH278477   3.051   3.216  12.575 -0.3921 -0.5152 -0.2459
19021TIP3    H178478   3.019   3.304  12.555  3.1944  1.3564  1.3007
19021TIP3    H278479   3.014   3.197  12.661  1.4091  1.0997  0.9828
19022TIP3   OH278480   4.377   3.102  16.680 -0.3557  0.3422  0.1301
19022TIP3    H178481   4.355   3.139  16.766 -0.5285  0.8393 -0.1291
19022TIP3    H278482   4.463   3.063  16.692 -0.3899  0.3852  0.5371
19023TIP3   OH278483   6.661   3.454  14.821  0.0190  0.3355  0.0582
19023TIP3    H178484   6.657   3.365  14.855  1.2008  0.2315 -0.0669
19023TIP3    H278485   6.737   3.455  14.763 -0.4538  1.2115 -0.5800
19024TIP3   OH278486   6.021   4.564   0.310  0.5563  0.0234  0.0307
19024TIP3    H178487   6.058   4.630   0.252  0.6386 -1.3000 -1.4948
19024TIP3    H278488   6.076   4.568   0.389  0.4379  1.8561  0.0516
19025TIP3   OH278489   1.336   0.353  14.798  0.0380 -0.0842 -0.0794
19025TIP3    H178490   1.317   0.260  14.784 -0.6652 -0.7265  3.7563
19025TIP3    H278491   1.253   0.397  14.780  0.6715  0.0695 -3.0266
19026TIP3   OH278492   5.375   1.298   6.194  0.2060 -0.2245 -0.2244
19026TIP3    H178493   5.282   1.280   6.196 -0.0230  0.6297 -1.5532
19026TIP3    H278494   5.392   1.350   6.273 -0.5320 -0.0275 -0.1902
19027TIP3   OH278495   6.590   2.194  17.088 -0.5180 -0.5095 -0.0628
19027TIP3    H178496   6.560   2.233  17.170 -1.3923  0.1005 -0.6535
19027TIP3    H278497   6.681   2.171  17.104 -0.3597  0.6125  0.7225
19028TIP3   OH278498   2.286   6.687   0.259  0.3237  0.4708  0.2267
19028TIP3    H178499   2.324   6.601   0.239 -2.4993 -0.4349 -1.9825
19028TIP3    H278500   2.340   6.749   0.209 -0.9312 -0.7699 -2.9177
19029TIP3   OH278501   2.582   3.001   1.429 -0.4203  0.1515  0.0732
19029TIP3    H178502   2.659   3.000   1.486 -1.1044  0.2193  1.0150
19029TIP3    H278503   2.569   2.910   1.404 -0.7967 -0.0406  0.9579
19030TIP3   OH278504   5.118   6.133   5.605  0.0306 -0.6760 -0.3520
19030TIP3    H178505   5.092   6.095   5.521 -0.2981 -0.7902 -0.2014
19030TIP3    H278506   5.208   6.161   5.592 -0.5330  0.8397 -1.2798
19031TIP3   OH278507   0.989   5.644   3.155  0.6255  0.6105 -0.1526
19031TIP3    H178508   1.044   5.593   3.095  3.1735  2.5839  0.3614
19031TIP3    H278509   0.901   5.637   3.117  1.4779 -1.2066 -2.0334
19032TIP3   OH278510   4.391   5.199   3.240 -0.0257  0.5057 -0.0629
19032TIP3    H178511   4.396   5.160   3.152 -1.6253 -2.1752  0.8922
19032TIP3    H278512   4.350   5.284   3.226 -1.5788 -0.4395 -1.8479
19033TIP3   OH278513   6.337   0.925  12.809 -0.3649  0.1702  0.6257
19033TIP3    H178514   6.331   0.839  12.769  2.4308 -0.2975  1.0256
19033TIP3    H278515   6.275   0.979  12.760 -0.7943 -1.5911 -0.8614
19034TIP3   OH278516   1.500   3.884   2.432 -0.0121 -0.1058 -0.2899
19034TIP3    H178517   1.529   3.807   2.481 -0.0327  1.0717  1.6523
19034TIP3    H278518   1.432   3.923   2.487  1.6639  2.6391 -0.0246
19035TIP3   OH278519   3.043   2.322   6.429 -0.0945  0.1233 -0.3875
19035TIP3    H178520   3.081   2.244   6.468 -3.0552 -1.1686  0.1383
19035TIP3    H278521   2.985   2.358   6.496  0.0364  1.9316 -1.1691
19036TIP3   OH278522   3.622   3.129  14.859  0.3093  0.3505 -0.1635
19036TIP3    H178523   3.677   3.099  14.786  1.8180  1.0760  0.6320
19036TIP3    H278524   3.558   3.187  14.819  1.3073  0.9805 -0.8835
19037TIP3   OH278525   1.152   3.214   6.277 -0.1519 -0.0718 -0.2047
19037TIP3    H178526   1.199   3.173   6.350  0.1848  0.6268 -0.0172
19037TIP3    H278527   1.119   3.140   6.225 -1.1767 -0.5812  1.1358
19038TIP3   OH278528   0.062   3.590   5.180  0.1992  0.6835  0.1250
19038TIP3    H178529   0.123   3.529   5.222  0.8153  0.2197 -1.3725
19038TIP3    H278530   0.086   3.676   5.213  0.9232  0.3764  0.4095
19039TIP3   OH278531   0.839   6.552  13.374  0.2285 -0.3680  0.0652
19039TIP3    H178532   0.831   6.608  13.296  1.1425  0.1394  0.3308
19039TIP3    H278533   0.920   6.579  13.415 -0.3567 -0.4826  1.3362
19040TIP3   OH278534   3.176   5.445  13.157 -0.6574 -0.4966 -0.3772
19040TIP3    H178535   3.208   5.513  13.098 -2.0372  0.5552  0.0321
19040TIP3    H278536   3.172   5.366  13.103  0.5626 -0.1627 -0.9796
19041TIP3   OH278537   1.705   0.685   2.037  0.4806 -0.4541  0.1921
19041TIP3    H178538   1.739   0.699   1.949 -1.8372  0.6243 -0.6283
19041TIP3    H278539   1.637   0.618   2.026 -1.2549  1.1353  0.7187
19042TIP3   OH278540   2.966   2.587   2.850 -0.2309 -0.4533  0.0150
19042TIP3    H178541   2.968   2.493   2.867  0.1334 -0.3262  0.7515
19042TIP3    H278542   3.017   2.625   2.923  0.0798  0.2663 -0.5656
19043TIP3   OH278543   1.733   0.003  14.127 -0.4459  0.1369 -0.3142
19043TIP3    H178544   1.770   0.033  14.045  0.1627 -1.1720 -0.5454
19043TIP3    H278545   1.751  -0.091  14.129 -0.3360  0.1530  1.3702
19044TIP3   OH278546   3.046   1.483  11.353  0.4660  0.4547  0.4343
19044TIP3    H178547   3.089   1.527  11.279 -1.0831  1.4450  0.0826
19044TIP3    H278548   3.116   1.470  11.417  1.3249  1.8998 -0.1636
19045TIP3   OH278549   6.347   4.906  10.303  0.1788  0.5656  0.0324
19045TIP3    H178550   6.380   4.924  10.216 -0.9772 -0.0333 -0.5551
19045TIP3    H278551   6.405   4.838  10.337  0.7207  0.9040 -0.1993
19046TIP3   OH278552   4.748   5.069  17.244 -0.7361 -0.0528  0.3582
19046TIP3    H178553   4.654   5.084  17.235 -0.2907  3.0950 -0.2113
19046TIP3    H278554   4.763   5.057  17.338 -1.5852  0.3178  0.5408
19047TIP3   OH278555   4.434   4.472   5.658 -0.8024  0.4732 -0.2958
19047TIP3    H178556   4.426   4.547   5.717 -0.5034  1.1364 -1.0654
19047TIP3    H278557   4.485   4.407   5.706 -0.7315  0.9224  0.2389
19048TIP3   OH278558   0.883   0.903   3.460 -0.1308  0.6575 -0.5246
19048TIP3    H178559   0.946   0.931   3.526  0.2429 -0.1911 -0.5104
19048TIP3    H278560   0.862   0.813   3.483 -0.3198  0.4911 -1.3168
19049TIP3   OH278561   2.665   1.549  16.733  0.6282 -0.2078 -0.2223
19049TIP3    H178562   2.700   1.466  16.764 -0.7229 -0.8660 -0.4009
19049TIP3    H278563   2.709   1.615  16.786  0.1251 -1.1599  1.4484
19050TIP3   OH278564   5.209   6.631   6.560  0.2047 -0.1034 -0.0590
19050TIP3    H178565   5.240   6.675   6.480 -2.3107 -0.8508 -1.5675
19050TIP3    H278566   5.214   6.698   6.628  0.3776  1.2391 -1.3454
19051TIP3   OH278567   0.115   0.171  14.754  0.2838 -0.1632  0.2851
19051TIP3    H178568   0.176   0.156  14.826 -1.1841 -0.4622  1.5102
19051TIP3    H278569   0.034   0.199  14.796 -0.1535  1.2355 -1.3587
19052TIP3   OH278570   6.685   4.740  11.478 -0.6922 -0.2245  0.0084
19052TIP3    H178571   6.698   4.808  11.412 -0.3126 -0.5130 -0.2151
19052TIP3    H278572   6.656   4.788  11.556 -0.1108  0.2390 -0.0493
19053TIP3   OH278573   4.847   4.703  12.982  0.5859  0.5604 -0.6711
19053TIP3    H178574   4.756   4.675  12.975  0.4534  0.9046 -0.4143
19053TIP3    H278575   4.898   4.627  12.957  0.2238  0.3702 -0.8359
19054TIP3   OH278576   2.151   2.418   4.333  0.7179  0.4711  0.9723
19054TIP3    H178577   2.112   2.435   4.247  0.0972 -1.2209  0.8758
19054TIP3    H278578   2.218   2.352   4.317 -0.5913 -1.1978  1.9687
19055TIP3   OH278579   4.376   1.615  14.272  0.1960 -0.4207  0.3733
19055TIP3    H178580   4.414   1.682  14.215 -0.5028  1.4168  1.9127
19055TIP3    H278581   4.302   1.580  14.222 -0.6363  1.4147  0.1915
19056TIP3   OH278582   0.924   5.441  10.692 -0.0440 -0.2403 -0.4388
19056TIP3    H178583   0.958   5.369  10.640 -2.2211 -1.1696 -0.6873
19056TIP3    H278584   0.838   5.460  10.654 -0.3957  1.1176  0.9087
19057TIP3   OH278585   3.218   2.656  13.503 -0.0569  0.0955  0.1434
19057TIP3    H178586   3.270   2.737  13.500  0.2170 -0.1012 -1.0483
19057TIP3    H278587   3.130   2.685  13.523  0.2768  0.5643  0.9635
19058TIP3   OH278588   0.780   0.148  12.114 -0.5569 -0.0563 -0.0184
19058TIP3    H178589   0.742   0.231  12.143  2.1459  0.3496  2.7751
19058TIP3    H278590   0.736   0.081  12.167 -0.2146 -0.0064  0.3330
19059TIP3   OH278591   4.117   6.159  12.248  0.0094 -0.7353  0.5568
19059TIP3    H178592   4.055   6.179  12.177  0.8437 -0.5809 -0.1459
19059TIP3    H278593   4.062   6.134  12.322 -1.1035  2.7652  1.0773
19060TIP3   OH278594   6.619   3.487  16.410 -0.0848 -0.3505 -0.5200
19060TIP3    H178595   6.664   3.551  16.356 -1.3131  0.2399 -0.8644
19060TIP3    H278596   6.527   3.513  16.408 -0.1229  0.0097  2.2804
19061TIP3   OH278597   0.678   3.493   0.157 -0.0895  0.1067 -1.1434
19061TIP3    H178598   0.757   3.535   0.190  0.8261 -0.2989 -2.7101
19061TIP3    H278599   0.609   3.558   0.168  0.6751  0.8639 -0.7399
19062TIP3   OH278600   3.186   1.168  16.890 -0.3497 -0.1928 -0.0357
19062TIP3    H178601   3.152   1.146  16.977 -0.6526  0.9178  0.1360
19062TIP3    H278602   3.218   1.084  16.856 -0.4043 -0.6843  1.0597
19063TIP3   OH278603   3.586   3.176  12.151 -0.6678  0.3966  1.0343
19063TIP3    H178604   3.558   3.265  12.172 -2.9743 -0.2107  0.7071
19063TIP3    H278605   3.526   3.147  12.083  0.2467 -1.3285  0.9027
19064TIP3   OH278606   4.500   5.687  12.356  0.4738 -0.1490 -0.4904
19064TIP3    H178607   4.413   5.709  12.390  0.7488  0.1944  0.0179
19064TIP3    H278608   4.492   5.596  12.327 -0.3586  0.2244 -1.4932
19065TIP3   OH278609   3.826   1.791  16.463  0.0191 -0.2087  0.0811
19065TIP3    H178610   3.854   1.718  16.407 -0.2608 -0.3013  0.0596
19065TIP3    H278611   3.750   1.757  16.510 -1.3284  0.7115 -1.3657
19066TIP3   OH278612   2.032   3.204   0.249  0.1259  0.2628 -0.3507
19066TIP3    H178613   1.992   3.246   0.173  3.0612  1.7697 -1.2112
19066TIP3    H278614   2.066   3.276   0.302  0.1972 -0.8602  1.2101
19067TIP3   OH278615   3.760   1.902  12.848 -0.0485 -0.2648 -0.5995
19067TIP3    H178616   3.726   1.822  12.887 -1.9059  1.1040  0.8070
19067TIP3    H278617   3.842   1.919  12.894 -0.0212 -0.9473 -0.3906
19068TIP3   OH278618   6.627   1.574  14.635 -0.6582 -0.3768 -0.0783
19068TIP3    H178619   6.569   1.552  14.562 -0.5081  0.2244 -0.3869
19068TIP3    H278620   6.594   1.523  14.708 -0.1360 -1.8651 -0.8348
19069TIP3   OH278621   3.638   4.540   5.180  0.0047 -0.0908  0.1814
19069TIP3    H178622   3.670   4.450   5.183 -0.7114 -0.3450  2.7253
19069TIP3    H278623   3.667   4.578   5.263 -1.0807  1.5287 -0.1350
19070TIP3   OH278624   0.724   6.041  13.707  0.1319  0.1748 -0.0440
19070TIP3    H178625   0.658   6.098  13.747 -0.4823 -0.8031  0.3579
19070TIP3    H278626   0.800   6.048  13.765 -0.2186 -0.0283  0.4471
19071TIP3   OH278627   6.668   2.977  17.118  0.3956 -0.0398  0.0537
19071TIP3    H178628   6.662   2.960  17.211 -1.0927 -0.5645 -0.1220
19071TIP3    H278629   6.706   2.897  17.081 -0.5426 -0.4849  0.0257
19072TIP3   OH278630   4.286   1.808  11.199  0.9775  0.5557 -0.3447
19072TIP3    H178631   4.362   1.761  11.232  0.5273 -0.0898 -0.2004
19072TIP3    H278632   4.319   1.862  11.128  1.8686  1.5493  0.7959
19073TIP3   OH278633   3.474   5.276   1.484 -0.0278  0.0726 -0.5958
19073TIP3    H178634   3.433   5.356   1.449 -0.3327 -0.5146 -1.6339
19073TIP3    H278635   3.564   5.303   1.505  0.3608  0.3555 -2.4034
19074TIP3   OH278636   5.914   1.970  16.600  0.3778  0.8563 -0.0943
19074TIP3    H178637   5.894   1.888  16.644 -0.5434  0.4622 -1.2247
19074TIP3    H278638   5.985   2.008  16.653 -0.0894 -0.0076  1.2033
19075TIP3   OH278639   4.276   2.815   5.165  0.4225 -0.1181 -0.0793
19075TIP3    H178640   4.327   2.817   5.084 -0.8418 -1.5860 -0.9457
19075TIP3    H278641   4.192   2.856   5.142 -0.6388 -2.1684 -0.0572
19076TIP3   OH278642   2.928   6.176  12.482 -0.4109  0.0384  0.5901
19076TIP3    H178643   2.957   6.260  12.445 -1.0253  0.5121  1.1660
19076TIP3    H278644   2.925   6.117  12.407  0.0631  0.5173  0.1808
19077TIP3   OH278645   6.184   6.478  14.165  0.1928  0.4109 -0.0589
19077TIP3    H178646   6.143   6.549  14.214  1.7608  0.7919  0.7643
19077TIP3    H278647   6.259   6.519  14.122  0.5566 -0.5523 -0.3675
19078TIP3   OH278648   0.349   5.058  12.396  0.3117  0.0541  0.3135
19078TIP3    H178649   0.408   5.109  12.452 -0.0588  0.9994 -0.1382
19078TIP3    H278650   0.269   5.110  12.392 -0.3340 -0.8998  0.3937
19079TIP3   OH278651   3.120   4.739  13.686 -0.1988  0.1803  0.0194
19079TIP3    H178652   3.075   4.824  13.691  1.5281  1.0970  0.8032
19079TIP3    H278653   3.110   4.702  13.774  1.0846  0.6959  0.4061
19080TIP3   OH278654   4.693   1.478   4.090  0.2440  0.2288  0.7453
19080TIP3    H178655   4.679   1.502   4.181  0.2229 -0.4231  0.9189
19080TIP3    H278656   4.612   1.435   4.063  1.0236 -1.5437  1.0905
19081TIP3   OH278657   4.130   3.515   2.986 -0.0350 -0.5466 -0.1186
19081TIP3    H178658   4.126   3.610   2.996  0.3868 -0.7396  2.7611
19081TIP3    H278659   4.184   3.485   3.059 -0.7703 -3.0571 -0.4948
19082TIP3   OH278660   6.258   3.242  12.107  0.7794 -0.1307  0.0705
19082TIP3    H178661   6.297   3.183  12.042  1.5672 -0.8275  1.1456
19082TIP3    H278662   6.330   3.297  12.136  0.3832  0.3196  0.2050
19083TIP3   OH278663   1.065   3.352  12.039 -0.0306 -0.5120  0.2858
19083TIP3    H178664   1.120   3.330  11.963 -1.4792 -1.5388 -0.5247
19083TIP3    H278665   1.100   3.435  12.071  1.3685 -0.6556 -0.7787
19084TIP3   OH278666   1.199   1.713   2.914 -0.0647  0.5608 -0.2226
19084TIP3    H178667   1.187   1.621   2.934  0.1458  0.2781 -1.3267
19084TIP3    H278668   1.246   1.749   2.990 -3.1864  0.5918  1.8874
19085TIP3   OH278669   0.690   6.719  12.296  0.0007 -0.5135 -0.1090
19085TIP3    H178670   0.772   6.676  12.323  0.0087  0.6547  2.0083
19085TIP3    H278671   0.624   6.650  12.300  0.6231 -1.1360 -0.3750
19086TIP3   OH278672   3.562   5.423  14.509 -0.0118 -0.1440  0.0714
19086TIP3    H178673   3.634   5.391  14.563  0.0257  1.9743  1.3704
19086TIP3    H278674   3.505   5.470  14.569 -0.2785  1.8265 -1.6090
19087TIP3   OH278675   3.323   2.424  12.924  0.1906  0.1651  0.2507
19087TIP3    H178676   3.265   2.403  12.997  1.3807 -4.1866  0.2611
19087TIP3    H278677   3.407   2.442  12.965  0.0752  1.2507  0.0353
19088TIP3   OH278678   0.204   4.642   3.962  0.1536 -0.2376  0.2755
19088TIP3    H178679   0.200   4.563   4.016 -1.3711 -1.0832 -0.9796
19088TIP3    H278680   0.143   4.702   4.005 -2.7288 -1.6565 -1.4673
19089TIP3   OH278681   3.391   0.024   2.983  0.0974 -0.4438  0.3596
19089TIP3    H178682   3.480   0.009   2.950  0.4927  0.4258  0.9671
19089TIP3    H278683   3.354   0.090   2.924 -0.4565 -1.4078 -0.3872
19090TIP3   OH278684   4.364   0.567  14.628 -0.1229 -0.0125  0.2682
19090TIP3    H178685   4.395   0.569  14.538 -2.0028  0.8740 -0.4022
19090TIP3    H278686   4.378   0.476  14.656 -0.4596 -0.5618 -1.2701
19091TIP3   OH278687   2.213   0.330   4.627 -0.0039 -0.1438 -0.0060
19091TIP3    H178688   2.296   0.360   4.663  0.0513  0.9303 -0.9507
19091TIP3    H278689   2.150   0.398   4.652 -0.6274 -0.9938  0.7807
19092TIP3   OH278690   5.277   3.051   3.215  0.0236  0.1056 -0.1896
19092TIP3    H178691   5.302   3.138   3.246 -0.1409 -0.2269  0.9379
19092TIP3    H278692   5.326   3.039   3.134  0.5552  0.9832 -0.0141
19093TIP3   OH278693   3.883   6.355   1.170  0.0562  0.5043  0.0567
19093TIP3    H178694   3.819   6.286   1.183 -0.5126  0.8384 -0.8522
19093TIP3    H278695   3.844   6.432   1.212  0.8118  0.2205  1.3073
19094TIP3   OH278696   2.525   0.461  14.911 -0.3796  0.1724 -0.6791
19094TIP3    H178697   2.449   0.443  14.856 -0.7750  0.7726 -0.3347
19094TIP3    H278698   2.489   0.480  14.997 -0.0884  3.1429 -1.0974
19095TIP3   OH278699   1.997   2.628   6.641 -0.1472 -0.0219 -0.4732
19095TIP3    H178700   2.000   2.724   6.651 -0.3990  0.1113 -1.5051
19095TIP3    H278701   1.992   2.595   6.730  1.7519  0.8415  0.0196
19096TIP3   OH278702   1.601   2.737  15.987  0.0413 -0.1555  0.2546
19096TIP3    H178703   1.650   2.748  15.905 -0.4641  1.0805  0.1069
19096TIP3    H278704   1.665   2.756  16.055  0.1075  0.1521  0.1073
19097TIP3   OH278705   2.650   0.074   2.947  0.2436 -0.1021  0.0466
19097TIP3    H178706   2.580   0.114   2.999  0.4300 -1.2460  1.2221
19097TIP3    H278707   2.605   0.041   2.869 -0.3749  0.0051  0.3469
19098TIP3   OH278708   5.311   1.622  10.983 -0.1886  0.1012  0.4232
19098TIP3    H178709   5.342   1.687  11.046  0.5377  0.4560 -0.2750
19098TIP3    H278710   5.217   1.638  10.978  0.1835  2.4299 -1.1114
19099TIP3   OH278711   3.874   2.908   1.658 -0.5211 -0.0033  0.1438
19099TIP3    H178712   3.956   2.869   1.625  0.1170  0.5914  1.0000
19099TIP3    H278713   3.832   2.942   1.579  0.3813  0.2870 -0.2344
19100TIP3   OH278714   0.086   5.375   4.543  0.2870 -0.4407  0.4733
19100TIP3    H178715   0.007   5.323   4.528  1.5947 -1.7867 -2.7961
19100TIP3    H278716   0.092   5.432   4.465  1.3082  1.4064  1.8156
19101TIP3   OH278717   1.053   3.017   3.810  0.1745  0.5671 -0.6554
19101TIP3    H178718   0.988   2.947   3.795  0.1214  0.7815 -1.5105
19101TIP3    H278719   1.002   3.098   3.805  0.2801  0.6822  0.0738
19102TIP3   OH278720   4.061   4.540   3.141  0.6839 -0.1975  0.0479
19102TIP3    H178721   3.988   4.592   3.174  1.2443 -0.6207  2.1177
19102TIP3    H278722   4.021   4.458   3.112  0.1712  0.1802 -0.3318
19103TIP3   OH278723   2.497   1.940  14.257  0.5310 -0.6901  0.2000
19103TIP3    H178724   2.552   1.983  14.191 -0.7580  1.1149  0.2186
19103TIP3    H278725   2.440   2.009  14.289 -0.9841 -2.2298  0.9923
19104TIP3   OH278726   3.147   4.494   2.589 -0.6731  0.0800  0.0670
19104TIP3    H178727   3.196   4.453   2.660 -1.8753 -0.9805  0.3328
19104TIP3    H278728   3.214   4.516   2.524  0.0127 -3.9635 -0.9014
19105TIP3   OH278729   4.402   1.961  10.992  0.6758 -0.0036  0.4772
19105TIP3    H178730   4.497   1.976  10.993  0.9455 -1.3906 -0.6956
19105TIP3    H278731   4.387   1.911  10.911 -0.9174 -0.6359  1.1308
19106TIP3   OH278732   4.302   2.021  17.201 -0.7506 -0.2682 -0.6114
19106TIP3    H178733   4.306   1.977  17.286 -0.4908  1.9704  0.6186
19106TIP3    H278734   4.317   2.113  17.221 -1.7332  0.4885 -2.9788
19107TIP3   OH278735   2.740   5.342  11.552  0.1457  0.1107  1.2190
19107TIP3    H178736   2.675   5.412  11.542 -0.6463 -0.5601  1.4765
19107TIP3    H278737   2.688   5.261  11.548  1.0150 -0.4540  1.1123
19108TIP3   OH278738   4.389   0.776  14.111 -0.4730 -0.4835  0.0575
19108TIP3    H178739   4.322   0.758  14.045 -0.0937  0.5892 -0.6440
19108TIP3    H278740   4.471   0.751  14.069 -0.4097 -1.7025  0.8785
19109TIP3   OH278741   4.814   1.759  12.860 -0.3316 -0.1978  0.6577
19109TIP3    H178742   4.794   1.739  12.952 -1.1549 -1.0732  0.2976
19109TIP3    H278743   4.807   1.855  12.854 -0.1364 -0.1190  1.5277
19110TIP3   OH278744   4.276   6.078   2.717  0.2169 -0.3090 -0.3329
19110TIP3    H178745   4.306   6.010   2.657  2.5867 -1.2268  1.7240
19110TIP3    H278746   4.228   6.031   2.785  0.9542  0.1732  0.5408
19111TIP3   OH278747   1.740   2.937  12.448  0.3298 -0.2382  1.1386
19111TIP3    H178748   1.740   3.010  12.385  1.5048 -0.7802  0.4842
19111TIP3    H278749   1.656   2.894  12.434 -0.1108  0.6083  1.0915
19112TIP3   OH278750   1.714   0.828  13.326  0.6496  0.4800 -0.7411
19112TIP3    H178751   1.683   0.752  13.277 -0.7309 -0.8636  2.0365
19112TIP3    H278752   1.809   0.829  13.311  0.7679 -2.0745 -0.5356
19113TIP3   OH278753   2.974   3.166  14.256 -0.1797 -0.1472 -0.0876
19113TIP3    H178754   3.011   3.108  14.322  1.9804  0.7958 -0.3715
19113TIP3    H278755   3.003   3.129  14.172  0.9121  1.0636 -0.2848
19114TIP3   OH278756   3.341   1.629  15.285 -0.1397  0.1776  0.0555
19114TIP3    H178757   3.307   1.707  15.241  0.7630  1.1506  1.0232
19114TIP3    H278758   3.427   1.615  15.245  0.9232  1.3877  1.7882
19115TIP3   OH278759   3.925   3.481  16.377  0.0891  0.3330  0.2645
19115TIP3    H178760   3.946   3.445  16.291 -0.3397  0.1219  0.2477
19115TIP3    H278761   3.878   3.563  16.357  0.4688  0.5625  0.3012
19116TIP3   OH278762   0.499   4.176   4.897  0.3505 -0.2593  0.0652
19116TIP3    H178763   0.516   4.261   4.937 -0.3597 -1.2455  2.6930
19116TIP3    H278764   0.407   4.179   4.871  0.7934  0.3572 -1.5188
19117TIP3   OH278765   5.609   2.843   4.618 -0.3765  0.0481  0.3944
19117TIP3    H178766   5.590   2.767   4.672 -0.0081 -0.2444  0.1121
19117TIP3    H278767   5.689   2.820   4.571  0.2911  0.9784  1.0366
19118TIP3   OH278768   3.469   6.280   0.983  0.7973 -0.0449  0.2798
19118TIP3    H178769   3.427   6.292   1.068  1.3469  0.2410  0.5175
19118TIP3    H278770   3.404   6.232   0.931 -0.9795  2.7357 -0.2838
19119TIP3   OH278771   4.210   6.461  14.588  0.0246  0.0566  0.0602
19119TIP3    H178772   4.159   6.383  14.567 -0.2679  0.4918 -0.9536
19119TIP3    H278773   4.299   6.440  14.559  0.0467 -0.0745  0.2263
19120TIP3   OH278774   6.060   5.744   2.285 -0.0883  0.3055  0.3972
19120TIP3    H178775   6.002   5.691   2.231  1.1358  0.2636 -0.9020
19120TIP3    H278776   6.051   5.833   2.250 -0.6987  0.6390  1.3503
19121TIP3   OH278777   4.633   6.205  14.400 -0.3946 -0.7431  0.4432
19121TIP3    H178778   4.717   6.185  14.442 -0.2354 -1.6217 -0.2783
19121TIP3    H278779   4.620   6.134  14.337 -0.0811  1.0658 -1.8001
19122TIP3   OH278780   2.498   5.389   4.428  0.0296 -0.5294  0.3031
19122TIP3    H178781   2.427   5.408   4.489  0.6123 -0.3796  0.9556
19122TIP3    H278782   2.454   5.362   4.347 -0.7807 -3.0019  1.4747
19123TIP3   OH278783   1.499   4.279  16.790  0.5305  0.3138 -0.5439
19123TIP3    H178784   1.488   4.225  16.712  2.2801  0.1399 -0.7090
19123TIP3    H278785   1.505   4.217  16.862  0.0511  0.4242 -0.4037
19124TIP3   OH278786   5.264   0.018   6.274 -0.4404 -0.3242 -0.7634
19124TIP3    H178787   5.321   0.076   6.325 -0.2008 -0.7095 -0.5868
19124TIP3    H278788   5.177   0.058   6.281 -0.1639  0.3763 -1.1970
19125TIP3   OH278789   4.564   0.231  12.475 -0.3843 -0.3269 -0.5124
19125TIP3    H178790   4.644   0.208  12.521 -0.4302  0.5442  0.0248
19125TIP3    H278791   4.504   0.158  12.493 -0.1005 -0.4245  0.0489
19126TIP3   OH278792   4.544   3.225  11.117  0.2365  0.6183 -0.2570
19126TIP3    H178793   4.557   3.223  11.023  1.1295 -0.0036 -0.1281
19126TIP3    H278794   4.537   3.318  11.138  1.4771  0.8448 -0.7532
19127TIP3   OH278795   5.156   4.642  12.011  0.1038  0.4697  0.0217
19127TIP3    H178796   5.066   4.614  11.994  0.6882 -1.9115  0.5385
19127TIP3    H278797   5.151   4.738  12.012 -2.5431  0.4111  0.7073
19128TIP3   OH278798   2.433   4.303   3.728 -0.3031 -0.4234 -0.5050
19128TIP3    H178799   2.486   4.382   3.729 -0.8948 -0.0193  1.1221
19128TIP3    H278800   2.376   4.313   3.651 -0.1123  0.5559 -0.5313
19129TIP3   OH278801   6.195   6.484  11.915  0.0070 -0.0486  0.2926
19129TIP3    H178802   6.130   6.423  11.880  0.5341 -0.1478 -0.5459
19129TIP3    H278803   6.183   6.480  12.010 -2.1518  1.0044  0.1074
19130TIP3   OH278804   5.625   1.644  15.297  0.4609 -0.5515  0.0197
19130TIP3    H178805   5.720   1.655  15.296  0.5843 -1.3789  1.0379
19130TIP3    H278806   5.596   1.687  15.377  0.1922 -1.7054  0.5761
19131TIP3   OH278807   1.102   2.063   6.762  0.4345  0.5072 -0.0827
19131TIP3    H178808   1.159   2.109   6.700  0.1536  0.7777 -0.1445
19131TIP3    H278809   1.037   2.020   6.708  1.2509 -0.7659 -0.0873
19132TIP3   OH278810   0.262   3.331  12.149 -0.0773 -0.3335 -0.5003
19132TIP3    H178811   0.318   3.401  12.116  0.7494 -0.8338 -0.1817
19132TIP3    H278812   0.311   3.294  12.222 -0.3417 -1.4789 -0.8891
19133TIP3   OH278813   6.654   1.962  13.921  0.1529 -1.1198  0.2869
19133TIP3    H178814   6.692   1.875  13.935  1.0543 -0.8914 -0.5925
19133TIP3    H278815   6.695   1.993  13.840  0.5669  0.5030  1.0696
19134TIP3   OH278816   4.622   6.566  12.096 -0.4714  0.2941  0.6283
19134TIP3    H178817   4.695   6.581  12.155 -1.6326  0.7057  2.0312
19134TIP3    H278818   4.627   6.473  12.074  1.6769  0.7415 -1.0427
19135TIP3   OH278819   0.751   1.295   1.920  0.7075 -0.0705 -0.8976
19135TIP3    H178820   0.819   1.298   1.852  0.8805  2.9806 -0.7336
19135TIP3    H278821   0.689   1.363   1.895  0.1302  0.3127  1.3375
19136TIP3   OH278822   4.167   3.784   0.322  0.1260 -0.3516 -0.3973
19136TIP3    H178823   4.161   3.878   0.304  0.0376  0.0254  1.4065
19136TIP3    H278824   4.095   3.746   0.272  1.0994  0.3085 -2.3958
19137TIP3   OH278825   3.362   1.091   1.359 -0.5749 -0.3617 -0.6454
19137TIP3    H178826   3.326   1.008   1.328  1.8311 -1.7498  0.0175
19137TIP3    H278827   3.416   1.123   1.287 -0.1707 -0.2481 -0.2995
19138TIP3   OH278828   1.827   5.010   5.815 -0.4674 -0.0913  0.0910
19138TIP3    H178829   1.861   5.044   5.897  0.3889 -1.8903  0.5286
19138TIP3    H278830   1.771   4.936   5.840 -0.6706 -0.2961 -0.9041
19139TIP3   OH278831   3.248   4.474   3.830  0.3041  0.3052  0.0609
19139TIP3    H178832   3.285   4.523   3.903 -1.1056  1.8493 -0.2081
19139TIP3    H278833   3.155   4.464   3.851 -0.0799  0.5354 -1.3799
19140TIP3   OH278834   6.503   4.486   1.285  0.3618  0.3363  1.1825
19140TIP3    H178835   6.415   4.522   1.297 -0.0160  0.2584 -1.0789
19140TIP3    H278836   6.517   4.485   1.191  1.3276 -3.1291  1.2105
19141TIP3   OH278837   0.922   5.596   4.347  0.1570  0.3865  0.0497
19141TIP3    H178838   0.960   5.575   4.432  0.0988 -0.3336 -0.0987
19141TIP3    H278839   0.992   5.641   4.300 -0.2490  2.0632  0.9663
19142TIP3   OH278840   4.960   2.458   1.533  0.1877  0.2284 -0.1249
19142TIP3    H178841   4.915   2.407   1.601 -1.2662  0.5837 -0.7850
19142TIP3    H278842   5.005   2.527   1.581  0.5557 -0.5073  0.6121
19143TIP3   OH278843   0.333   3.355   4.078 -1.1455  0.3377  0.5032
19143TIP3    H178844   0.344   3.266   4.113 -2.2626  0.4128  1.0818
19143TIP3    H278845   0.319   3.343   3.984  0.0328  0.0020  0.3580
19144TIP3   OH278846   4.141   2.809  13.812  0.1015  0.0440  0.4730
19144TIP3    H178847   4.070   2.816  13.747 -0.2033 -2.6147  0.4219
19144TIP3    H278848   4.219   2.838  13.765 -0.3775 -0.3761 -0.6113
19145TIP3   OH278849   2.176   0.141  12.520  0.8992 -0.0606  0.2155
19145TIP3    H178850   2.194   0.065  12.465 -1.0001  0.6278 -1.4923
19145TIP3    H278851   2.090   0.122  12.559  0.6258  0.9799  0.1480
19146TIP3   OH278852   3.925   3.107  11.384  0.2089  0.4381 -0.0528
19146TIP3    H178853   3.944   3.170  11.455 -0.2755 -0.2845  0.7388
19146TIP3    H278854   3.952   3.023  11.419 -2.0640 -0.2806  0.1733
19147TIP3   OH278855   4.995   0.760  15.710 -0.0985  0.1710  0.1710
19147TIP3    H178856   4.970   0.694  15.775  1.9506 -0.3589  0.5064
19147TIP3    H278857   4.974   0.719  15.625 -0.8295  0.0021  0.4246
19148TIP3   OH278858   1.433   5.800   4.824 -0.5077  0.2720  0.2878
19148TIP3    H178859   1.437   5.895   4.817  1.2826  0.1775 -0.4070
19148TIP3    H278860   1.471   5.780   4.909 -0.9106  0.1748  0.4469
19149TIP3   OH278861   4.540   3.204   1.899  0.3047 -0.2978 -0.5343
19149TIP3    H178862   4.495   3.238   1.976 -0.7284 -1.8767 -0.3883
19149TIP3    H278863   4.571   3.281   1.852 -0.2708  0.7312  0.7392
19150TIP3   OH278864   4.672   4.730  15.377  0.0011  0.4438 -0.6672
19150TIP3    H178865   4.686   4.661  15.442 -1.2421  1.1506  0.4056
19150TIP3    H278866   4.758   4.741  15.335  1.1688  0.6622  1.5986
19151TIP3   OH278867   6.325   2.399   0.612  0.7766  0.6303  0.6460
19151TIP3    H178868   6.244   2.444   0.587  1.8421  2.8173  0.8703
19151TIP3    H278869   6.342   2.339   0.540 -0.3733  1.0800 -0.0337
19152TIP3   OH278870   0.286   5.471   1.606  0.3155  0.2459 -0.4034
19152TIP3    H178871   0.333   5.499   1.685 -1.3474  0.4460  0.5712
19152TIP3    H278872   0.248   5.387   1.630 -1.6717  1.1129 -0.3142
19153TIP3   OH278873   4.637   5.074  15.620 -0.3290  0.7136  0.3546
19153TIP3    H178874   4.615   4.995  15.570  0.4688  0.5096  0.3079
19153TIP3    H278875   4.582   5.142  15.583 -1.1467  0.1516  0.4987
19154TIP3   OH278876   1.053   3.694   2.560  0.1198 -0.5892  0.2734
19154TIP3    H178877   1.111   3.624   2.530  0.2688  0.1447 -1.3023
19154TIP3    H278878   1.112   3.768   2.575 -0.3401  0.1684 -1.3607
19155TIP3   OH278879   1.766   3.282   3.274  0.6479 -1.0450  0.1554
19155TIP3    H178880   1.734   3.289   3.364  1.3891 -0.5102  0.3832
19155TIP3    H278881   1.861   3.288   3.281  0.6472  1.0690 -0.8238
19156TIP3   OH278882   1.204   0.012   5.445 -1.0135  0.1502 -0.1252
19156TIP3    H178883   1.236  -0.045   5.515  1.3023  1.2831 -0.1681
19156TIP3    H278884   1.228  -0.034   5.364 -1.0686  0.1750 -0.1553
19157TIP3   OH278885   1.808   2.335   5.258 -0.1240 -0.0840  0.5594
19157TIP3    H178886   1.830   2.253   5.214 -0.3605 -0.0461  0.3701
19157TIP3    H278887   1.806   2.312   5.351  2.6145  0.3287  0.7790
19158TIP3   OH278888   1.433   5.727  13.716 -0.3201  0.0466 -0.2275
19158TIP3    H178889   1.505   5.678  13.755  0.0499  1.1383  0.5250
19158TIP3    H278890   1.475   5.779  13.647 -0.5296  0.0175 -0.3755
19159TIP3   OH278891   1.934   2.816   0.551  0.6891  0.6215 -0.4048
19159TIP3    H178892   1.938   2.727   0.516  1.9709  0.0771  1.0122
19159TIP3    H278893   1.930   2.872   0.473  0.7604 -0.6306 -1.3434
19160TIP3   OH278894   1.600   0.065  14.882  0.4395  0.4922 -0.6482
19160TIP3    H178895   1.688   0.077  14.918  0.5335  0.7530 -0.9608
19160TIP3    H278896   1.602   0.110  14.797  0.4337 -0.6873 -1.3087
19161TIP3   OH278897   4.277   2.326  16.175  0.5916  0.1876 -0.1712
19161TIP3    H178898   4.334   2.251  16.193  1.7591  0.5362 -2.0632
19161TIP3    H278899   4.192   2.302  16.211  0.8172 -2.2480 -1.0961
19162TIP3   OH278900   1.369   3.554   1.353 -0.4665  0.0519 -0.6011
19162TIP3    H178901   1.284   3.575   1.314 -1.1296  1.6572  1.5150
19162TIP3    H278902   1.367   3.458   1.363 -2.2421  0.0856 -0.2022
19163TIP3   OH278903   1.038   3.819  16.133 -0.4426 -0.0535 -0.5198
19163TIP3    H178904   1.002   3.757  16.070  2.2414 -0.6985 -1.5791
19163TIP3    H278905   1.002   3.792  16.217 -2.0672 -0.8217 -1.4132
19164TIP3   OH278906   0.810   3.242  15.872  0.1181  0.0849 -0.2533
19164TIP3    H178907   0.779   3.332  15.864  0.9041  0.2160 -2.5600
19164TIP3    H278908   0.739   3.189  15.837  0.8740  0.0819 -1.8409
19165TIP3   OH278909   0.045   4.397   5.473 -0.1552 -0.1916 -0.0798
19165TIP3    H178910   0.061   4.326   5.535  0.0516 -1.2922 -1.3442
19165TIP3    H278911   0.068   4.477   5.521 -2.6553 -0.6893  2.2029
19166TIP3   OH278912   0.260   4.485   3.116 -0.2516 -0.0877 -0.2795
19166TIP3    H178913   0.195   4.433   3.070 -0.1537 -1.3543  0.9241
19166TIP3    H278914   0.273   4.562   3.061 -2.8423  0.2830 -0.4816
19167TIP3   OH278915   2.833   3.551   4.848  0.0855  0.3577  0.0103
19167TIP3    H178916   2.801   3.549   4.758 -0.1419 -0.4645  0.1028
19167TIP3    H278917   2.838   3.459   4.874 -0.9886  0.6132  1.2308
19168TIP3   OH278918   4.947   3.368   1.924  0.3849  0.5398 -0.5929
19168TIP3    H178919   4.952   3.294   1.864  0.0496 -0.0708  0.1212
19168TIP3    H278920   5.038   3.398   1.933  0.4457  0.5947 -1.3397
19169TIP3   OH278921   0.639   0.356  12.227 -0.2638 -0.1273 -0.0977
19169TIP3    H178922   0.654   0.341  12.321  1.8732 -1.7997 -0.6250
19169TIP3    H278923   0.544   0.365  12.219 -0.5053 -0.0366  2.2006
19170TIP3   OH278924   6.412   5.490   3.918 -0.1280 -0.2862  0.1846
19170TIP3    H178925   6.378   5.557   3.977 -1.3541  0.8023 -1.6282
19170TIP3    H278926   6.458   5.428   3.974  0.8608  1.9459  1.9622
19171TIP3   OH278927   3.343   2.312   3.144 -0.3508 -0.3619  0.2006
19171TIP3    H178928   3.395   2.314   3.065 -2.9409 -0.2240 -1.6268
19171TIP3    H278929   3.276   2.245   3.127 -1.3148  0.0621  2.0370
19172TIP3   OH278930   5.728   0.891  13.132 -0.5312 -0.1384  0.3422
19172TIP3    H178931   5.736   0.957  13.063 -1.8193  0.6352  0.8973
19172TIP3    H278932   5.805   0.905  13.187  0.0333 -0.1596 -0.4224
19173TIP3   OH278933   5.142   6.361  14.659  0.3225  0.5198 -0.0139
19173TIP3    H178934   5.236   6.363  14.641  0.5707  0.9966  1.2495
19173TIP3    H278935   5.135   6.368  14.754 -0.9704 -0.4806 -0.0053
19174TIP3   OH278936   5.666   2.833   0.131  0.3386 -1.1278 -0.5371
19174TIP3    H178937   5.691   2.741   0.146  0.0593 -0.9497  1.2406
19174TIP3    H278938   5.732   2.883   0.180 -0.3737 -0.4567 -0.2482
19175TIP3   OH278939   5.216   5.608  12.545  0.2632  0.5137 -0.2431
19175TIP3    H178940   5.191   5.522  12.579 -0.9421  1.0327  0.2456
19175TIP3    H278941   5.133   5.654  12.533  0.9140  1.8198  0.0721
19176TIP3   OH278942   2.981   6.348  13.900 -0.3961 -0.2381 -0.5836
19176TIP3    H178943   2.916   6.403  13.943  0.9675  1.3840 -0.4740
19176TIP3    H278944   2.938   6.264  13.888 -1.9389  0.2790  0.9443
19177TIP3   OH278945   3.918   3.529   0.537 -0.0310 -0.3382 -0.1254
19177TIP3    H178946   3.976   3.558   0.607  1.0964  0.3881 -1.3343
19177TIP3    H278947   3.898   3.608   0.486 -0.4111 -0.9307 -0.9285
19178TIP3   OH278948   1.929   2.032  11.964  0.2723  0.4137  0.4059
19178TIP3    H178949   1.899   1.943  11.943  0.5543  0.3417  0.2909
19178TIP3    H278950   1.895   2.049  12.051  0.8051 -0.0865  0.7277
19179TIP3   OH278951   1.617   4.057  11.460  0.1726  0.1120 -0.1238
19179TIP3    H178952   1.587   4.148  11.460  0.0122  0.0912  1.7666
19179TIP3    H278953   1.691   4.056  11.521  0.9550 -0.8014 -1.0532
19180TIP3   OH278954   5.694   2.422  12.242 -0.7287 -0.5854  0.2053
19180TIP3    H178955   5.721   2.380  12.160 -0.0810 -0.6435  0.4455
19180TIP3    H278956   5.666   2.350  12.297 -0.5349 -0.6119  0.2708
19181TIP3   OH278957   1.300   3.344  10.581 -0.1297  0.1839 -0.1404
19181TIP3    H178958   1.325   3.254  10.603 -1.5063 -0.1587  0.0903
19181TIP3    H278959   1.325   3.396  10.657  0.1020 -0.0986 -0.0210
19182TIP3   OH278960   4.763   3.967  15.309 -0.3857  0.0478  0.8607
19182TIP3    H178961   4.854   3.996  15.320 -0.4190  0.8194 -0.5452
19182TIP3    H278962   4.769   3.890  15.253 -0.6024  0.2821  0.5063
19183TIP3   OH278963   0.682   3.292   5.525 -0.6188  0.3129 -0.3938
19183TIP3    H178964   0.662   3.255   5.611  1.2573  1.6015  0.6590
19183TIP3    H278965   0.777   3.298   5.522 -0.7133  2.2454 -1.7126
19184TIP3   OH278966   5.375   4.234  16.642 -0.8369 -0.3955  0.2992
19184TIP3    H178967   5.408   4.262  16.557 -0.7205 -0.3051  0.3728
19184TIP3    H278968   5.440   4.172  16.674 -0.8759 -0.4225  0.3266
19185TIP3   OH278969   4.017   5.763  15.783 -0.8705  0.0580  0.2741
19185TIP3    H178970   3.990   5.825  15.715 -0.5190 -0.1220 -0.0327
19185TIP3    H278971   4.112   5.776  15.792 -0.7629 -0.5541  0.0841
19186TIP3   OH278972   4.068   6.518  17.162  0.3715 -0.3794 -0.2673
19186TIP3    H178973   4.006   6.583  17.131  0.9091  0.7781  0.9742
19186TIP3    H278974   4.154   6.554  17.141  0.7915  0.7053  2.7895
19187TIP3   OH278975   5.393   5.285   5.119  0.4631  0.0236 -0.0125
19187TIP3    H178976   5.478   5.262   5.156  1.3515  3.3206  0.3423
19187TIP3    H278977   5.409   5.292   5.024  0.8943  1.5428  0.1462
19188TIP3   OH278978   4.072   4.071   6.134  0.3260  0.0896  0.7442
19188TIP3    H178979   4.095   3.986   6.096  0.6598 -0.2759  1.7290
19188TIP3    H278980   4.148   4.095   6.188 -0.4481  0.1802  1.8454
19189TIP3   OH278981   3.331   6.583   0.575 -0.0556  0.8988 -0.0985
19189TIP3    H178982   3.335   6.618   0.486  2.9312 -1.4707 -1.0412
19189TIP3    H278983   3.246   6.539   0.579  0.8139 -1.3158 -2.8574
19190TIP3   OH278984   0.795   0.276   1.347 -0.2150 -0.8903 -0.4305
19190TIP3    H178985   0.862   0.344   1.344 -0.1712 -0.9539 -0.9315
19190TIP3    H278986   0.741   0.300   1.422 -0.0124 -0.4807 -0.4109
19191TIP3   OH278987   2.284   5.220  15.462 -0.1301 -0.0828  0.7150
19191TIP3    H178988   2.194   5.253  15.456 -0.0705 -0.2103 -1.9459
19191TIP3    H278989   2.286   5.144  15.404  1.4851 -0.6770  1.4767
19192TIP3   OH278990   4.760   4.314  15.714 -0.6335  0.3750 -0.0744
19192TIP3    H178991   4.849   4.348  15.710 -0.5554  0.1397 -0.4435
19192TIP3    H278992   4.707   4.378  15.666 -1.1210  1.8582  2.2784
19193TIP3   OH278993   1.258   1.840  15.909 -0.1310 -0.2579 -0.0085
19193TIP3    H178994   1.194   1.910  15.900  0.0928  0.2241  1.8464
19193TIP3    H278995   1.335   1.882  15.947  0.4015 -1.3041  0.1238
19194TIP3   OH278996   1.274   6.534  16.211  0.4306 -0.0439 -0.4241
19194TIP3    H178997   1.289   6.534  16.117 -0.7333 -0.8988 -0.6272
19194TIP3    H278998   1.327   6.607  16.244  0.2001  0.7899 -1.8369
19195TIP3   OH278999   1.230   0.365  17.249  0.4471 -1.1687  0.0498
19195TIP3    H179000   1.185   0.285  17.220 -0.5798 -0.5142 -0.1962
19195TIP3    H279001   1.160   0.423  17.278  1.1405 -0.1710 -0.2094
19196TIP3   OH279002   4.286   0.621  10.853 -0.0103 -0.0833  0.0475
19196TIP3    H179003   4.200   0.659  10.842  0.4522  1.6921  1.9742
19196TIP3    H279004   4.345   0.679  10.806  0.1865 -1.4142 -1.4597
19197TIP3   OH279005   1.494   5.276  13.194  0.4655 -0.0674  0.1935
19197TIP3    H179006   1.503   5.181  13.197 -0.7414 -0.1885  1.0551
19197TIP3    H279007   1.431   5.293  13.125  0.8865  0.1330 -0.1460
19198TIP3   OH279008   4.588   1.568   0.232  0.2587 -0.1536 -0.5129
19198TIP3    H179009   4.595   1.648   0.179 -0.3389  0.3206  0.1186
19198TIP3    H279010   4.501   1.572   0.271  0.3989 -0.8898 -0.1125
19199TIP3   OH279011   4.244   3.806   5.164 -0.1525  0.2770  0.2275
19199TIP3    H179012   4.272   3.749   5.093 -1.1171 -2.6326  2.0104
19199TIP3    H279013   4.325   3.830   5.210  0.3347  1.0777 -1.0002
19200TIP3   OH279014   3.556   6.634   4.388  0.0351 -0.0534 -0.3459
19200TIP3    H179015   3.528   6.709   4.442  0.7429 -0.5886  0.8070
19200TIP3    H279016   3.520   6.558   4.433 -0.9704 -0.4208 -1.7044
19201TIP3   OH279017   4.482   4.174   6.035  0.0115  0.4826  0.8611
19201TIP3    H179018   4.529   4.255   6.052  0.1715  0.5617  0.0613
19201TIP3    H279019   4.542   4.105   6.062 -0.1067  0.6153  1.4993
19202TIP3   OH279020   6.541   2.411  16.729  0.1919 -0.1694 -0.1718
19202TIP3    H179021   6.465   2.461  16.699  0.7111  0.3502 -0.6598
19202TIP3    H279022   6.567   2.360  16.652  1.9563  1.6847 -0.8984
19203TIP3   OH279023   3.675   6.408  17.067  0.0706  0.4834  0.1972
19203TIP3    H179024   3.742   6.419  17.000  1.0266 -0.1950  1.0133
19203TIP3    H279025   3.723   6.413  17.150 -0.6366 -1.5528  0.7824
19204TIP3   OH279026   0.627   3.038  11.367 -0.0535 -0.5243 -0.6090
19204TIP3    H179027   0.711   3.073  11.398  0.2738 -0.9632 -0.9837
19204TIP3    H279028   0.617   2.956  11.415 -0.4844 -0.2613 -0.2434
19205TIP3   OH279029   2.058   6.159   3.285 -0.2588  0.7659  0.1641
19205TIP3    H179030   2.007   6.130   3.209  0.3838  2.1918 -0.8538
19205TIP3    H279031   2.100   6.240   3.256  0.9196  0.7350  1.6768
19206TIP3   OH279032   3.471   4.159   5.047  0.7511 -0.4427  0.5905
19206TIP3    H179033   3.508   4.199   4.968  2.2222 -0.9533  0.9850
19206TIP3    H279034   3.377   4.176   5.041  0.6336 -1.5192 -1.8788
19207TIP3   OH279035   2.248   3.689  17.278  0.1912  0.0943 -0.1885
19207TIP3    H179036   2.286   3.737  17.351  0.8145 -1.3088  0.4559
19207TIP3    H279037   2.157   3.672  17.304 -1.2116  3.8558 -1.9305
19208TIP3   OH279038   5.558   5.896   4.474 -0.0677 -0.3506 -0.0716
19208TIP3    H179039   5.479   5.895   4.421  0.9875 -1.4566 -1.7245
19208TIP3    H279040   5.606   5.974   4.443 -0.7478  0.6772  1.3608
19209TIP3   OH279041   5.257   5.519   0.028 -0.7869  0.3383  0.1476
19209TIP3    H179042   5.210   5.436   0.040 -1.7860  0.8453 -0.1161
19209TIP3    H279043   5.195   5.574  -0.020  0.4376  0.7457 -0.9870
19210TIP3   OH279044   0.690   0.317   2.211  0.1672  0.2837  0.0986
19210TIP3    H179045   0.602   0.279   2.211  0.4537 -0.4455  1.7832
19210TIP3    H279046   0.743   0.254   2.163 -0.0856  0.4010 -0.3437
19211TIP3   OH279047   4.694   5.439  14.973  0.0541  0.4572 -0.0381
19211TIP3    H179048   4.664   5.501  14.907 -2.7159 -1.1453 -0.4767
19211TIP3    H279049   4.731   5.366  14.922  2.2279  1.1822  0.4230
19212TIP3   OH279050   4.198   5.034   3.043 -0.5872 -0.0353  0.3186
19212TIP3    H179051   4.271   4.975   3.022  0.9088  1.5029  0.9119
19212TIP3    H279052   4.140   5.029   2.967  1.0426 -0.0072 -0.9847
19213TIP3   OH279053   0.899   4.419  15.152 -0.3469 -0.1445  0.3869
19213TIP3    H179054   0.846   4.499  15.148 -1.2678 -0.5680  2.4700
19213TIP3    H279055   0.836   4.348  15.142  0.6921 -0.7443 -3.5602
19214TIP3   OH279056   2.182   2.549  15.099 -0.0163  0.1193  0.4632
19214TIP3    H179057   2.272   2.517  15.109  0.0959  0.2997  0.0418
19214TIP3    H279058   2.131   2.472  15.076  0.0637  0.0476  0.5265
19215TIP3   OH279059   0.627   3.059  14.255 -0.4363 -0.2169  0.6658
19215TIP3    H179060   0.664   2.975  14.281  1.3040  0.7691  1.5337
19215TIP3    H279061   0.565   3.037  14.186  1.5258 -2.0141 -0.6411
19216TIP3   OH279062   4.514   4.926  14.751 -0.1573  0.6392  0.1761
19216TIP3    H179063   4.497   4.996  14.689  0.4635  0.3273 -0.3584
19216TIP3    H279064   4.434   4.875  14.753 -1.0551  1.9999  1.4441
19217TIP3   OH279065   2.171   0.818   3.649 -0.2342  0.8784 -1.0575
19217TIP3    H179066   2.247   0.868   3.619 -0.1129  2.0425  1.0191
19217TIP3    H279067   2.206   0.732   3.671  0.1631  0.8868 -1.6312
19218TIP3   OH279068   0.194   4.599   2.433  0.3434  0.6638  0.0579
19218TIP3    H179069   0.154   4.600   2.520  0.0111  1.5466 -0.0934
19218TIP3    H279070   0.230   4.511   2.425 -0.4898  0.2415  0.6944
19219TIP3   OH279071   3.999   6.503   4.781 -0.3014  0.3541 -0.2168
19219TIP3    H179072   3.966   6.501   4.692  2.6695 -0.2741 -1.4237
19219TIP3    H279073   4.050   6.584   4.786 -0.6530  0.5255  1.0176
19220TIP3   OH279074   3.409   6.218  17.376  0.3605  0.1341 -0.1815
19220TIP3    H179075   3.470   6.248  17.443  1.5164 -1.5352 -0.4211
19220TIP3    H279076   3.379   6.299  17.334 -0.7531  1.2795  2.5562
19221TIP3   OH279077   4.721   4.461   3.527  0.3363 -0.1036  0.1345
19221TIP3    H179078   4.799   4.406   3.528  1.7707  1.8673  0.7714
19221TIP3    H279079   4.725   4.507   3.443 -1.3732 -1.5687 -0.8326
19222TIP3   OH279080   4.384   1.898  13.370  0.7221 -0.0080 -0.4416
19222TIP3    H179081   4.375   1.813  13.328 -0.2085  0.1943 -0.6793
19222TIP3    H279082   4.312   1.901  13.433 -0.1764  1.1813 -1.4706
19223TIP3   OH279083   2.342   1.813  14.562  0.1153 -0.1177  0.8547
19223TIP3    H179084   2.268   1.872  14.569 -0.7728 -1.0405 -0.2838
19223TIP3    H279085   2.313   1.744  14.502  1.9721 -0.3705  0.1501
19224TIP3   OH279086   2.781   4.698  12.818  0.0507 -0.4245  0.5157
19224TIP3    H179087   2.865   4.743  12.807 -1.1938  1.8643 -0.3642
19224TIP3    H279088   2.741   4.740  12.894 -1.2823  0.2923 -0.5238
19225TIP3   OH279089   5.652   1.309   5.348  0.0582 -0.9044  0.3022
19225TIP3    H179090   5.632   1.280   5.437 -0.6168  2.0397  1.2140
19225TIP3    H279091   5.740   1.346   5.354 -0.4876  0.4687  0.0950
19226TIP3   OH279092   5.614   2.288  13.259  0.3305 -0.2968  0.0703
19226TIP3    H179093   5.656   2.202  13.257  1.5548  0.2844 -0.0222
19226TIP3    H279094   5.684   2.348  13.285  1.3262  1.6124 -5.6041
19227TIP3   OH279095   3.227   2.825  15.157 -0.3695  0.0492 -0.2672
19227TIP3    H179096   3.197   2.760  15.221  0.9832  0.6805  1.0767
19227TIP3    H279097   3.267   2.774  15.087 -1.4093 -0.6354 -0.3810
19228TIP3   OH279098   1.946   0.725  12.435  0.1512  0.4725  0.5015
19228TIP3    H179099   1.981   0.762  12.516  0.5235 -0.4379  0.7799
19228TIP3    H279100   1.977   0.634  12.436 -1.5608 -0.1417  0.3608
19229TIP3   OH279101   2.277   6.634   4.697  0.1196 -0.5621  0.1607
19229TIP3    H179102   2.228   6.599   4.771  0.3528 -1.7919 -0.2404
19229TIP3    H279103   2.257   6.574   4.624  2.9743 -1.7895  0.2225
19230TIP3   OH279104   2.768   6.595  11.214  0.4260  0.6343  0.4071
19230TIP3    H179105   2.834   6.530  11.188  0.1071  0.3473  0.3109
19230TIP3    H279106   2.813   6.679  11.207  0.7000  0.4607  0.0803
19231TIP3   OH279107   1.365   1.990  11.275  0.3326  0.4981 -0.3842
19231TIP3    H179108   1.381   1.896  11.284 -0.4931  0.2779 -1.0982
19231TIP3    H279109   1.270   1.999  11.279  0.4053  1.3146 -0.2760
19232TIP3   OH279110   5.792   4.354  14.110  0.6842  0.3493  0.0057
19232TIP3    H179111   5.779   4.263  14.137  1.8274  0.1021 -0.2257
19232TIP3    H279112   5.737   4.364  14.032 -0.0464  0.0895  0.4795
19233TIP3   OH279113   3.715   4.992   4.505  0.2285  0.5076  0.1771
19233TIP3    H179114   3.727   5.058   4.574  4.1473 -0.7093  0.9556
19233TIP3    H279115   3.787   5.008   4.444 -1.1184 -0.5997 -1.8100
19234TIP3   OH279116   3.417   2.537  14.941  0.5887 -0.3707 -0.0986
19234TIP3    H179117   3.363   2.470  14.983  0.2109 -0.0709 -0.1010
19234TIP3    H279118   3.494   2.489  14.910  1.8663 -0.2923  2.6717
19235TIP3   OH279119   1.412   3.411  10.861 -0.3326 -0.1643  0.4120
19235TIP3    H179120   1.391   3.367  10.943  0.7586  0.4772  1.0686
19235TIP3    H279121   1.420   3.504  10.885 -1.2291  0.2115 -0.6681
19236TIP3   OH279122   1.667   4.795  10.916  0.2002  0.3198 -0.7921
19236TIP3    H179123   1.596   4.735  10.892 -0.5062  1.2895 -1.1706
19236TIP3    H279124   1.741   4.737  10.936 -0.2341 -0.6574 -1.9058
19237TIP3   OH279125   6.334   3.408  15.663 -0.2005 -0.5232 -0.2506
19237TIP3    H179126   6.302   3.342  15.602 -0.3431  0.2994 -1.0898
19237TIP3    H279127   6.326   3.491  15.615 -0.0148  0.1038  0.7676
19238TIP3   OH279128   3.270   6.179   1.402  0.0736  0.2415 -1.2100
19238TIP3    H179129   3.186   6.132   1.405  0.3597 -0.2059  0.0824
19238TIP3    H279130   3.254   6.251   1.341 -0.6394 -1.0015 -2.5835
19239TIP3   OH279131   1.345   1.053  17.009  0.5517 -0.0692 -0.0566
19239TIP3    H179132   1.341   1.147  17.031 -0.3354 -0.5147  1.9117
19239TIP3    H279133   1.257   1.033  16.978 -0.3495 -0.8777  2.6863
19240TIP3   OH279134   4.129   4.517  14.984 -0.4195  0.0137 -0.2889
19240TIP3    H179135   4.056   4.543  14.928 -0.8367  0.1016  0.2999
19240TIP3    H279136   4.110   4.427  15.009  0.7414 -0.7151 -1.8603
19241TIP3   OH279137   3.875   5.258   4.368 -0.5127  0.3154 -0.2405
19241TIP3    H179138   3.916   5.303   4.442  1.4536  1.7419 -2.0936
19241TIP3    H279139   3.862   5.326   4.302 -2.3061 -0.8907 -1.2426
19242TIP3   OH279140   2.493   4.745  12.117 -0.0177  0.3093  0.3281
19242TIP3    H179141   2.462   4.802  12.187  0.4164  0.4278  0.4279
19242TIP3    H279142   2.498   4.802  12.040  1.2569  0.6368  0.6290
19243TIP3   OH279143   0.032   1.850   0.068  0.0681  0.4812 -0.6392
19243TIP3    H179144  -0.029   1.821   0.136  0.3758  2.8624  0.7651
19243TIP3    H279145   0.097   1.779   0.061  0.0447  0.1828  1.5904
19244TIP3   OH279146   1.045   5.807  15.057  0.0118 -0.0457  0.1614
19244TIP3    H179147   1.011   5.865  15.125  0.5894  0.8819 -0.3060
19244TIP3    H279148   1.123   5.768  15.096 -0.7770 -1.0825  0.7318
19245TIP3   OH279149   5.325   4.120  12.267 -0.1120  0.0183  0.3447
19245TIP3    H179150   5.245   4.069  12.256 -0.4893  0.6759 -0.0233
19245TIP3    H279151   5.389   4.058  12.303 -0.6256 -0.6475  0.1182
19246TIP3   OH279152   4.249   4.453   5.447 -0.2775  0.9415  0.0928
19246TIP3    H179153   4.290   4.453   5.533 -1.8509  1.0086  0.8800
19246TIP3    H279154   4.263   4.365   5.413 -2.4703 -0.2025  1.8825
19247TIP3   OH279155   0.989   3.363  15.637  0.1548  0.0018  0.0673
19247TIP3    H179156   0.959   3.278  15.603  4.5492 -0.7946 -2.5358
19247TIP3    H279157   0.962   3.363  15.729 -0.8565 -3.7641 -0.0650
19248TIP3   OH279158   2.642   2.722   2.353  0.6822 -0.1007  0.2144
19248TIP3    H179159   2.706   2.683   2.294  1.8381  0.4185  1.0752
19248TIP3    H279160   2.695   2.760   2.424 -0.4812  1.5218  0.2775
19249TIP3   OH279161   1.096   6.255  11.680  0.2687 -0.2054 -0.0544
19249TIP3    H179162   1.003   6.272  11.695 -0.0039 -0.0694 -1.7576
19249TIP3    H279163   1.115   6.179  11.735 -0.5030  0.5276  1.3021
19250TIP3   OH279164   4.960   6.751   5.941  0.2411  0.6691  0.2750
19250TIP3    H179165   4.976   6.672   5.992 -2.5957 -1.1156 -1.3385
19250TIP3    H279166   4.904   6.805   5.998 -1.1819 -0.3722 -0.0911
19251TIP3   OH279167   0.463   0.016  11.247  0.1334  0.3523 -0.3957
19251TIP3    H179168   0.381   0.064  11.231 -0.7234 -1.1141 -0.6364
19251TIP3    H279169   0.532   0.078  11.226 -0.9157  0.8072 -2.8307
19252TIP3   OH279170   5.831   5.233  15.531 -0.4001  0.2453 -0.3997
19252TIP3    H179171   5.770   5.166  15.561 -1.2838  1.3450  0.3266
19252TIP3    H279172   5.856   5.280  15.610  1.9750 -0.5868 -0.5573
19253TIP3   OH279173   2.301   6.412  16.238  0.1674 -0.7492  0.1732
19253TIP3    H179174   2.252   6.353  16.181 -2.4203  1.5596 -0.2397
19253TIP3    H279175   2.333   6.481  16.180  1.0973 -0.5191  0.9361
19254TIP3   OH279176   6.634   5.167   2.096  0.0830  0.2408 -0.0863
19254TIP3    H179177   6.585   5.234   2.145 -0.5454 -0.5777  0.4231
19254TIP3    H279178   6.584   5.087   2.109  0.1821 -0.1015 -1.6693
19255TIP3   OH279179   4.024   0.726  14.899  0.2076  0.2182  0.3545
19255TIP3    H179180   3.991   0.781  14.970 -0.6317  0.2415 -0.0445
19255TIP3    H279181   3.975   0.644  14.908 -0.5805  0.5370 -0.7306
19256TIP3   OH279182   6.439   2.396   1.540 -0.2913 -0.3892 -0.8174
19256TIP3    H179183   6.435   2.479   1.492  1.3770 -0.0365 -0.4240
19256TIP3    H279184   6.361   2.348   1.512 -1.4987  1.4392 -0.8077
19257TIP3   OH279185   5.286   4.399   2.142  0.2705 -0.2382 -0.5914
19257TIP3    H179186   5.202   4.386   2.098 -0.8773  1.0935  1.0712
19257TIP3    H279187   5.311   4.489   2.120  0.9937 -0.4446 -0.6389
19258TIP3   OH279188   1.644   5.342   2.875  0.1816 -0.8166  0.2546
19258TIP3    H179189   1.576   5.294   2.922  1.0553 -2.3906 -0.0252
19258TIP3    H279190   1.711   5.360   2.942  0.9840 -2.2046 -0.1502
19259TIP3   OH279191   5.894   2.433  14.166 -0.0995 -0.2615 -0.2121
19259TIP3    H179192   5.989   2.433  14.155  0.0775 -1.8270  0.9590
19259TIP3    H279193   5.877   2.364  14.230 -2.0876 -0.3429 -0.7593
19260TIP3   OH279194   3.836   2.169   4.394 -0.0695  0.0498 -0.4285
19260TIP3    H179195   3.908   2.232   4.401  1.1561 -1.4337  1.1787
19260TIP3    H279196   3.759   2.218   4.423  0.7982  0.8977  0.5407
19261TIP3   OH279197   1.842   2.996   2.422  0.2342  0.5422  0.0903
19261TIP3    H179198   1.893   2.921   2.391  2.2825  1.0098  2.0803
19261TIP3    H279199   1.871   3.070   2.369  0.1066  0.4306 -0.1372
19262TIP3   OH279200   6.699   6.654  16.899  0.0874 -0.0762 -0.1654
19262TIP3    H179201   6.645   6.677  16.974  1.0919  0.2126  0.4857
19262TIP3    H279202   6.756   6.731  16.885  0.9769 -0.7286 -0.2350
19263TIP3   OH279203   0.634   6.313  16.750 -0.5507  0.2038  0.8237
19263TIP3    H179204   0.724   6.345  16.764 -0.7589  0.8244  0.7833
19263TIP3    H279205   0.626   6.304  16.655 -1.0886  1.8782  0.6716
19264TIP3   OH279206   4.253   5.441   3.225 -0.2526 -0.1437  0.6779
19264TIP3    H179207   4.215   5.489   3.151 -0.1390 -0.8253  0.1622
19264TIP3    H279208   4.192   5.455   3.297 -0.6559  0.0812  0.2990
19265TIP3   OH279209   5.420   6.078   1.820 -0.1025  0.0883 -0.3004
19265TIP3    H179210   5.424   6.157   1.873  0.3630  1.2638 -2.0167
19265TIP3    H279211   5.466   6.100   1.739  0.1567 -1.9827 -0.7919
19266TIP3   OH279212   3.914   1.936   2.435  0.0966 -0.0362 -0.7569
19266TIP3    H179213   3.837   1.886   2.463  0.6123 -0.7319 -0.5475
19266TIP3    H279214   3.924   1.913   2.342  0.2458 -0.2083 -0.6987
19267TIP3   OH279215   0.077   5.459  12.106  0.5677 -0.0366 -0.1794
19267TIP3    H179216   0.041   5.499  12.185 -0.8660 -1.2374 -0.1830
19267TIP3    H279217   0.002   5.415  12.065  1.7176 -1.1971 -1.1033
19268TIP3   OH279218   5.725   4.215   2.742  0.0150  0.2389  0.1842
19268TIP3    H179219   5.750   4.230   2.651  1.7346  3.2774  1.0159
19268TIP3    H279220   5.804   4.183   2.784 -0.4167  0.0276  0.8591
19269TIP3   OH279221   5.088   3.228  14.738 -0.0627  0.0663  0.4942
19269TIP3    H179222   5.033   3.204  14.663  0.9782 -1.6166  0.2091
19269TIP3    H279223   5.120   3.316  14.717  0.7739 -0.6283 -1.4386
19270TIP3   OH279224   5.548   5.139  11.305  0.1780 -0.1638  0.1396
19270TIP3    H179225   5.543   5.052  11.345  3.0265 -0.7791 -0.6523
19270TIP3    H279226   5.484   5.136  11.234 -1.2792 -0.8384  1.4291
19271TIP3   OH279227   2.043   4.121   4.357 -0.1199  0.2227  0.3999
19271TIP3    H179228   2.072   4.206   4.390 -0.3391  1.5472 -2.5284
19271TIP3    H279229   1.953   4.136   4.329 -0.5821 -1.3516  0.9456
19272TIP3   OH279230   5.806   3.884   3.090  0.0158 -0.2074 -0.0547
19272TIP3    H179231   5.749   3.844   3.024 -1.3918  1.5798 -0.0092
19272TIP3    H279232   5.751   3.890   3.168  2.0428 -3.5417  1.8778
19273TIP3   OH279233   2.253   0.141  13.625 -0.0443 -0.1319  0.3375
19273TIP3    H179234   2.178   0.200  13.636 -0.2972 -0.5965  1.2764
19273TIP3    H279235   2.310   0.186  13.563 -0.7815  0.5478  0.1265
19274TIP3   OH279236   4.525   3.261   6.661 -0.5389 -0.4028  0.2496
19274TIP3    H179237   4.585   3.328   6.627 -0.9491 -1.0381 -1.8414
19274TIP3    H279238   4.450   3.311   6.693 -0.4954  0.2112 -0.5663
19275TIP3   OH279239   3.906   0.439  16.837  0.3435  0.0262  0.1894
19275TIP3    H179240   3.843   0.413  16.904 -0.9123 -2.6128 -1.7992
19275TIP3    H279241   3.898   0.534  16.832 -1.5902  0.0225  1.7874
19276TIP3   OH279242   0.323   0.754  13.029  0.3755  0.2365  0.0242
19276TIP3    H179243   0.345   0.752  13.122 -0.7513 -2.4093  0.3185
19276TIP3    H279244   0.243   0.806  13.024  1.8835  2.7495  0.0566
19277TIP3   OH279245   6.067   1.534  11.845  0.4088 -0.1254  0.2453
19277TIP3    H179246   6.005   1.543  11.772  0.7422  0.3082  0.0170
19277TIP3    H279247   6.012   1.508  11.919  0.1615 -1.3344 -0.3299
19278TIP3   OH279248   5.625   3.887   5.091 -0.6413  0.0322 -0.0386
19278TIP3    H179249   5.611   3.800   5.053 -2.6005  0.6921 -0.9987
19278TIP3    H279250   5.679   3.933   5.027  0.4727 -0.4894  0.5132
19279TIP3   OH279251   2.086   6.007   4.879 -0.0542  0.7637  0.4665
19279TIP3    H179252   2.118   5.997   4.790 -1.4526  1.6792 -0.1660
19279TIP3    H279253   2.165   6.014   4.932  0.8660 -1.9846 -0.3774
19280TIP3   OH279254   6.080   2.603  15.782  0.1903  0.4865  0.0222
19280TIP3    H179255   5.999   2.607  15.731 -0.5079  3.8476  1.1323
19280TIP3    H279256   6.148   2.589  15.716 -1.0624  0.1374 -1.2508
19281TIP3   OH279257   4.457   2.635   3.549  0.3599 -0.8070 -0.7314
19281TIP3    H179258   4.455   2.725   3.582  2.1783 -1.8622  2.8789
19281TIP3    H279259   4.369   2.602   3.564  0.2981 -0.2780  0.1348
19282TIP3   OH279260   2.975   1.672  14.984  0.5323 -0.0347  0.4126
19282TIP3    H179261   2.937   1.647  14.899  0.1877  1.3159  0.1397
19282TIP3    H279262   3.057   1.716  14.961 -1.1225  3.3892  0.4536
19283TIP3   OH279263   4.467   5.901   0.599  0.0107  0.0184 -0.4993
19283TIP3    H179264   4.516   5.824   0.572  1.4788  0.0006  1.9310
19283TIP3    H279265   4.381   5.866   0.626  0.7826 -0.8872  0.9311
19284TIP3   OH279266   3.013   1.195  12.039  0.4118 -0.4835 -0.1548
19284TIP3    H179267   2.969   1.116  12.070  0.5391 -0.4406  0.1389
19284TIP3    H279268   3.086   1.162  11.986  0.6098 -0.5688  0.1685
19285TIP3   OH279269   0.685   1.487  15.862  0.3703 -0.3092  0.4144
19285TIP3    H179270   0.703   1.554  15.928  0.0473  0.7596 -0.5448
19285TIP3    H279271   0.602   1.516  15.822  0.7322 -0.7502 -0.6725
19286TIP3   OH279272   5.767   3.892  13.470 -0.3011 -0.2638  0.0768
19286TIP3    H179273   5.673   3.881  13.463 -0.1562 -1.4833 -0.2273
19286TIP3    H279274   5.779   3.979  13.509 -1.5052  0.3241 -0.8138
19287TIP3   OH279275   4.155   4.009  13.737 -0.6578 -0.1990  0.2810
19287TIP3    H179276   4.177   4.095  13.772 -1.9882 -0.5815  2.2185
19287TIP3    H279277   4.146   3.953  13.814  1.2343 -2.3925 -0.9635
19288TIP3   OH279278   1.941   4.995   4.495 -0.0871 -0.0350  0.3729
19288TIP3    H179279   2.021   4.958   4.458 -0.5295 -0.6261 -0.0146
19288TIP3    H279280   1.898   4.920   4.538 -0.9669  0.0332 -0.3697
19289TIP3   OH279281   0.477   0.892   3.865  0.6056  0.2923  0.0039
19289TIP3    H179282   0.541   0.822   3.873  1.4705  0.9766 -0.6053
19289TIP3    H279283   0.524   0.971   3.894  1.1478  1.3758 -3.3098
19290TIP3   OH279284   1.716   2.223   3.746  0.1422  0.6436 -0.2383
19290TIP3    H179285   1.685   2.302   3.702 -0.3265 -0.7614 -2.6500
19290TIP3    H279286   1.641   2.163   3.744  0.8590 -0.3098  0.3840
19291TIP3   OH279287   2.709   1.127   5.405 -0.4449 -0.2429 -0.2425
19291TIP3    H179288   2.659   1.075   5.342  0.5041  0.0075 -1.2266
19291TIP3    H279289   2.651   1.200   5.426 -1.1025 -0.7725 -0.1723
19292TIP3   OH279290   4.199   0.629  16.759 -0.6999 -0.1438  0.4272
19292TIP3    H179291   4.121   0.678  16.785 -0.8456  0.6806 -1.4279
19292TIP3    H279292   4.257   0.696  16.723  0.2886 -0.9624  0.4670
19293TIP3   OH279293   1.835   5.659  12.843  0.1794 -0.0210 -0.4859
19293TIP3    H179294   1.898   5.610  12.897 -0.4519 -1.3225 -0.8822
19293TIP3    H279295   1.781   5.591  12.802 -0.2602  0.9990 -1.6524
19294TIP3   OH279296   3.803   6.747  13.106 -0.2410  0.4709  0.1767
19294TIP3    H179297   3.732   6.703  13.152 -1.1104  1.2308 -0.4278
19294TIP3    H279298   3.877   6.686  13.112 -1.3423 -0.9570 -0.4249
19295TIP3   OH279299   4.785   0.899  15.432 -0.1928  0.1298 -0.2586
19295TIP3    H179300   4.820   0.962  15.370 -1.7343 -0.6880 -2.0676
19295TIP3    H279301   4.740   0.952  15.498  1.4948  1.0106  0.2445
19296TIP3   OH279302   5.285   1.462  12.344  0.2175 -0.6527 -0.3783
19296TIP3    H179303   5.355   1.413  12.387  0.1486  1.1303  1.9615
19296TIP3    H279304   5.225   1.487  12.415 -0.4608  1.6119 -1.6196
19297TIP3   OH279305   1.254   2.295  13.695  0.2738 -0.1196  0.1297
19297TIP3    H179306   1.166   2.260  13.702  0.7246 -1.3142  0.0592
19297TIP3    H279307   1.251   2.353  13.620 -0.1354 -1.1750 -0.6906
19298TIP3   OH279308   2.947   2.361  16.081  0.5776  0.1520 -0.5131
19298TIP3    H179309   2.866   2.405  16.052 -0.2006  0.2237  1.5888
19298TIP3    H279310   2.931   2.269  16.062 -0.2961  0.0853  0.4303
19299TIP3   OH279311   4.928   6.244   1.715  0.3377  0.1716  0.6657
19299TIP3    H179312   4.896   6.154   1.711 -0.9609  0.6350 -0.4795
19299TIP3    H279313   4.853   6.294   1.749  1.6003  0.6206  3.0067
19300TIP3   OH279314   6.450   6.079   6.220 -0.0229  0.2270  0.8782
19300TIP3    H179315   6.464   5.985   6.229 -0.6384  0.0436 -0.0125
19300TIP3    H279316   6.368   6.096   6.267  0.0022  0.2960  0.8979
19301TIP3   OH279317   0.639   3.649  14.329  0.9057  0.3875  0.6284
19301TIP3    H179318   0.660   3.622  14.240 -1.1786 -0.6070  0.3904
19301TIP3    H279319   0.609   3.740  14.320 -1.0624 -0.2733 -0.0243
19302TIP3   OH279320   2.651   1.181   5.051  0.1568  0.2578  0.2507
19302TIP3    H179321   2.681   1.132   4.974 -1.3372 -1.2882  0.6144
19302TIP3    H279322   2.609   1.116   5.107  0.1081  1.5790  1.8256
19303TIP3   OH279323   0.716   0.004   5.353 -0.2578 -0.5463 -0.3533
19303TIP3    H179324   0.686   0.095   5.360 -1.9573 -1.0804 -0.4134
19303TIP3    H279325   0.800   0.004   5.400  0.8566  1.4931 -2.1423
19304TIP3   OH279326   1.827   3.676  12.262 -0.7013  0.3498  0.3048
19304TIP3    H179327   1.822   3.732  12.185  2.5463 -0.7052 -0.8519
19304TIP3    H279328   1.870   3.730  12.328  0.0508  0.0973  0.0410
19305TIP3   OH279329   0.977   5.024   4.906 -0.3517  0.1438 -0.3626
19305TIP3    H179330   0.902   5.084   4.894 -0.4763 -0.4236 -2.9294
19305TIP3    H279331   1.010   5.009   4.817  3.3811  1.0059  0.6971
19306TIP3   OH279332   4.635   2.961   6.630 -0.8077 -0.3494 -0.9967
19306TIP3    H179333   4.729   2.976   6.639 -0.5002 -1.9047 -1.4154
19306TIP3    H279334   4.595   3.039   6.669  0.6277 -0.0504 -0.0433
19307TIP3   OH279335   6.517   4.831  10.512  0.7584 -0.1096  0.1289
19307TIP3    H179336   6.586   4.834  10.578 -0.6357 -1.1443  1.7276
19307TIP3    H279337   6.477   4.918  10.514 -0.0661 -0.4851  1.6062
19308TIP3   OH279338   6.207   5.149   2.861 -0.3561  0.4329  0.3098
19308TIP3    H179339   6.289   5.145   2.811 -0.9149 -2.3481 -0.5838
19308TIP3    H279340   6.220   5.090   2.935 -2.1877 -1.9081 -1.0778
19309TIP3   OH279341   6.684   5.465   2.926  0.5587  0.5135 -0.0955
19309TIP3    H179342   6.748   5.492   2.992  0.4278  3.5731 -1.0812
19309TIP3    H279343   6.604   5.448   2.975  0.9961  0.8168  0.7382
19310TIP3   OH279344   5.509   4.364   1.990 -0.4727  0.1567 -0.0535
19310TIP3    H179345   5.431   4.360   2.045 -0.8861  0.2068 -0.6313
19310TIP3    H279346   5.510   4.281   1.942 -0.2745  0.2391 -0.1959
19311TIP3   OH279347   6.617   1.840  13.035  0.0561  0.2472 -0.0696
19311TIP3    H179348   6.625   1.753  13.074  0.3547  0.6466  0.7917
19311TIP3    H279349   6.703   1.856  12.996  0.2841  0.5008  0.5261
19312TIP3   OH279350   0.354   1.442  16.451 -0.0554 -0.1375  0.2460
19312TIP3    H179351   0.354   1.518  16.392 -1.3496 -0.1972  0.1411
19312TIP3    H279352   0.378   1.478  16.536  0.0891  0.2474  0.0458
19313TIP3   OH279353   2.066   0.536  17.401  0.4497  0.3625 -0.0536
19313TIP3    H179354   2.008   0.461  17.389  2.4278 -0.8983 -2.8358
19313TIP3    H279355   2.072   0.576  17.314  0.8780  2.7005  0.9751
19314TIP3   OH279356   6.326   4.055  15.233  0.3482  0.2530 -0.5398
19314TIP3    H179357   6.235   4.076  15.210  0.5296  0.4200 -1.1205
19314TIP3    H279358   6.379   4.111  15.176  0.8795 -2.3859 -2.8305
19315TIP3   OH279359   4.679   5.013  15.116  0.0891 -0.3156 -0.2975
19315TIP3    H179360   4.738   4.939  15.131  0.2627 -0.0620  0.3156
19315TIP3    H279361   4.599   4.973  15.082 -0.0300 -0.8589  0.5723
19316TIP3   OH279362   2.025   3.193  17.332  0.0878 -0.5011 -0.2523
19316TIP3    H179363   1.999   3.129  17.264 -1.6088 -2.0794  1.7237
19316TIP3    H279364   2.101   3.153  17.374 -2.0817 -2.4021  2.2379
19317TIP3   OH279365   5.819   4.860   3.546 -0.3473  0.1143 -0.1679
19317TIP3    H179366   5.870   4.885   3.469 -2.2078  1.5284 -1.0465
19317TIP3    H279367   5.770   4.939   3.568 -0.0516 -0.3204  2.3771
19318TIP3   OH279368   4.168   2.301  16.999 -0.1929 -0.3508  1.0590
19318TIP3    H179369   4.136   2.282  17.087 -1.1213 -2.4199  0.3314
19318TIP3    H279370   4.138   2.227  16.946  1.3474  0.2645 -0.7689
19319TIP3   OH279371   2.310   0.782  16.096 -0.6238 -0.0592  0.4233
19319TIP3    H179372   2.252   0.787  16.020 -0.1127 -0.7264 -0.0222
19319TIP3    H279373   2.263   0.829  16.165 -0.6109  1.5029 -0.5880
19320TIP3   OH279374   5.584   5.369  14.626  0.3231  0.4203  0.5217
19320TIP3    H179375   5.575   5.444  14.684  0.6235  1.0085 -0.1835
19320TIP3    H279376   5.510   5.376  14.566 -0.0710 -0.2677  0.9124
19321TIP3   OH279377   4.192   3.502  12.770 -0.5103  0.4491 -0.3693
19321TIP3    H179378   4.249   3.427  12.747  0.6575  1.0439  0.4967
19321TIP3    H279379   4.110   3.462  12.799  0.2284 -0.5288  0.4380
19322TIP3   OH279380   4.788   1.532  14.695 -0.5847 -0.2764 -0.3365
19322TIP3    H179381   4.802   1.526  14.789 -3.3499 -0.2052  0.1521
19322TIP3    H279382   4.749   1.448  14.671 -2.5494  0.7307 -0.8444
19323TIP3   OH279383   6.126   0.192  11.215 -0.3671  0.0085  0.3741
19323TIP3    H179384   6.041   0.159  11.184 -0.1975 -1.3522  1.2724
19323TIP3    H279385   6.170   0.222  11.135 -1.6207  0.6139 -0.1255
19324TIP3   OH279386   1.633   5.157   4.017 -0.0636  0.1271  0.3262
19324TIP3    H179387   1.566   5.123   3.958  0.3694  0.0378 -0.1178
19324TIP3    H279388   1.606   5.247   4.034 -1.3799 -0.4917  1.7509
19325TIP3   OH279389   3.920   2.012  11.147  0.1344 -0.1144  0.1992
19325TIP3    H179390   3.850   2.075  11.165 -0.9264 -0.4251 -2.3755
19325TIP3    H279391   3.874   1.932  11.119  1.4929 -0.8198 -0.1151
19326TIP3   OH279392   4.008   3.201   3.132 -0.2367  0.1266 -0.0407
19326TIP3    H179393   3.957   3.144   3.075  0.6240  0.1359 -0.8477
19326TIP3    H279394   3.945   3.268   3.162 -1.1178 -0.9067  0.4767
19327TIP3   OH279395   4.825   1.658   3.866 -0.6512 -0.2909 -0.1873
19327TIP3    H179396   4.771   1.612   3.930  0.4187 -1.0788  0.1918
19327TIP3    H279397   4.865   1.729   3.916 -0.4413 -0.4210 -0.1662
19328TIP3   OH279398   0.343   3.582  16.368  0.2371 -0.2857  0.0198
19328TIP3    H179399   0.355   3.568  16.275  1.1834 -0.0071  0.0947
19328TIP3    H279400   0.251   3.560  16.384  0.0757 -0.3492 -0.9671
19329TIP3   OH279401   2.594   4.692   5.350  0.1196  0.5341  0.3366
19329TIP3    H179402   2.655   4.758   5.383  0.1774  0.4828  0.3330
19329TIP3    H279403   2.591   4.707   5.255  0.0565  0.5957  0.3483
19330TIP3   OH279404   0.731   0.793   1.896 -0.2963  0.3619 -0.2145
19330TIP3    H179405   0.725   0.716   1.839 -0.1377  0.4910 -0.4095
19330TIP3    H279406   0.824   0.817   1.894 -0.5329  1.2844 -1.1364
19331TIP3   OH279407   3.147   5.951  15.934  0.2739 -0.1907 -0.1995
19331TIP3    H179408   3.139   5.964  16.028  0.6662 -0.5455 -0.1167
19331TIP3    H279409   3.241   5.954  15.917  0.2421 -0.7286 -0.4888
19332TIP3   OH279410   2.476   0.837   4.590  0.5868  0.5280  0.0264
19332TIP3    H179411   2.509   0.875   4.508  0.3149 -1.3114 -0.9968
19332TIP3    H279412   2.478   0.742   4.575 -3.4728  0.2066  0.5206
19333TIP3   OH279413   4.774   0.022  11.728  0.0810  0.4384  0.7711
19333TIP3    H179414   4.787  -0.016  11.642 -1.3113  0.2412  0.6137
19333TIP3    H279415   4.704  -0.031  11.767 -0.5189  1.5874  1.3254
19334TIP3   OH279416   6.187   4.411   4.164  0.6001 -0.4049 -0.3672
19334TIP3    H179417   6.186   4.332   4.109 -0.4289 -0.6518 -0.0332
19334TIP3    H279418   6.094   4.429   4.179  0.8304  0.8440 -0.3859
19335TIP3   OH279419   6.068   5.978  16.669  0.3269  0.2822 -0.3195
19335TIP3    H179420   6.046   5.944  16.583  1.5218  0.2725 -0.6443
19335TIP3    H279421   6.136   6.043  16.652  0.1499  0.7059  0.5633
19336TIP3   OH279422   2.544   1.942  11.867  0.3462 -0.2469  0.3006
19336TIP3    H179423   2.490   1.902  11.798 -1.6885  0.6010  1.3096
19336TIP3    H279424   2.606   1.874  11.891 -1.9708 -2.3187  0.8828
19337TIP3   OH279425   1.236   1.105   3.962 -0.6498  0.0592  0.0988
19337TIP3    H179426   1.254   1.190   3.922 -0.2792 -0.2470 -0.3868
19337TIP3    H279427   1.305   1.094   4.028  0.8933 -1.0141 -1.6088
19338TIP3   OH279428   4.315   1.461   5.891 -0.0325  0.1947 -0.0005
19338TIP3    H179429   4.395   1.495   5.850 -0.3622  1.0219  0.0176
19338TIP3    H279430   4.344   1.384   5.939  0.5761 -0.0978 -0.8105
19339TIP3   OH279431   2.597   4.734  12.608 -0.0364 -0.4760  0.0607
19339TIP3    H179432   2.678   4.725  12.658 -0.7403 -0.0686  1.3432
19339TIP3    H279433   2.622   4.720  12.517  1.2391 -1.6038  0.5596
19340TIP3   OH279434   0.717   3.859  12.675 -0.1082 -0.7172 -0.4060
19340TIP3    H179435   0.704   3.914  12.753 -1.2039 -1.0950 -0.2988
19340TIP3    H279436   0.765   3.783  12.708 -0.8831 -1.0484 -0.0047
19341TIP3   OH279437   6.713   0.074   2.494  0.0772 -0.2432 -0.1013
19341TIP3    H179438   6.768   0.152   2.480 -2.0490  1.3745 -0.0787
19341TIP3    H279439   6.732   0.046   2.583 -0.2437  1.2923  0.4926
19342TIP3   OH279440   6.144   2.551  15.120 -0.7977 -0.0160  0.4745
19342TIP3    H179441   6.146   2.571  15.213 -0.8449  0.0126  0.4699
19342TIP3    H279442   6.186   2.466  15.112  1.9327  1.2547  0.1769
19343TIP3   OH279443   2.760   5.439   1.279 -0.0406  0.1285 -0.2826
19343TIP3    H179444   2.750   5.353   1.238  2.3448  0.0797 -0.8894
19343TIP3    H279445   2.720   5.429   1.366 -0.9524 -1.1809 -0.8238
19344TIP3   OH279446   2.606   2.251   3.332  0.2805 -0.0139 -0.2749
19344TIP3    H179447   2.616   2.211   3.418 -1.4165 -0.5794 -0.3171
19344TIP3    H279448   2.550   2.191   3.283  0.0364  1.0013 -1.3031
19345TIP3   OH279449   0.209   3.579  12.394 -0.1336  0.1085 -0.2636
19345TIP3    H179450   0.300   3.599  12.373  0.1888 -0.2329  0.7556
19345TIP3    H279451   0.164   3.578  12.309  0.7451  0.5722 -0.7469
19346TIP3   OH279452   5.291   2.671  15.974 -0.3340 -0.5782  0.0476
19346TIP3    H179453   5.382   2.641  15.983  1.8367  4.9939  0.2462
19346TIP3    H279454   5.259   2.676  16.064  0.4531  0.6482  0.2768
19347TIP3   OH279455   1.499   6.444   0.442 -0.2802 -0.0140 -0.5460
19347TIP3    H179456   1.443   6.487   0.379 -1.0460 -0.8241 -0.4310
19347TIP3    H279457   1.483   6.350   0.430 -1.0477 -0.1764  1.3679
19348TIP3   OH279458   3.850   3.270  12.425  0.0093 -0.8773  0.3381
19348TIP3    H179459   3.763   3.285  12.463  1.0014 -1.9218  3.2463
19348TIP3    H279460   3.858   3.337  12.357 -2.1248  0.8213  1.6317
19349TIP3   OH279461   5.369   0.852  12.612  0.5896 -0.2765 -0.3341
19349TIP3    H179462   5.312   0.891  12.678  2.0614  1.6112 -0.1182
19349TIP3    H279463   5.437   0.807  12.662  1.4176  0.7225 -0.5361
19350TIP3   OH279464   4.074   5.131   0.245  0.1387  0.5062  0.0189
19350TIP3    H179465   4.058   5.217   0.285  0.1829  0.9703 -0.9275
19350TIP3    H279466   4.062   5.069   0.316 -0.7973  1.2336  0.5259
19351TIP3   OH279467   0.732   4.237   5.681 -0.0521 -0.0010 -0.4772
19351TIP3    H179468   0.772   4.241   5.595  0.1890 -3.1742 -0.6531
19351TIP3    H279469   0.800   4.200   5.737 -1.2542 -1.1772  0.2657
19352TIP3   OH279470   1.212   2.469  12.053 -0.1036  0.3106  0.2400
19352TIP3    H179471   1.287   2.490  11.998  0.2146 -0.9127  0.1916
19352TIP3    H279472   1.185   2.554  12.090 -1.3634  1.4850 -2.9879
19353TIP3   OH279473   1.889   1.733   3.316 -0.4137 -0.2131 -0.5821
19353TIP3    H179474   1.833   1.791   3.368 -0.0758 -0.1177 -0.3207
19353TIP3    H279475   1.943   1.791   3.263  1.0588 -0.2109  0.8534
19354TIP3   OH279476   3.810   4.568   3.613 -0.8699 -0.3613 -0.4098
19354TIP3    H179477   3.903   4.561   3.590 -1.2144 -1.4687 -1.5925
19354TIP3    H279478   3.766   4.581   3.529 -1.8306 -0.2879  0.0972
19355TIP3   OH279479   1.152   4.999   1.028 -0.4994 -0.0122 -0.0574
19355TIP3    H179480   1.233   4.995   0.978 -1.0569  0.9077 -1.0836
19355TIP3    H279481   1.153   4.920   1.082  0.5358 -0.6036 -0.8978
19356TIP3   OH279482   5.112   5.305  12.646  0.3770  0.1434  0.4136
19356TIP3    H179483   5.040   5.271  12.593  0.7873  0.8052 -0.6232
19356TIP3    H279484   5.165   5.228  12.667 -1.2922 -0.5485  2.3135
19357TIP3   OH279485   0.178   5.564  15.134 -0.5461  0.2888  0.1423
19357TIP3    H179486   0.137   5.623  15.198  0.4575  0.5085  0.6045
19357TIP3    H279487   0.115   5.494  15.123 -1.4417  1.0694  0.1479
19358TIP3   OH279488   3.085   5.208   1.085 -0.4318  0.3126  0.2716
19358TIP3    H179489   3.149   5.139   1.101  1.8952  2.0459 -0.9152
19358TIP3    H279490   3.017   5.166   1.032  0.3406 -1.3221  0.5322
19359TIP3   OH279491   2.586   4.915  13.654  0.4575 -0.0908  0.6649
19359TIP3    H179492   2.566   4.839  13.709 -0.0524  0.0115  0.6274
19359TIP3    H279493   2.681   4.916  13.648  0.4347 -1.8916 -0.9425
19360TIP3   OH279494   4.114   1.026   5.946  0.0253 -0.3785 -0.0530
19360TIP3    H179495   4.079   0.964   6.011  0.3877 -1.4239 -0.8228
19360TIP3    H279496   4.091   1.112   5.980 -2.3739 -0.9851 -0.0084
19361TIP3   OH279497   2.646   6.341  13.968 -0.2424  0.4540 -0.3545
19361TIP3    H179498   2.660   6.374  13.880 -0.0999  0.5654 -0.2897
19361TIP3    H279499   2.561   6.296  13.963 -2.1865  3.6992  0.3562
19362TIP3   OH279500   1.320   0.423   5.679 -0.3722 -0.5344 -0.1119
19362TIP3    H179501   1.385   0.385   5.738 -1.7548 -0.5278  1.5072
19362TIP3    H279502   1.308   0.512   5.712 -1.2705 -0.5763 -0.3065
19363TIP3   OH279503   5.633   4.984  16.075  0.0341  0.4856  0.4214
19363TIP3    H179504   5.674   4.899  16.090 -0.5037  0.5310  2.4387
19363TIP3    H279505   5.560   4.965  16.016  0.5429 -0.2588  0.0103
19364TIP3   OH279506   4.741   2.299  11.425 -0.0565 -0.2984  0.5593
19364TIP3    H179507   4.778   2.229  11.371 -1.2446 -1.1345  0.8047
19364TIP3    H279508   4.676   2.256  11.481  0.5489  0.6859  2.0948
19365TIP3   OH279509   1.836   5.709   2.357 -0.2470 -0.1433  0.1400
19365TIP3    H179510   1.789   5.655   2.292 -1.8390 -0.5211  1.5230
19365TIP3    H279511   1.924   5.671   2.360 -0.6193 -1.1296 -0.6498
19366TIP3   OH279512   0.552   4.378  11.368 -0.2033 -0.2249  0.1208
19366TIP3    H179513   0.485   4.347  11.307 -0.1855 -0.6905  0.3343
19366TIP3    H279514   0.512   4.370  11.454 -0.7633  1.7846  0.1025
19367TIP3   OH279515   5.572   0.816  12.421  0.5527  0.6032 -0.2738
19367TIP3    H179516   5.634   0.858  12.482  0.2130  0.6471  0.0438
19367TIP3    H279517   5.492   0.806  12.472  0.7001 -0.6843 -0.2496
19368TIP3   OH279518   1.879   4.196  13.812  0.4486  0.6525  0.8100
19368TIP3    H179519   1.974   4.198  13.826  0.8328  1.1447 -1.4182
19368TIP3    H279520   1.849   4.281  13.844  0.8755  0.7409  0.9913
19369TIP3   OH279521   5.208   5.554   3.002 -0.4448  0.1276  0.1792
19369TIP3    H179522   5.259   5.631   2.976  1.1423 -0.3405  1.6894
19369TIP3    H279523   5.120   5.571   2.970  0.2397  1.8278 -0.9219
19370TIP3   OH279524   5.936   3.997   2.465  0.0190 -0.2446  0.5477
19370TIP3    H179525   5.912   3.944   2.541  0.9123 -1.4344  0.0494
19370TIP3    H279526   6.004   4.056   2.497 -1.0318  0.6989  1.1251
19371TIP3   OH279527   3.485   1.219  13.738 -0.0049  0.5033  0.2928
19371TIP3    H179528   3.452   1.130  13.752  0.4755  0.2687 -0.0026
19371TIP3    H279529   3.530   1.241  13.820  1.8568 -0.4390 -0.3948
19372TIP3   OH279530   1.520   4.417  13.965  0.3591  0.0519  0.1363
19372TIP3    H179531   1.525   4.342  13.905  1.8359 -0.4027  0.7953
19372TIP3    H279532   1.578   4.394  14.037 -0.8248  0.9180  1.4025
19373TIP3   OH279533   5.673   0.148  15.192 -0.0629 -0.0274  0.1983
19373TIP3    H179534   5.706   0.059  15.175  1.5083  0.7196 -1.0041
19373TIP3    H279535   5.749   0.195  15.226  0.0034  1.5805 -1.9408
19374TIP3   OH279536   3.098   4.647  13.416 -0.1799  0.5037 -0.1632
19374TIP3    H179537   3.088   4.674  13.507  0.8390 -0.1112  0.1415
19374TIP3    H279538   3.176   4.591  13.415 -0.6769 -0.2164 -1.2527
19375TIP3   OH279539   4.081   5.289  13.499  0.2324  0.7986  0.1289
19375TIP3    H179540   4.142   5.318  13.431 -0.0013 -0.6819 -0.7523
19375TIP3    H279541   4.128   5.220  13.545 -1.1953 -1.3632 -1.4606
19376TIP3   OH279542   4.255   5.005   0.862 -0.5614 -0.2653 -0.5156
19376TIP3    H179543   4.169   4.981   0.898 -0.5350  0.7750  0.2757
19376TIP3    H279544   4.251   5.100   0.852 -0.2124 -0.4138 -2.4022
19377TIP3   OH279545   2.147   2.920  15.193 -0.3671 -0.4205 -0.0675
19377TIP3    H179546   2.110   2.832  15.192  0.6565 -0.8754  0.1349
19377TIP3    H279547   2.182   2.931  15.282 -1.0691  0.4590  0.1243
19378TIP3   OH279548   2.919   2.657   5.149  0.7296  0.1920 -0.0907
19378TIP3    H179549   2.899   2.748   5.130  1.6524  1.0215  2.4849
19378TIP3    H279550   2.900   2.647   5.242 -0.5558 -2.6337 -0.5641
19379TIP3   OH279551   2.148   1.423  16.027  0.0235 -0.2293 -0.2249
19379TIP3    H179552   2.221   1.386  15.976  1.6461  1.5501  0.6940
19379TIP3    H279553   2.136   1.361  16.099  1.5055  0.0648  0.3147
19380TIP3   OH279554   2.510   2.190   0.331 -0.3203  0.1957  0.8482
19380TIP3    H179555   2.537   2.259   0.391 -1.6794  0.4726  1.1701
19380TIP3    H279556   2.569   2.117   0.352 -0.3994  0.4714  2.1471
19381TIP3   OH279557   2.888   2.717  16.956 -0.3114 -0.1813 -0.1131
19381TIP3    H179558   2.792   2.710  16.958 -0.2898 -0.3955  0.3571
19381TIP3    H279559   2.906   2.809  16.976 -0.4541  0.1840 -1.5696
19382TIP3   OH279560   3.111   6.076   4.437 -0.2701  0.0825 -0.5712
19382TIP3    H179561   3.184   6.135   4.419 -1.0340  1.1149 -0.3766
19382TIP3    H279562   3.039   6.109   4.383 -0.9083 -0.2535  0.0545
19383TIP3   OH279563   5.156   3.028   4.439 -0.8325 -0.0527  0.4640
19383TIP3    H179564   5.083   3.026   4.501 -1.2315  1.1352  0.0623
19383TIP3    H279565   5.165   3.121   4.416  0.7173 -0.1871  0.4022
19384TIP3   OH279566   2.951   3.308   6.020  0.1435 -0.4720 -0.2291
19384TIP3    H179567   3.019   3.249   6.052  0.0218 -1.9545 -2.4581
19384TIP3    H279568   2.873   3.252   6.011 -0.4212  0.3959 -0.8807
19385TIP3   OH279569   4.606   5.493   3.776  0.0019  0.4451 -0.4075
19385TIP3    H179570   4.695   5.518   3.752 -0.6208  2.9649 -0.4048
19385TIP3    H279571   4.588   5.541   3.857 -2.1461  2.0358 -1.7231
19386TIP3   OH279572   3.750   6.178   6.349  0.5160 -0.3229 -0.2445
19386TIP3    H179573   3.778   6.094   6.386  1.3830 -0.8430 -1.9781
19386TIP3    H279574   3.819   6.239   6.376  0.8724 -0.5872 -0.5339
19387TIP3   OH279575   5.094   2.999  11.356  0.5919 -0.6643  0.2693
19387TIP3    H179576   5.109   3.059  11.283  1.6083 -1.5961 -0.3355
19387TIP3    H279577   5.135   2.917  11.328  0.7464 -1.1383  1.7717
19388TIP3   OH279578   0.051   2.424  12.509  0.4281 -0.0186  0.0505
19388TIP3    H179579   0.119   2.446  12.573  1.9435 -1.5401 -0.9554
19388TIP3    H279580   0.031   2.332  12.525  1.2233 -0.5890 -1.9497
19389TIP3   OH279581   4.560   1.588   5.923  0.0768  0.0367 -0.1870
19389TIP3    H179582   4.516   1.617   6.003 -1.7460 -0.6170 -0.8950
19389TIP3    H279583   4.633   1.649   5.912  0.3713  0.1460  1.9436
19390TIP3   OH279584   1.202   3.866  15.066  0.0338 -0.6528  0.3673
19390TIP3    H179585   1.130   3.824  15.113 -0.5931 -0.3791 -0.3241
19390TIP3    H279586   1.173   3.956  15.052  0.8831 -0.2951  0.8322
19391TIP3   OH279587   3.930   5.285   2.691 -0.3730  0.4949 -0.8189
19391TIP3    H179588   3.970   5.369   2.712 -0.5139  0.5219 -0.6549
19391TIP3    H279589   3.954   5.269   2.600 -1.0280  1.1090 -1.1173
19392TIP3   OH279590   2.338   4.203   5.853  0.1822  0.2783 -0.7363
19392TIP3    H179591   2.361   4.171   5.940 -0.8572  1.5699  0.0623
19392TIP3    H279592   2.281   4.136   5.816 -0.5999  0.4132  0.2041
19393TIP3   OH279593   6.463   3.034   0.991 -0.0098  0.1374 -0.2956
19393TIP3    H179594   6.417   2.968   0.940 -1.1147 -0.2380  1.1068
19393TIP3    H279595   6.485   2.989   1.073 -0.1895  1.2897  0.4075
19394TIP3   OH279596   6.299   3.576  11.966  0.5134  0.3160 -0.7814
19394TIP3    H179597   6.344   3.549  11.886 -0.9200  1.2945 -1.9652
19394TIP3    H279598   6.296   3.496  12.020  0.5763 -0.6321 -2.1366
19395TIP3   OH279599   4.853   0.669   2.119 -0.2877  0.0478 -0.3353
19395TIP3    H179600   4.861   0.585   2.164 -0.3843  1.2151  1.9683
19395TIP3    H279601   4.893   0.653   2.033  0.5507 -2.0856  0.3820
19396TIP3   OH279602   2.040   6.510  12.492  0.0235  0.9607 -0.0247
19396TIP3    H179603   1.947   6.513  12.469 -0.3456 -2.5875  0.5337
19396TIP3    H279604   2.084   6.550  12.416 -1.8605  1.8151 -0.7379
19397TIP3   OH279605   1.578   0.254   4.818  0.0406  0.4104  0.0943
19397TIP3    H179606   1.615   0.225   4.735  1.1841  1.2514  0.2826
19397TIP3    H279607   1.497   0.298   4.794  0.3478  0.6178 -0.5850
19398TIP3   OH279608   6.283   6.653   0.474  0.2039  0.0607  0.4568
19398TIP3    H179609   6.374   6.672   0.451  0.2829 -0.4115  0.3710
19398TIP3    H279610   6.243   6.625   0.391 -0.1179  0.6295  0.4164
19399TIP3   OH279611   5.837   5.734  14.492  0.4458  0.2426  0.3009
19399TIP3    H179612   5.928   5.721  14.464  0.1580 -2.5167  0.3566
19399TIP3    H279613   5.833   5.694  14.579 -0.8236  0.3202  0.2901
19400TIP3   OH279614   3.889   5.707   3.141 -0.3930  0.6079 -0.4754
19400TIP3    H179615   3.850   5.774   3.198  3.6997  0.7463  2.6070
19400TIP3    H279616   3.869   5.624   3.185  0.1690  0.4105 -0.5877
19401TIP3   OH279617   5.338   6.236  15.635 -0.2453 -0.4140  0.1735
19401TIP3    H179618   5.298   6.211  15.717  0.4344 -1.9801  0.0621
19401TIP3    H279619   5.336   6.157  15.581 -0.4605  0.5057 -1.2408
19402TIP3   OH279620   4.262   0.406   0.046  0.1368  0.5945 -0.5260
19402TIP3    H179621   4.264   0.388  -0.048  1.1758 -0.1584 -0.3838
19402TIP3    H279622   4.313   0.335   0.085  1.6166  2.0854  0.3887
19403TIP3   OH279623   4.588   1.881  14.731 -0.1145  0.0062  0.2694
19403TIP3    H179624   4.569   1.794  14.695 -1.3741 -0.5108  2.0342
19403TIP3    H279625   4.573   1.941  14.658 -0.3087 -1.1733 -0.6891
19404TIP3   OH279626   5.417   3.285  13.831  0.0476  0.6023 -0.1462
19404TIP3    H179627   5.449   3.322  13.912  0.5549 -0.1841  0.0225
19404TIP3    H279628   5.408   3.191  13.849 -1.7569  0.6911 -0.3764
19405TIP3   OH279629   5.089   0.575   5.643 -0.0336  0.3131  0.4184
19405TIP3    H179630   5.154   0.629   5.597  0.0026  0.9627  1.2142
19405TIP3    H279631   5.131   0.550   5.725 -0.8543  0.9439  1.0513
19406TIP3   OH279632   4.895   1.644  14.172  0.2754 -0.1370  0.0351
19406TIP3    H179633   4.825   1.634  14.108  1.6933  1.7515 -1.9990
19406TIP3    H279634   4.852   1.635  14.257 -2.0687 -0.7543 -1.1268
19407TIP3   OH279635   5.711   5.042   2.830  0.1039  0.3773 -0.1090
19407TIP3    H179636   5.672   5.064   2.745  0.8250  0.8158 -0.3341
19407TIP3    H279637   5.644   5.065   2.894 -1.2134 -1.7081 -0.6309
19408TIP3   OH279638   1.956   3.384   5.209  0.1059  0.2190  0.3497
19408TIP3    H179639   2.024   3.428   5.158 -1.5499  1.4306 -0.9094
19408TIP3    H279640   1.915   3.323   5.149 -0.5730  0.2318  0.7807
19409TIP3   OH279641   6.400   4.604   0.403 -0.2577  0.0776 -0.2656
19409TIP3    H179642   6.462   4.531   0.402 -0.8147 -0.4227  0.7332
19409TIP3    H279643   6.331   4.577   0.464 -1.8957  0.2730 -1.9374
19410TIP3   OH279644   1.512   1.175   0.618  0.5582 -0.1931  0.6367
19410TIP3    H179645   1.551   1.142   0.537  0.7182  1.1490  0.1477
19410TIP3    H279646   1.587   1.188   0.677  0.5348 -0.3440  0.7003
19411TIP3   OH279647   4.464   0.689   1.874  0.1526  0.0883  0.4221
19411TIP3    H179648   4.536   0.722   1.927  2.0876 -1.8326 -0.8467
19411TIP3    H279649   4.505   0.630   1.811 -2.3759  0.0550 -1.3610
19412TIP3   OH279650   6.413   2.411  13.823 -0.5769  0.2108  0.0847
19412TIP3    H179651   6.408   2.446  13.734  1.6646 -2.2742 -1.1643
19412TIP3    H279652   6.396   2.318  13.813  1.6686 -0.4882  1.9168
19413TIP3   OH279653   0.235   4.537   1.639  0.8861 -0.3327 -0.2809
19413TIP3    H179654   0.203   4.447   1.640  1.0380 -0.4334 -1.7326
19413TIP3    H279655   0.328   4.529   1.616  0.6579  0.2302 -1.4763
19414TIP3   OH279656   4.078   0.662  14.492  0.8247 -0.1050  0.1145
19414TIP3    H179657   4.046   0.737  14.542  0.5799 -1.6776  2.4366
19414TIP3    H279658   4.105   0.598  14.558  0.6702 -2.2408 -1.7622
19415TIP3   OH279659   1.588   0.616   5.544 -0.8107 -0.1029 -0.1039
19415TIP3    H179660   1.665   0.652   5.500 -1.3686  0.7072 -0.4388
19415TIP3    H279661   1.624   0.552   5.606  0.2323  1.2022  0.6882
19416TIP3   OH279662   6.054   5.584  17.016  0.0549 -0.1021  0.2041
19416TIP3    H179663   6.019   5.626  17.095 -0.1904 -0.3487  0.2280
19416TIP3    H279664   6.017   5.633  16.944  0.3995  0.2196  0.2420
19417TIP3   OH279665   4.904   4.033   5.185 -0.0154  0.0615 -0.2781
19417TIP3    H179666   4.867   4.098   5.244  2.9994  0.3029  1.5639
19417TIP3    H279667   4.844   3.960   5.188 -1.9993  1.6113 -0.1164
19418TIP3   OH279668   0.309   3.326  15.593  0.3881  0.0482  0.7661
19418TIP3    H179669   0.302   3.379  15.513  1.1162 -0.2490  0.5008
19418TIP3    H279670   0.228   3.345  15.641  0.7804  1.6536  0.8487
19419TIP3   OH279671   2.857   1.490  14.838  0.2555  0.5226  0.0673
19419TIP3    H179672   2.930   1.463  14.782  0.0133 -0.4668  0.2053
19419TIP3    H279673   2.779   1.482  14.782 -0.1838 -1.9409  0.9266
19420TIP3   OH279674   4.186   3.545   3.484 -0.4879 -0.0126  0.8614
19420TIP3    H179675   4.266   3.561   3.534  0.0537  0.7721 -0.1875
19420TIP3    H279676   4.199   3.460   3.443  0.3959  0.6346 -0.2860
19421TIP3   OH279677   4.563   5.367  11.262 -0.2343 -0.0299 -0.2705
19421TIP3    H179678   4.627   5.432  11.233  1.3776 -0.9436  1.0467
19421TIP3    H279679   4.478   5.410  11.250  0.5665  1.1143 -2.3407
19422TIP3   OH279680   6.525   0.817  12.055  0.1352 -0.0687 -0.4093
19422TIP3    H179681   6.589   0.747  12.043 -0.3006 -0.4069 -0.7943
19422TIP3    H279682   6.554   0.887  11.997  0.1058 -0.2557 -0.6488
19423TIP3   OH279683   3.674   5.683   0.339  0.1702  0.6576  0.0050
19423TIP3    H179684   3.620   5.758   0.317  1.0818  1.3992  0.2050
19423TIP3    H279685   3.764   5.713   0.324  0.5531 -0.3774  0.1290
19424TIP3   OH279686   5.709   4.593   1.935  0.2532  0.4655  0.3221
19424TIP3    H179687   5.719   4.545   2.017 -1.1933  1.4245  1.1115
19424TIP3    H279688   5.711   4.526   1.867 -0.0869 -0.5290  1.2671
19425TIP3   OH279689   3.304   1.210   0.676 -0.8039  0.0219  0.9943
19425TIP3    H179690   3.246   1.216   0.600 -1.3184 -0.8757  1.2881
19425TIP3    H279691   3.251   1.243   0.749 -1.0392 -0.9644  1.2948
19426TIP3   OH279692   2.876   6.211   2.494 -0.5121 -0.1410  0.5250
19426TIP3    H179693   2.939   6.142   2.517 -0.1386  0.7405  2.3369
19426TIP3    H279694   2.893   6.230   2.402  1.0849 -0.7231  0.6687
19427TIP3   OH279695   5.240   1.590   2.185  0.4711 -0.3687  0.2214
19427TIP3    H179696   5.276   1.564   2.271 -0.8238 -2.0387  0.3237
19427TIP3    H279697   5.153   1.624   2.205  1.0782  1.5483 -0.2320
19428TIP3   OH279698   2.796   3.497  15.910 -0.3281 -0.2306  0.1377
19428TIP3    H179699   2.721   3.510  15.852 -0.3324 -0.3951  0.1082
19428TIP3    H279700   2.872   3.511  15.854 -0.3136  2.5194  0.7008
19429TIP3   OH279701   2.884   4.695   6.261 -0.2915 -0.4718  0.0384
19429TIP3    H179702   2.879   4.684   6.166  0.8898  0.2566 -0.1291
19429TIP3    H279703   2.943   4.626   6.291  1.6812  1.0456 -0.1610
19430TIP3   OH279704   1.160   6.365   5.868  0.2948  0.2123  0.1412
19430TIP3    H179705   1.188   6.412   5.947  1.8429  0.7289 -0.6793
19430TIP3    H279706   1.214   6.286   5.867  1.7158  1.1469 -1.3881
19431TIP3   OH279707   3.518   0.705   6.470  0.3975 -0.9496  0.5759
19431TIP3    H179708   3.447   0.722   6.533  1.1987  1.4131  0.9348
19431TIP3    H279709   3.593   0.682   6.525  0.4901 -1.2475  0.3261
19432TIP3   OH279710   4.732   2.671  12.177 -0.3795  0.0494  0.2249
19432TIP3    H179711   4.800   2.700  12.116  0.3314 -0.5836  0.7025
19432TIP3    H279712   4.664   2.635  12.121  0.0150 -0.0169 -0.2266
19433TIP3   OH279713   5.710   3.485   1.883  0.4554 -0.0898  0.1023
19433TIP3    H179714   5.671   3.399   1.867  0.8198 -0.1336 -0.5614
19433TIP3    H279715   5.766   3.501   1.807  1.2058  0.2782  0.7179
19434TIP3   OH279716   1.912   1.281  16.683 -1.1568  0.6526 -0.3644
19434TIP3    H179717   1.908   1.215  16.752  0.5431  1.0049  0.1237
19434TIP3    H279718   1.993   1.329  16.701 -1.5947  1.9065 -1.5778
19435TIP3   OH279719   4.645   4.671  16.705 -0.0148  0.8757  0.2875
19435TIP3    H179720   4.693   4.748  16.676  1.0362  0.2282  0.2622
19435TIP3    H279721   4.556   4.702  16.720  0.8510  2.6118  2.4496
19436TIP3   OH279722   1.814   0.720  13.808 -0.2808  1.0296  0.2407
19436TIP3    H179723   1.851   0.774  13.738  0.2726 -0.4584 -0.6772
19436TIP3    H279724   1.720   0.733  13.801 -0.6518 -1.7708 -3.2952
19437TIP3   OH279725   4.989   4.464  12.867  0.1074  0.3008 -0.3504
19437TIP3    H179726   4.898   4.438  12.849  0.0349 -1.7335  2.3272
19437TIP3    H279727   5.037   4.441  12.787 -1.3026 -1.1312 -0.8333
19438TIP3   OH279728   2.619   3.148  17.156  0.2277 -0.7660 -0.2273
19438TIP3    H179729   2.540   3.094  17.148  0.7742 -1.3796 -2.4260
19438TIP3    H279730   2.675   3.099  17.216 -1.0748 -0.2298  1.5141
19439TIP3   OH279731   3.132   1.416  17.244 -0.2621 -0.4161 -0.2514
19439TIP3    H179732   3.110   1.360  17.319  1.6102 -2.4515 -1.1172
19439TIP3    H279733   3.154   1.501  17.283 -1.3719 -0.7936  1.2803
19440TIP3   OH279734   3.558   6.735  15.919 -0.6859  0.2161  0.5940
19440TIP3    H179735   3.649   6.763  15.907 -0.6409 -0.5869 -1.3256
19440TIP3    H279736   3.506   6.806  15.884 -0.7326  0.0456  0.3104
19441TIP3   OH279737   2.069   3.676  15.681 -0.3861  0.0137  0.5479
19441TIP3    H179738   2.073   3.739  15.752  0.2927 -0.7669  1.2270
19441TIP3    H279739   2.035   3.596  15.721  0.2138 -0.4985  0.0569
19442TIP3   OH279740   4.958   5.304   4.665  0.3024 -0.6708 -0.0211
19442TIP3    H179741   4.998   5.383   4.629  3.1742 -1.4005  1.3341
19442TIP3    H279742   5.011   5.283   4.742 -1.5940 -2.8373  0.8063
19443TIP3   OH279743   3.147   4.162  14.251 -0.0133  0.1588  0.4926
19443TIP3    H179744   3.086   4.120  14.312  0.5350  0.4501  1.2580
19443TIP3    H279745   3.101   4.241  14.222 -0.4824 -0.2438  0.1283
19444TIP3   OH279746   6.174   1.694   4.568 -0.5476 -0.1067 -0.4403
19444TIP3    H179747   6.206   1.772   4.522  1.4937  1.2558  2.9476
19444TIP3    H279748   6.082   1.713   4.588 -0.0414  1.5325  0.4336
19445TIP3   OH279749   0.479   2.003   5.920  0.1190  0.2968 -0.3834
19445TIP3    H179750   0.556   2.028   5.970 -0.0305 -0.4062  0.2187
19445TIP3    H279751   0.426   2.083   5.916  1.5868  1.2593 -2.2278
19446TIP3   OH279752   4.759   3.588   2.092 -0.4240 -0.3087  0.4712
19446TIP3    H179753   4.805   3.507   2.070 -0.4217 -0.1584 -0.1023
19446TIP3    H279754   4.793   3.652   2.030  0.1644  0.3339  1.4325
19447TIP3   OH279755   4.480   1.185  16.390 -0.2261 -0.1678  0.1096
19447TIP3    H179756   4.529   1.186  16.308 -2.2784 -0.5082 -1.2015
19447TIP3    H279757   4.515   1.110  16.438  0.6765 -0.2545 -0.6561
19448TIP3   OH279758   1.642   3.046   3.131  0.4602 -0.2064  0.3882
19448TIP3    H179759   1.642   3.110   3.061  0.4189 -1.4226 -0.7569
19448TIP3    H279760   1.641   3.098   3.212  1.8651  1.2235 -0.4704
19449TIP3   OH279761   3.080   5.759   3.537  0.6976 -0.2512  0.1314
19449TIP3    H179762   3.097   5.839   3.587  0.5630  0.2541 -0.6140
19449TIP3    H279763   2.984   5.749   3.540  0.5758  0.4702 -1.0555
19450TIP3   OH279764   1.089   6.529   5.669 -0.2307 -0.1852 -0.1561
19450TIP3    H179765   1.129   6.612   5.697 -1.9448  0.3846  0.7638
19450TIP3    H279766   1.104   6.469   5.742 -0.8813 -0.0138  0.1283
19451TIP3   OH279767   5.516   4.713   2.417  0.0705  0.1502 -0.0555
19451TIP3    H179768   5.549   4.779   2.479  0.5670  0.0987 -0.2548
19451TIP3    H279769   5.580   4.715   2.345  0.6329 -1.2248  0.3827
19452TIP3   OH279770   4.519   2.802  15.527  0.1934 -0.4495  0.3765
19452TIP3    H179771   4.590   2.739  15.509 -0.1933 -1.0865  1.0500
19452TIP3    H279772   4.546   2.847  15.607  0.8426  0.8189 -0.5200
19453TIP3   OH279773   5.694   6.588  13.561  0.1726  0.4437 -0.8971
19453TIP3    H179774   5.660   6.593  13.650 -0.0307  1.0807 -1.0036
19453TIP3    H279775   5.757   6.516  13.563 -0.8707 -0.4912 -0.5895
19454TIP3   OH279776   3.853   2.495   1.085  0.0494 -0.3642  0.6993
19454TIP3    H179777   3.834   2.401   1.083  1.3343 -0.6387  0.9285
19454TIP3    H279778   3.906   2.508   1.163 -0.9791  0.7422  1.2560
19455TIP3   OH279779   4.055   5.512  14.861 -0.7296 -0.4248  0.2646
19455TIP3    H179780   4.050   5.435  14.918 -2.5987 -1.1616 -0.7956
19455TIP3    H279781   4.066   5.476  14.773  0.1332  0.6140 -0.0696
19456TIP3   OH279782   5.624   1.739   2.791  0.1758  0.5704  0.3950
19456TIP3    H179783   5.606   1.645   2.788  1.2977  0.3663 -0.5169
19456TIP3    H279784   5.649   1.756   2.882 -0.4420  0.0791  0.6634
19457TIP3   OH279785   6.562   4.152  17.038  0.0958 -0.0739  0.3261
19457TIP3    H179786   6.629   4.091  17.010 -1.0564 -0.9132 -0.7012
19457TIP3    H279787   6.556   4.216  16.968  1.1828  1.1859  1.3247
19458TIP3   OH279788   3.276   5.160  12.464  0.0220 -0.1704  0.3615
19458TIP3    H179789   3.332   5.088  12.493  2.2437  1.9550  1.7913
19458TIP3    H279790   3.313   5.187  12.380  0.5390  0.5446  0.7977
19459TIP3   OH279791   2.248   0.560   3.714  0.1239 -0.0896  0.2418
19459TIP3    H179792   2.338   0.527   3.709 -0.3390 -1.2252 -1.6869
19459TIP3    H279793   2.205   0.502   3.777  0.9954  1.2270  2.1260
19460TIP3   OH279794   5.642   5.971   5.386 -0.4758  0.3102 -0.1950
19460TIP3    H179795   5.577   5.943   5.450 -0.3604 -1.9559 -0.9770
19460TIP3    H279796   5.725   5.937   5.420 -0.3186 -0.3051 -1.1484
19461TIP3   OH279797   4.766   5.137   6.049 -0.2269 -0.8722 -0.0964
19461TIP3    H179798   4.806   5.070   5.994  0.7507 -1.4794  1.2850
19461TIP3    H279799   4.759   5.096   6.135 -0.0687  0.6286  0.6678
19462TIP3   OH279800   2.081   6.353   4.424 -0.5615 -0.5097 -0.1931
19462TIP3    H179801   2.161   6.306   4.446 -0.3139 -1.1650 -2.2268
19462TIP3    H279802   2.010   6.292   4.446 -0.4155 -0.5395  0.1951
19463TIP3   OH279803   5.472   0.933  16.330 -0.4343  0.2037 -0.0976
19463TIP3    H179804   5.515   0.889  16.404  0.7511  0.1925 -0.7616
19463TIP3    H279805   5.379   0.919  16.344 -0.2715  0.6098  1.6564
19464TIP3   OH279806   6.301   5.868  15.821 -0.0572 -0.2627  0.6665
19464TIP3    H179807   6.286   5.775  15.837 -1.4129 -0.2254 -0.2330
19464TIP3    H279808   6.253   5.886  15.740 -0.2311  1.3329  1.0961
19465TIP3   OH279809   0.770   0.667  15.905  0.8320 -0.5722 -0.0824
19465TIP3    H179810   0.730   0.691  15.821  0.7787  0.4876  0.2289
19465TIP3    H279811   0.802   0.578  15.891 -0.5296 -1.0003 -0.7384
19466TIP3   OH279812   5.958   4.356  11.087  0.1174 -0.0835  0.2817
19466TIP3    H179813   5.978   4.357  11.181  1.1931 -0.4464  0.0636
19466TIP3    H279814   5.936   4.265  11.069  0.4888 -0.1301  0.0636
19467TIP3   OH279815   1.070   0.993   3.609 -0.7552  0.9744 -0.0422
19467TIP3    H179816   1.065   0.994   3.705 -1.1561  3.1270 -0.0356
19467TIP3    H279817   1.164   0.990   3.591 -0.6781 -1.5473  0.3221
19468TIP3   OH279818   3.829   1.207   2.931  0.1607  0.9622 -0.0767
19468TIP3    H179819   3.823   1.210   2.836  1.4404 -1.4485 -0.3047
19468TIP3    H279820   3.744   1.172   2.960 -0.3060  1.8924 -0.2760
19469TIP3   OH279821   1.706   2.224  13.358  0.0840 -0.3486  0.0287
19469TIP3    H179822   1.661   2.307  13.344  0.3938 -0.0930  0.5371
19469TIP3    H279823   1.780   2.226  13.297  0.1364 -0.2197  0.0970
19470TIP3   OH279824   2.205   2.548  14.257  0.0247  0.0437 -0.6095
19470TIP3    H179825   2.283   2.576  14.306  0.6541  0.2484 -1.6999
19470TIP3    H279826   2.152   2.627  14.249  0.9581  0.5442 -2.1369
19471TIP3   OH279827   6.487   2.146   5.693  0.3325  0.2623 -0.0479
19471TIP3    H179828   6.470   2.199   5.771  0.3923  0.6467 -0.2932
19471TIP3    H279829   6.505   2.059   5.727  0.7767  0.5227  0.3999
19472TIP3   OH279830   4.994   4.294  14.715  0.0103 -0.2831  0.2211
19472TIP3    H179831   4.958   4.206  14.705  1.1899 -0.5720 -2.3482
19472TIP3    H279832   5.088   4.279  14.729  0.0849  0.5639  0.6676
19473TIP3   OH279833   1.464   1.648  13.521 -0.3125  0.2349 -0.0431
19473TIP3    H179834   1.543   1.628  13.472  0.3799  1.9021  0.3248
19473TIP3    H279835   1.491   1.651  13.612 -0.9559  0.1135  0.1604
19474TIP3   OH279836   5.052   3.487   3.540 -0.2345 -0.0071  0.0283
19474TIP3    H179837   5.086   3.517   3.624  0.1148 -0.2734 -0.0137
19474TIP3    H279838   4.993   3.556   3.512  1.5593  1.3227 -0.7126
19475TIP3   OH279839   6.269   1.159   1.722 -0.4783 -0.4011  0.3342
19475TIP3    H179840   6.280   1.112   1.805  0.2395 -0.7317  0.0577
19475TIP3    H279841   6.176   1.181   1.719 -1.1706 -3.0326 -0.1745
19476TIP3   OH279842   2.314   1.870   2.406 -0.0088  0.3503 -0.2060
19476TIP3    H179843   2.226   1.890   2.372 -0.8562 -1.6964  0.5824
19476TIP3    H279844   2.366   1.850   2.328  0.1237  2.6834 -0.7737
19477TIP3   OH279845   5.618   4.788   6.054  0.0641  0.9438 -0.3556
19477TIP3    H179846   5.691   4.763   5.998 -1.3246  0.4202 -2.0191
19477TIP3    H279847   5.637   4.747   6.138  0.8528 -0.6514 -1.2592
19478TIP3   OH279848   2.582   6.451   2.998  0.2702 -0.1132 -0.2550
19478TIP3    H179849   2.637   6.375   3.014  0.0195 -0.4546 -0.9610
19478TIP3    H279850   2.516   6.421   2.935 -0.0420  0.5897 -0.2819
19479TIP3   OH279851   5.568   1.729  13.438  0.3721  0.5992  0.2994
19479TIP3    H179852   5.609   1.766  13.360  2.1189 -0.6656  0.5452
19479TIP3    H279853   5.560   1.636  13.419  1.1251  0.2161  1.7013
19480TIP3   OH279854   2.633   0.326  15.766 -0.7551  0.0402  0.1656
19480TIP3    H179855   2.658   0.367  15.683  0.7488  0.3727  0.7370
19480TIP3    H279856   2.649   0.232  15.752 -2.1501 -0.1221 -0.4536
19481TIP3   OH279857   2.069   0.500  15.559  0.0134 -0.3513 -0.6268
19481TIP3    H179858   2.144   0.459  15.600  0.2230 -0.2167 -0.8736
19481TIP3    H279859   2.041   0.567  15.621  0.4564 -0.0076 -0.7917
19482TIP3   OH279860   1.176   2.297  16.347 -0.0644  0.2357  0.2071
19482TIP3    H179861   1.265   2.324  16.369 -0.9872  2.9450  0.9958
19482TIP3    H279862   1.172   2.302  16.252  1.2832 -2.4316 -0.0790
19483TIP3   OH279863   4.323   1.140   1.683  0.2548  0.4807  0.6575
19483TIP3    H179864   4.320   1.050   1.717  0.9615  0.4950  0.7784
19483TIP3    H279865   4.301   1.195   1.758 -0.1301  0.4109  0.5960
19484TIP3   OH279866   3.001   2.332   2.930 -0.4406 -0.5377  0.2410
19484TIP3    H179867   3.003   2.354   3.023  0.0055 -2.0537  0.6315
19484TIP3    H279868   2.977   2.239   2.928  0.7768 -0.8742 -1.0633
19485TIP3   OH279869   0.580   2.256  15.551 -0.3805  0.5359 -0.1524
19485TIP3    H179870   0.517   2.223  15.615 -1.3165 -1.1338 -1.8018
19485TIP3    H279871   0.664   2.255  15.597 -1.3389  1.7592  1.7593
19486TIP3   OH279872   5.012   0.346  12.047 -0.1172 -0.1224  0.1530
19486TIP3    H179873   4.998   0.271  11.989 -1.5917  0.2921 -0.0489
19486TIP3    H279874   4.990   0.313  12.134  0.5731 -0.3005  0.2653
19487TIP3   OH279875   6.354   6.203  15.027  0.2895 -0.1318  0.5272
19487TIP3    H179876   6.416   6.260  14.981  0.7408 -0.3851  0.8183
19487TIP3    H279877   6.268   6.239  15.005  0.4519 -0.6677 -1.1129
19488TIP3   OH279878   5.741   3.210  12.234  0.0892  0.2257  0.6394
19488TIP3    H179879   5.820   3.258  12.211 -0.1495  0.2891 -0.0653
19488TIP3    H279880   5.772   3.140  12.292  0.8398 -0.4463 -0.5330
19489TIP3   OH279881   1.341   2.218  16.989 -0.4330  0.4475  0.3781
19489TIP3    H179882   1.333   2.123  16.984 -3.0747  0.6269 -0.3395
19489TIP3    H279883   1.353   2.236  17.082 -2.3352 -0.4927  0.8479
19490TIP3   OH279884   2.316   0.972   3.418  0.0854  0.1790 -0.1101
19490TIP3    H179885   2.301   0.893   3.366  1.0790 -0.6079  0.7780
19490TIP3    H279886   2.408   0.992   3.405  0.0399  0.6989  0.3639
19491TIP3   OH279887   2.513   5.426  10.664  0.3477 -0.0218 -0.0278
19491TIP3    H179888   2.606   5.403  10.662  1.3203  3.3863  0.5683
19491TIP3    H279889   2.509   5.513  10.625 -2.9249 -0.8318 -1.8277
19492TIP3   OH279890   3.107   2.770   0.993  0.7311  0.4205  0.5977
19492TIP3    H179891   3.055   2.850   1.000  2.3342  1.6251 -0.3908
19492TIP3    H279892   3.061   2.716   0.929 -1.2819 -0.2627  2.5090
19493TIP3   OH279893   0.475   4.185  12.006  0.3945 -0.7980 -0.4440
19493TIP3    H179894   0.425   4.113  12.043  1.3888 -0.1427  2.3982
19493TIP3    H279895   0.500   4.154  11.919 -0.8432 -3.0521 -0.0815
19494TIP3   OH279896   5.439   4.715  13.754 -0.5354 -0.3380 -0.0937
19494TIP3    H179897   5.380   4.682  13.821  1.0838 -1.3388  0.8989
19494TIP3    H279898   5.419   4.808  13.749 -0.7007 -0.2301  1.7967
19495TIP3   OH279899   4.649   2.466  10.903  0.1018  0.2913  0.3411
19495TIP3    H179900   4.587   2.538  10.916 -0.1845 -0.3068  2.6524
19495TIP3    H279901   4.735   2.509  10.898 -0.1606  0.8692  0.6646
19496TIP3   OH279902   4.839   5.816  14.472  0.6204  0.1186 -0.0158
19496TIP3    H179903   4.802   5.771  14.397  0.1580 -0.1040  0.3435
19496TIP3    H279904   4.764   5.853  14.519  0.8757 -0.0098  0.5062
19497TIP3   OH279905   2.943   4.547  12.116  0.5129 -0.4475 -0.0019
19497TIP3    H179906   2.933   4.635  12.080  0.8796  0.3477  1.7386
19497TIP3    H279907   3.037   4.534  12.122  0.4697 -1.2330 -0.8311
19498TIP3   OH279908   5.186   2.774  17.278  0.3948 -0.9442 -0.3355
19498TIP3    H179909   5.205   2.867  17.275 -3.0346 -0.1476 -1.1433
19498TIP3    H279910   5.202   2.749  17.369  0.5464  0.6392  0.1005
19499TIP3   OH279911   0.404   6.736  15.333 -0.0700 -0.5650 -0.0348
19499TIP3    H179912   0.332   6.791  15.365  0.2282  1.3727 -2.3941
19499TIP3    H279913   0.362   6.653  15.311 -1.2490 -0.0863  0.2916
19500TIP3   OH279914   0.198   2.840  17.054  0.3672 -0.0222  0.3020
19500TIP3    H179915   0.193   2.786  17.132 -2.4390 -2.1132 -1.1334
19500TIP3    H279916   0.209   2.929  17.086  2.8041 -1.0885  2.8580
19501TIP3   OH279917   1.033   3.450  17.011  0.0288  0.1437 -0.4190
19501TIP3    H179918   0.971   3.458  16.938  1.6020 -1.6006 -2.0495
19501TIP3    H279919   1.115   3.483  16.976  1.0482 -1.6067  0.1759
19502TIP3   OH279920   6.403   6.031   2.278 -0.0325  1.0451 -0.2459
19502TIP3    H179921   6.417   6.122   2.306  1.1851  1.5931 -2.4594
19502TIP3    H279922   6.317   6.033   2.235 -0.0519  1.1288 -0.2051
19503TIP3   OH279923   3.577   3.546  13.865  0.9511  0.0506  0.0496
19503TIP3    H179924   3.615   3.459  13.878  1.8392  0.4473  0.1898
19503TIP3    H279925   3.560   3.577  13.954  0.6502  0.0214  0.0006
19504TIP3   OH279926   4.875   4.262   2.954  0.4322 -0.0129  0.2231
19504TIP3    H179927   4.788   4.247   2.916  0.9640 -4.8275  0.2682
19504TIP3    H279928   4.859   4.266   3.048  0.2121 -1.7537  0.3019
19505TIP3   OH279929   4.398   1.831   0.990  0.5568  0.0879  0.1564
19505TIP3    H179930   4.486   1.793   0.985  0.5594 -0.0685  1.2844
19505TIP3    H279931   4.378   1.855   0.899  0.7579 -2.1039 -0.5248
19506TIP3   OH279932   5.806   2.867   5.556 -0.0198 -0.0049  0.2743
19506TIP3    H179933   5.841   2.920   5.627 -0.3043  0.0735  0.3590
19506TIP3    H279934   5.729   2.915   5.526  0.1261 -0.0131 -0.1185
19507TIP3   OH279935   1.403   5.472  15.056 -0.5571  0.0468 -0.3014
19507TIP3    H179936   1.364   5.396  15.099  1.3865 -0.9837 -0.2516
19507TIP3    H279937   1.444   5.522  15.127 -1.4790  0.9656 -0.3874
19508TIP3   OH279938   4.753   3.206   5.479 -0.2579  0.3742  0.2372
19508TIP3    H179939   4.727   3.199   5.571  2.0460 -0.5169  0.8841
19508TIP3    H279940   4.683   3.163   5.431 -1.2807  0.4388  1.5940
19509TIP3   OH279941   4.139   2.088   3.452  0.0129 -0.1499  0.2134
19509TIP3    H179942   4.131   2.033   3.530  0.5120  0.2511  0.5618
19509TIP3    H279943   4.226   2.128   3.461 -0.4163  0.8413  0.0817
19510TIP3   OH279944   5.745   1.324  15.483  0.2815 -0.4979  0.7635
19510TIP3    H179945   5.705   1.343  15.398  1.1354 -0.5794  0.3395
19510TIP3    H279946   5.723   1.400  15.537  0.6190  0.0466  0.1542
19511TIP3   OH279947   3.947   5.521  16.259  0.3170  0.0164  0.2157
19511TIP3    H179948   3.853   5.503  16.259  0.2391  0.0543 -2.6858
19511TIP3    H279949   3.960   5.578  16.335 -2.5585  2.3818 -0.8518
19512TIP3   OH279950   3.896   0.201   2.145 -0.0236  0.0623  0.3844
19512TIP3    H179951   3.894   0.293   2.170 -2.1738  0.2621 -0.2949
19512TIP3    H279952   3.873   0.154   2.225  0.0855  0.1788  0.4847
19513TIP3   OH279953   2.279   4.319   3.462 -0.4251 -0.1703  0.5922
19513TIP3    H179954   2.196   4.295   3.503 -0.2503 -0.6928  0.6395
19513TIP3    H279955   2.289   4.412   3.483 -1.5853  0.2251 -0.4146
19514TIP3   OH279956   1.830   3.115   1.393 -0.2123  0.1671 -0.0264
19514TIP3    H179957   1.881   3.125   1.473  0.2039  1.9712 -0.4747
19514TIP3    H279958   1.819   3.020   1.383  0.9937 -0.1528  1.3607
19515TIP3   OH279959   2.628   2.021  12.745  0.5474  0.0690 -0.0024
19515TIP3    H179960   2.594   2.013  12.834  2.7928 -2.8649  0.7313
19515TIP3    H279961   2.559   1.985  12.690  0.2483 -0.7206  0.8647
19516TIP3   OH279962   6.533   0.057  14.980 -0.2762 -0.0392  0.3531
19516TIP3    H179963   6.534   0.016  14.894  0.0176  1.2356 -0.2736
19516TIP3    H279964   6.614   0.027  15.022 -0.6866 -1.0942  0.4001
19517TIP3   OH279965   0.911   4.011  10.856  0.3365  0.2081  0.0730
19517TIP3    H179966   0.915   4.045  10.766 -2.5695  0.0690 -0.2116
19517TIP3    H279967   0.911   4.089  10.911  1.9963  0.2983 -0.0086
19518TIP3   OH279968   5.244   6.122  10.760 -0.1798 -0.5156 -0.2854
19518TIP3    H179969   5.157   6.152  10.732 -1.1818 -2.7316  0.2565
19518TIP3    H279970   5.288   6.101  10.678 -0.7680 -0.9225 -0.5090
19519TIP3   OH279971   1.404   3.815  16.853 -0.1769 -0.4064 -0.3795
19519TIP3    H179972   1.495   3.795  16.830  0.0129  0.4224 -0.4053
19519TIP3    H279973   1.407   3.906  16.884 -1.3184  0.4403 -2.4565
19520TIP3   OH279974   0.067   5.264  15.719  0.0473  0.1462 -0.4590
19520TIP3    H179975   0.074   5.305  15.805  1.4884  0.3134 -0.6274
19520TIP3    H279976   0.080   5.336  15.657 -1.7405  0.1668 -0.8546
19521TIP3   OH279977   0.662   4.082   5.981 -0.0579 -0.5953  0.7390
19521TIP3    H179978   0.746   4.072   5.935 -0.2726  0.1324  0.1641
19521TIP3    H279979   0.681   4.143   6.052 -0.9062  2.9360 -1.7954
19522TIP3   OH279980   0.535   0.762  15.686 -0.0862 -0.1489  0.4764
19522TIP3    H179981   0.446   0.758  15.721 -0.8760 -0.3247 -1.4100
19522TIP3    H279982   0.554   0.673  15.657  0.9431 -0.2332  1.3243
19523TIP3   OH279983   4.584   1.051   4.868 -0.7414 -0.1286 -0.3914
19523TIP3    H179984   4.530   0.973   4.855 -2.2606  1.1079 -1.8065
19523TIP3    H279985   4.642   1.027   4.941 -1.8071 -2.2193 -0.1460
19524TIP3   OH279986   4.295   5.419  16.018 -0.1428  0.0828 -0.8331
19524TIP3    H179987   4.296   5.406  16.113  3.0247  2.4854 -0.3533
19524TIP3    H279988   4.212   5.463  16.001  0.2319  1.7981  1.2790
19525TIP3   OH279989   0.644   5.058  16.360  0.3727  0.5341 -0.5410
19525TIP3    H179990   0.612   5.016  16.440  0.8627 -0.5365 -0.8944
19525TIP3    H279991   0.686   4.988  16.311  1.0544  1.4093 -1.2369
19526TIP3   OH279992   0.972   4.404  14.100 -0.0395 -0.0804  0.2116
19526TIP3    H179993   0.944   4.369  14.185 -0.9067 -2.2090 -0.8498
19526TIP3    H279994   0.926   4.349  14.036  2.8943 -0.6070 -1.6565
19527TIP3   OH279995   5.091   6.487   6.350  0.1233 -0.2168  0.2406
19527TIP3    H179996   5.011   6.538   6.339 -0.3472 -0.6005  1.6066
19527TIP3    H279997   5.142   6.535   6.415  0.8276 -0.1841 -0.3239
19528TIP3   OH279998   1.519   0.851   3.703 -0.2841 -0.8092  0.0103
19528TIP3    H179999   1.557   0.936   3.681  0.5284 -1.1447  0.0656
19528TIP3    H280000   1.476   0.822   3.622 -1.3634  0.0490  0.2503
19529TIP3   OH280001   3.676   0.737  12.411 -0.2756 -0.4081 -0.3340
19529TIP3    H180002   3.715   0.700  12.333  0.2050 -2.5464  0.8485
19529TIP3    H280003   3.597   0.685  12.426 -0.1054 -0.3582  0.8586
19530TIP3   OH280004   5.213   2.965  14.839 -0.1474 -0.2117 -0.3857
19530TIP3    H180005   5.182   3.046  14.798  2.0456  1.1898  0.5796
19530TIP3    H280006   5.216   2.902  14.767 -2.3026  0.3699 -1.0808
19531TIP3   OH280007   5.864   3.103  13.863  0.1004  0.3394  0.1151
19531TIP3    H180008   5.957   3.093  13.845  0.3900  1.6479  0.8274
19531TIP3    H280009   5.857   3.105  13.958 -0.5232  1.2838  0.0628
19532TIP3   OH280010   2.860   2.554   2.273  0.1856 -0.0241 -0.2176
19532TIP3    H180011   2.935   2.570   2.331  1.2044  1.1687 -1.7833
19532TIP3    H280012   2.871   2.464   2.244  0.8255  0.0398 -0.1842
19533TIP3   OH280013   4.966   0.230  11.564  1.0366  0.3343  0.2485
19533TIP3    H180014   5.006   0.191  11.642  1.6208 -1.4595 -0.8907
19533TIP3    H280015   4.906   0.297  11.599  0.3433 -1.2450  2.3016
19534TIP3   OH280016   1.998   3.974   4.084  0.0131  0.4984  0.0200
19534TIP3    H180017   1.924   3.927   4.045  0.1235  2.3673 -2.7381
19534TIP3    H280018   1.961   4.016   4.161 -0.3764 -2.8910  1.9101
19535TIP3   OH280019   5.453   4.096  13.735 -0.5883 -0.1198 -0.4516
19535TIP3    H180020   5.408   4.041  13.798  0.1427  1.2045  1.3026
19535TIP3    H280021   5.405   4.179  13.737 -0.1931  0.1361 -1.1980
19536TIP3   OH280022   2.368   1.073   0.712 -0.0016 -0.1913 -0.1449
19536TIP3    H180023   2.334   1.037   0.794  1.3040 -0.0045  0.5102
19536TIP3    H280024   2.404   0.997   0.666  1.0668 -0.0249  0.3857
19537TIP3   OH280025   1.705   4.620   1.576  0.3629 -0.1756  0.2343
19537TIP3    H180026   1.779   4.568   1.544  0.8078  0.6794 -0.1679
19537TIP3    H280027   1.688   4.586   1.664  1.7372  0.1066  0.6405
19538TIP3   OH280028   0.638   1.912  11.005  0.1351  0.1567  0.3281
19538TIP3    H180029   0.716   1.856  11.005  1.0539  1.3980  0.1632
19538TIP3    H280030   0.666   1.992  10.961 -1.1932  0.7065  0.4383
19539TIP3   OH280031   3.285   4.556   3.551  0.1666 -0.4920 -0.2932
19539TIP3    H180032   3.256   4.483   3.496  1.1878  0.3682 -2.0514
19539TIP3    H280033   3.296   4.517   3.638 -3.0742 -1.5417 -0.1985
19540TIP3   OH280034   2.136   0.300   2.026  0.1761  0.4658 -0.3782
19540TIP3    H180035   2.076   0.228   2.007  0.6630  0.7756 -3.4916
19540TIP3    H280036   2.089   0.379   1.997  0.6678  1.1424  0.5939
19541TIP3   OH280037   2.093   6.192   5.847 -0.1698 -0.3875 -0.2025
19541TIP3    H180038   2.084   6.114   5.902  0.1312  0.3537  0.9415
19541TIP3    H280039   2.058   6.263   5.901  1.0398  0.5202 -0.5735
19542TIP3   OH280040   5.811   5.899   0.464  0.0319  0.1116  0.5615
19542TIP3    H180041   5.761   5.819   0.446 -0.8105  0.5171  1.0703
19542TIP3    H280042   5.884   5.869   0.519  0.6385 -0.5572 -0.5710
19543TIP3   OH280043   5.813   5.819   3.853  0.4536 -0.0315  0.2074
19543TIP3    H180044   5.870   5.862   3.790 -0.9604  0.8828 -0.5194
19543TIP3    H280045   5.727   5.860   3.839 -0.3996 -1.3968  1.1882
19544TIP3   OH280046   5.624   3.973  15.349 -1.0755 -0.1524 -0.4977
19544TIP3    H180047   5.594   3.928  15.270  0.5745  0.1934 -1.3602
19544TIP3    H280048   5.648   3.902  15.409  0.3080 -0.4637 -1.3758
19545TIP3   OH280049   3.673   6.610   4.670  0.7394  1.0631 -0.0618
19545TIP3    H180050   3.748   6.600   4.611  0.4563 -1.3336 -0.1336
19545TIP3    H280051   3.632   6.693   4.644  2.0528  1.2881 -1.5409
19546TIP3   OH280052   0.787   0.875  13.282 -0.1233 -0.5407  0.6185
19546TIP3    H180053   0.803   0.817  13.357 -1.8373 -1.8295  0.0431
19546TIP3    H280054   0.692   0.885  13.279 -0.0168  0.2230 -0.8510
19547TIP3   OH280055   2.363   6.376   0.424  0.0993 -0.1817 -0.5562
19547TIP3    H180056   2.271   6.356   0.409 -0.3763  2.2720 -1.2190
19547TIP3    H280057   2.368   6.397   0.518  0.7321 -3.5114  0.3222
19548TIP3   OH280058   4.894   5.647  12.141 -0.6399  0.0665  0.3508
19548TIP3    H180059   4.871   5.561  12.177  1.6185 -0.9407 -0.4001
19548TIP3    H280060   4.974   5.672  12.188 -0.0463  0.7220 -0.9518
19549TIP3   OH280061   0.658   0.940  16.645 -0.4173 -0.0813 -0.2603
19549TIP3    H180062   0.614   0.880  16.705 -2.2088  1.7466  0.3737
19549TIP3    H280063   0.660   0.893  16.561 -0.4438 -1.5505  0.5199
19550TIP3   OH280064   4.943   2.641   2.087  0.2785  0.0241  0.2998
19550TIP3    H180065   5.023   2.595   2.061 -0.6566 -1.2718 -0.3944
19550TIP3    H280066   4.935   2.713   2.024 -0.6109 -1.5798 -1.5312
19551TIP3   OH280067   3.006   5.386  11.825 -0.1276 -0.1481 -0.0673
19551TIP3    H180068   2.940   5.435  11.776 -1.2711  0.2227  1.7408
19551TIP3    H280069   2.971   5.298  11.832  0.0148 -0.1902  0.1205
19552TIP3   OH280070   0.209   5.227   1.674 -0.1340  0.2560 -0.2813
19552TIP3    H180071   0.130   5.233   1.727  0.8871 -1.5561  1.5964
19552TIP3    H280072   0.210   5.137   1.641  0.6951  0.5231 -1.0387
19553TIP3   OH280073   2.090   3.368  16.419  0.0689  0.1463  0.1862
19553TIP3    H180074   2.063   3.442  16.364  1.1380  0.4206  0.0098
19553TIP3    H280075   2.073   3.399  16.508  0.0918  0.4358  0.0931
19554TIP3   OH280076   0.297   4.396  16.459  0.1403 -0.0810  0.2950
19554TIP3    H180077   0.264   4.366  16.543 -0.2659 -0.0124  0.1622
19554TIP3    H280078   0.373   4.341  16.442 -0.7477 -1.2189 -0.0751
19555TIP3   OH280079   5.236   5.974  12.321  0.4581  0.5359 -0.1462
19555TIP3    H180080   5.285   6.000  12.243 -0.1192  1.5227 -0.1980
19555TIP3    H280081   5.222   5.881  12.310  1.6246  0.3797 -0.5200
19556TIP3   OH280082   4.922   2.076   1.119 -0.0135  0.4584  0.2209
19556TIP3    H180083   4.831   2.047   1.112 -0.7705  2.7831 -0.3929
19556TIP3    H280084   4.938   2.086   1.213 -0.2366 -0.3648  0.3517
19557TIP3   OH280085   3.809   3.543   6.647  0.3885 -0.3785 -0.8804
19557TIP3    H180086   3.718   3.523   6.626  0.0406  0.0773  0.1335
19557TIP3    H280087   3.857   3.462   6.629 -0.1351 -0.4794 -1.8609
19558TIP3   OH280088   4.599   1.064   3.430  0.4711 -0.0758 -0.1138
19558TIP3    H180089   4.504   1.063   3.420  0.3591  2.0685  0.3133
19558TIP3    H280090   4.613   1.086   3.522  1.3959 -0.5665 -0.1256
19559TIP3   OH280091   5.127   1.317   3.649 -0.0071 -0.3588 -0.2449
19559TIP3    H180092   5.087   1.233   3.673  1.2728 -0.8863  0.1253
19559TIP3    H280093   5.104   1.376   3.722  0.0084 -0.6949  0.0358
19560TIP3   OH280094   2.861   2.774   0.106  0.0550  0.1590 -0.3292
19560TIP3    H180095   2.849   2.861   0.144 -2.2461  0.8161 -2.3364
19560TIP3    H280096   2.891   2.790   0.017  0.3972 -1.1481 -0.4796
19561TIP3   OH280097   0.414   6.139   1.539 -0.5324 -0.1788  0.2985
19561TIP3    H180098   0.430   6.082   1.465 -1.6375  1.2151 -1.0971
19561TIP3    H280099   0.499   6.177   1.560 -0.3600  0.1009 -0.8689
19562TIP3   OH280100   4.669   5.005   6.275 -0.4049  0.2355 -0.1065
19562TIP3    H180101   4.711   4.933   6.322  0.4365  0.3977 -0.5680
19562TIP3    H280102   4.584   5.015   6.316 -0.3270 -0.6805  0.3076
19563TIP3   OH280103   3.038   3.923  16.514 -0.2644  0.4862  0.6700
19563TIP3    H180104   3.011   3.966  16.433 -0.2762 -0.6875  0.0372
19563TIP3    H280105   3.116   3.972  16.542 -0.1681  0.8050 -0.1314
19564TIP3   OH280106   4.665   4.420  11.791  0.1278 -0.1569 -0.1840
19564TIP3    H180107   4.744   4.448  11.837  0.2880  0.0016 -0.5465
19564TIP3    H280108   4.600   4.487  11.813 -0.8177 -1.8232  2.5169
19565TIP3   OH280109   0.583   0.962   1.162 -0.5466  0.0725  0.1274
19565TIP3    H180110   0.636   0.996   1.234  0.6505 -1.5547  0.0480
19565TIP3    H280111   0.629   0.884   1.132 -2.5476 -0.9292 -0.5174
19566TIP3   OH280112   4.638   1.078  14.031 -0.2320 -0.0016  0.1429
19566TIP3    H180113   4.700   1.060  13.960  1.1173  1.4631  0.8759
19566TIP3    H280114   4.685   1.050  14.110 -0.2587  1.6208  0.7604
19567TIP3   OH280115   4.971   5.359  11.917 -0.0594  0.1800 -0.1865
19567TIP3    H180116   5.016   5.276  11.903  0.0490  0.1042  0.5655
19567TIP3    H280117   5.042   5.421  11.936 -0.2771 -0.0564  1.5686
19568TIP3   OH280118   5.225   1.040  14.561  0.2839  0.3208 -0.1930
19568TIP3    H180119   5.260   1.022  14.474  0.5419 -0.5868  0.0861
19568TIP3    H280120   5.245   1.132  14.576  2.9239 -0.2163  0.0690
19569TIP3   OH280121   3.538   2.570  14.653  0.2691  0.1567  0.1515
19569TIP3    H180122   3.552   2.664  14.650  2.5432 -0.0957 -2.8318
19569TIP3    H280123   3.616   2.535  14.697  0.6165 -0.4067 -0.8694
19570TIP3   OH280124   1.531   4.996   3.175 -0.2869  0.0152  0.6280
19570TIP3    H180125   1.617   4.962   3.152 -0.6234 -1.4912  1.4693
19570TIP3    H280126   1.475   4.972   3.101 -0.2456 -0.1139  0.6378
19571TIP3   OH280127   5.214   0.220  12.423 -0.4617  0.1272 -0.1309
19571TIP3    H180128   5.222   0.220  12.519  2.5603 -1.3903 -0.2882
19571TIP3    H280129   5.173   0.136  12.403 -1.0094  0.4056 -0.2004
19572TIP3   OH280130   0.838   2.629   1.741 -0.1406  0.1275  0.8193
19572TIP3    H180131   0.832   2.709   1.794 -0.0882 -0.8457  2.3647
19572TIP3    H280132   0.932   2.616   1.728 -0.1020 -0.1363  1.3223
19573TIP3   OH280133   1.591   3.017   1.229  0.0258  0.4090  0.1456
19573TIP3    H180134   1.609   3.110   1.212  0.7593  0.9041  3.1917
19573TIP3    H280135   1.497   3.008   1.215 -0.7866  2.5718  3.3360
19574TIP3   OH280136   5.057   1.123   6.552  0.2414  0.0023 -0.2638
19574TIP3    H180137   5.040   1.031   6.532  1.9404 -0.2481 -0.7159
19574TIP3    H280138   5.130   1.121   6.613  0.1893  1.0562 -0.1572
19575TIP3   OH280139   4.900   6.102  14.547 -0.4077  0.3235  0.2863
19575TIP3    H180140   4.957   6.042  14.498 -1.2895  0.3897 -0.8617
19575TIP3    H280141   4.851   6.045  14.607 -0.1250  0.0966  0.3049
19576TIP3   OH280142   0.030   3.743  11.732 -0.2957 -0.4494  0.4185
19576TIP3    H180143  -0.032   3.809  11.699  1.1230  0.2975 -0.8916
19576TIP3    H280144  -0.003   3.721  11.819 -2.0703  0.3375 -0.0002
19577TIP3   OH280145   2.275   0.995  16.397 -0.3263 -0.2068  0.1225
19577TIP3    H180146   2.269   1.010  16.491 -0.0682  0.0704  0.0947
19577TIP3    H280147   2.243   1.076  16.358 -0.1881 -0.2240 -0.0284
19578TIP3   OH280148   0.819   4.604   3.819 -0.6215  0.1287 -0.1472
19578TIP3    H180149   0.851   4.515   3.805  0.4347  0.2356  1.3289
19578TIP3    H280150   0.877   4.640   3.886 -0.5160  2.2180 -1.2757
19579TIP3   OH280151   0.965   0.108   4.514  0.0333 -0.0521  0.5318
19579TIP3    H180152   0.987   0.123   4.606  1.5535 -0.4274  0.2581
19579TIP3    H280153   0.985   0.191   4.471 -1.3282  0.3483  0.6213
19580TIP3   OH280154   6.686   5.767   5.315 -0.2797 -0.3927 -0.3328
19580TIP3    H180155   6.650   5.779   5.402 -1.5133 -0.8664 -0.7511
19580TIP3    H280156   6.680   5.853   5.274  0.4428 -0.1345  0.0855
19581TIP3   OH280157   3.296   0.988  13.765 -0.0349  0.6033  0.1550
19581TIP3    H180158   3.243   0.960  13.691 -0.7438  3.1920 -0.4272
19581TIP3    H280159   3.233   1.006  13.835  0.5060 -0.4338  0.9405
19582TIP3   OH280160   0.943   5.786   0.756  0.4966  0.4309  0.4487
19582TIP3    H180161   0.885   5.862   0.770 -1.3302 -0.5724 -1.1775
19582TIP3    H280162   0.893   5.712   0.789  0.9708 -0.4357 -0.7219
19583TIP3   OH280163   1.554   1.387  13.353  0.2849 -0.0988  0.0678
19583TIP3    H180164   1.565   1.338  13.272  0.9624  1.2754 -0.7016
19583TIP3    H280165   1.537   1.477  13.324  0.5980  0.4237  1.4566
19584TIP3   OH280166   0.050   2.896   3.652  0.3027  0.2373 -0.3173
19584TIP3    H180167  -0.017   2.922   3.589 -0.4606 -1.0835 -0.0853
19584TIP3    H280168   0.118   2.855   3.599  0.0545 -0.1100 -0.3686
19585TIP3   OH280169   1.180   2.889  13.739 -0.4476  0.0502 -0.0684
19585TIP3    H180170   1.114   2.957  13.731 -1.7150 -1.2843 -1.5632
19585TIP3    H280171   1.151   2.819  13.681  1.6634 -1.1073  0.1403
19586TIP3   OH280172   1.115   2.173  15.027  0.2108  0.1257  0.0900
19586TIP3    H180173   1.127   2.099  15.087 -1.0771  0.2333  0.5130
19586TIP3    H280174   1.123   2.250  15.083 -1.6642  0.2185  0.3220
19587TIP3   OH280175   2.707   2.174   1.123 -0.3276  0.0565 -0.0645
19587TIP3    H180176   2.713   2.100   1.182 -1.7723 -0.2029 -0.2186
19587TIP3    H280177   2.691   2.249   1.180  0.0832  0.0965  0.0039
19588TIP3   OH280178   5.190   3.740  10.723  0.2608 -0.1201 -0.8106
19588TIP3    H180179   5.108   3.786  10.701  0.7895  0.5537 -1.4307
19588TIP3    H280180   5.259   3.801  10.696  0.9641 -0.1468  0.8511
19589TIP3   OH280181   6.378   6.217  13.832  0.3566 -0.2350 -0.5009
19589TIP3    H180182   6.370   6.223  13.927 -2.9270  0.6864 -0.7178
19589TIP3    H280183   6.337   6.133  13.810 -1.3518  0.7275 -1.2087
19590TIP3   OH280184   2.323   3.844   5.141 -0.0123 -0.0834  0.2976
19590TIP3    H180185   2.251   3.897   5.106  0.5280  1.3212  1.2192
19590TIP3    H280186   2.280   3.782   5.199 -0.5787  0.0145 -0.0091
19591TIP3   OH280187   4.613   2.371   3.720 -0.0086  0.5975  0.0815
19591TIP3    H180188   4.664   2.408   3.648  0.1704  0.0902 -0.0571
19591TIP3    H280189   4.647   2.282   3.730 -1.3530 -0.0183 -0.5179
19592TIP3   OH280190   5.919   0.510  11.810 -0.9187  0.0173 -0.5127
19592TIP3    H180191   5.979   0.466  11.750 -0.0496 -0.6916  0.8104
19592TIP3    H280192   5.961   0.595  11.828 -0.4737 -0.3256  0.1207
19593TIP3   OH280193   5.130   1.937  11.074 -0.2257 -0.2070 -0.0644
19593TIP3    H180194   5.161   2.026  11.091 -0.8589  0.5932 -2.6344
19593TIP3    H280195   5.124   1.931  10.979 -1.9011 -2.4217  0.0846
19594TIP3   OH280196   2.516   3.672  13.611  0.1169 -0.1131  0.5129
19594TIP3    H180197   2.493   3.757  13.647  0.3618 -0.0035  0.4165
19594TIP3    H280198   2.588   3.641  13.666 -0.6228 -0.7038  1.1610
19595TIP3   OH280199   2.331   6.559  17.360  0.5614  0.0289 -0.2643
19595TIP3    H180200   2.311   6.470  17.329  0.1819 -0.1192  0.3683
19595TIP3    H280201   2.391   6.545  17.433  2.1402  0.4178 -1.4450
19596TIP3   OH280202   0.970   4.365  13.807 -0.4660  0.1510 -0.2519
19596TIP3    H180203   1.049   4.350  13.860 -0.7002 -2.4611 -0.4829
19596TIP3    H280204   1.003   4.374  13.718 -0.3752 -0.0476 -0.2392
19597TIP3   OH280205   5.791   0.613  14.322  0.1292  0.3408  0.6697
19597TIP3    H180206   5.758   0.703  14.321 -3.6094 -0.8305 -1.1637
19597TIP3    H280207   5.855   0.610  14.251 -2.0012  0.9690 -1.4137
19598TIP3   OH280208   4.781   3.058  13.876  0.0372 -0.4693 -0.0985
19598TIP3    H180209   4.701   3.006  13.866 -0.5861  0.5738 -0.6616
19598TIP3    H280210   4.765   3.112  13.954  0.1548 -0.1833 -0.2731
19599TIP3   OH280211   5.618   1.280  13.655 -0.5286 -0.0650 -0.0707
19599TIP3    H180212   5.556   1.208  13.658 -1.5043  0.7704  0.4220
19599TIP3    H280213   5.642   1.296  13.746 -0.5777  0.4273 -0.1379
19600TIP3   OH280214   4.634   2.089   4.483  0.2302 -0.3562 -0.4325
19600TIP3    H180215   4.620   2.139   4.403  1.3148  1.4777  0.4615
19600TIP3    H280216   4.676   2.008   4.454 -0.5558 -0.2986 -1.8141
19601TIP3   OH280217   4.378   1.135  11.045 -0.2404 -0.2635 -0.3605
19601TIP3    H180218   4.419   1.050  11.061 -0.2910 -0.5672 -1.6855
19601TIP3    H280219   4.339   1.160  11.129 -0.1952 -1.5229  0.0532
19602TIP3   OH280220   5.544   1.533  15.867  0.1636 -0.2919  0.2090
19602TIP3    H180221   5.545   1.448  15.912 -0.5165 -1.0151 -1.1020
19602TIP3    H280222   5.636   1.549  15.845  0.2887 -0.7014  0.4225
19603TIP3   OH280223   1.867   2.965   0.270  0.8257  0.5015 -0.3011
19603TIP3    H180224   1.924   3.028   0.228  1.6641  1.2562  1.8492
19603TIP3    H280225   1.849   2.900   0.202  2.8250  1.1571 -1.5350
19604TIP3   OH280226   1.580   4.867  17.216 -0.1685 -0.2814  0.6155
19604TIP3    H180227   1.523   4.942  17.232  0.1196  0.1803 -0.4092
19604TIP3    H280228   1.559   4.805  17.286 -1.2707  0.2533  0.7794
19605TIP3   OH280229   6.585   6.453   4.941  0.2118  0.1680  0.2600
19605TIP3    H180230   6.517   6.400   4.982  0.3320 -0.5320 -0.4387
19605TIP3    H280231   6.591   6.421   4.852  0.3147  1.3372 -0.1788
19606TIP3   OH280232   6.242   5.820   6.298  0.5032 -0.5539  0.2974
19606TIP3    H180233   6.332   5.841   6.272 -0.0258 -0.0481 -1.2105
19606TIP3    H280234   6.242   5.725   6.306  0.4273 -0.9333 -2.9209
19607TIP3   OH280235   2.454   4.485   3.234  0.0016  0.1499  0.8403
19607TIP3    H180236   2.367   4.514   3.206  0.1020  0.7770  1.1714
19607TIP3    H280237   2.437   4.420   3.302 -0.2357 -1.0380 -0.3127
19608TIP3   OH280238   4.602   0.621   5.498  0.1909 -0.0541  0.0835
19608TIP3    H180239   4.663   0.591   5.431  1.1648 -0.0124  0.9212
19608TIP3    H280240   4.639   0.704   5.528  0.7865 -0.9314  1.9167
19609TIP3   OH280241   6.223   1.926   2.739 -0.2279  0.3254  0.1842
19609TIP3    H180242   6.236   1.894   2.650 -1.8014 -0.7110  0.2854
19609TIP3    H280243   6.221   1.847   2.793  1.4482  0.9784  1.2804
19610TIP3   OH280244   1.498   4.850   6.329  0.0889  0.5031 -0.0276
19610TIP3    H180245   1.504   4.797   6.409  1.2565 -1.5799 -1.4035
19610TIP3    H280246   1.450   4.928   6.356  1.0674  0.2224  2.8743
19611TIP3   OH280247   2.350   1.565   3.478  0.5299 -0.0588 -0.0111
19611TIP3    H180248   2.286   1.530   3.539  0.9628 -1.7800 -0.4813
19611TIP3    H280249   2.435   1.548   3.519  0.7478  1.0917  0.0487
19612TIP3   OH280250   2.806   1.544   0.134 -0.8999  0.5750 -0.1383
19612TIP3    H180251   2.806   1.458   0.093  1.8257  0.6936 -0.5563
19612TIP3    H280252   2.754   1.599   0.075 -0.8047 -0.2811 -1.0380
19613TIP3   OH280253   6.643   6.240  13.767 -0.2673  0.0755  0.2012
19613TIP3    H180254   6.576   6.229  13.835 -1.0814  0.3735 -0.5409
19613TIP3    H280255   6.640   6.334  13.745  0.3500  0.0817  0.1032
19614TIP3   OH280256   0.581   4.459  13.442 -0.4644  0.1623  0.7614
19614TIP3    H180257   0.580   4.366  13.423  0.6703  0.3127 -0.1515
19614TIP3    H280258   0.512   4.496  13.386 -0.3450 -0.0166  0.4954
19615TIP3   OH280259   2.274   4.720  16.358 -0.5839  0.2091  0.0808
19615TIP3    H180260   2.225   4.702  16.278  0.3123 -1.7075 -0.0883
19615TIP3    H280261   2.349   4.772  16.329 -2.3317  3.0701  0.3263
19616TIP3   OH280262   3.330   0.624  15.039  0.0571 -0.2738 -0.0667
19616TIP3    H180263   3.248   0.621  14.991 -2.5131  1.1620  3.7393
19616TIP3    H280264   3.369   0.708  15.015  1.0491 -1.3637 -2.6012
19617TIP3   OH280265   5.045   2.305   5.767  0.2716  0.0918  0.1681
19617TIP3    H180266   5.120   2.355   5.800 -1.0579  1.8994  0.5820
19617TIP3    H280267   4.994   2.369   5.717  0.2417 -1.6735 -2.2516
19618TIP3   OH280268   1.989   4.079   5.464  1.2009 -0.3783  0.8588
19618TIP3    H180269   1.939   4.161   5.468 -0.1703 -1.0615 -0.9605
19618TIP3    H280270   2.050   4.085   5.538 -1.0968  0.7973  2.8122
19619TIP3   OH280271   1.883   5.820   5.852  0.1222 -0.4930 -0.0912
19619TIP3    H180272   1.835   5.737   5.849 -2.3233  0.8292 -0.2530
19619TIP3    H280273   1.923   5.822   5.939 -0.9089 -1.2699  0.4103
19620TIP3   OH280274   1.703   1.900   3.425  0.4624 -0.0132  0.6959
19620TIP3    H180275   1.739   1.978   3.381 -0.5026  0.6258  1.0156
19620TIP3    H280276   1.609   1.905   3.409  0.3232 -0.7837  1.2496
19621TIP3   OH280277   0.724   5.553   5.889  0.2162  0.3810 -0.1131
19621TIP3    H180278   0.710   5.493   5.963  1.1847  1.0476  0.6445
19621TIP3    H280279   0.651   5.535   5.830 -1.5372  0.9145  1.7319
19622TIP3   OH280280   3.728   3.486  16.071  0.0621  0.2334  0.1161
19622TIP3    H180281   3.763   3.546  16.005 -0.3598 -1.3396 -1.5967
19622TIP3    H280282   3.802   3.466  16.127  0.7308  0.6415 -0.5992
19623TIP3   OH280283   3.688   0.680   2.220 -0.5281 -0.5008  0.0428
19623TIP3    H180284   3.708   0.611   2.284  1.5981 -0.6971 -0.7309
19623TIP3    H280285   3.760   0.743   2.230 -0.6436 -0.0788 -1.5050
19624TIP3   OH280286   5.679   2.250  16.332 -0.2034  0.0469  0.2513
19624TIP3    H180287   5.682   2.340  16.364 -0.0679  0.4171 -0.7764
19624TIP3    H280288   5.642   2.257  16.244 -2.3121 -1.1361  0.9615
19625TIP3   OH280289   1.834   4.903   0.287 -0.4295  0.1610  0.1121
19625TIP3    H180290   1.820   4.809   0.295  0.6619  0.1624  3.4478
19625TIP3    H280291   1.765   4.943   0.341  2.1678  0.8845  3.1785
19626TIP3   OH280292   5.721   6.039  12.849  0.2270  0.1723 -0.3447
19626TIP3    H180293   5.728   6.135  12.845  0.3843  0.1440 -0.8380
19626TIP3    H280294   5.804   6.011  12.888 -1.5272  0.4869  4.1159
19627TIP3   OH280295   1.347   5.027   4.829 -0.9274 -0.5255 -0.6441
19627TIP3    H180296   1.408   5.091   4.792 -0.5504 -0.2941  0.3359
19627TIP3    H280297   1.260   5.056   4.799 -1.0360  1.7934  1.4900
19628TIP3   OH280298   1.415   1.887   4.038  0.1934  0.8896  0.2574
19628TIP3    H180299   1.406   1.967   4.089 -1.0519  0.8130  0.1703
19628TIP3    H280300   1.361   1.822   4.083  1.0516  0.1341  0.2316
19629TIP3   OH280301   5.081   1.026   0.053 -0.2014 -0.6420  0.3781
19629TIP3    H180302   5.108   0.958  -0.008  1.7011  0.1849  0.2293
19629TIP3    H280303   5.153   1.031   0.116 -0.9753  0.2390  1.2191
19630TIP3   OH280304   0.189   1.824   2.622  0.1869  0.0726 -0.0583
19630TIP3    H180305   0.115   1.816   2.562 -0.4181 -0.8104  0.7757
19630TIP3    H280306   0.239   1.743   2.609  1.0717  0.6906 -0.6666
19631TIP3   OH280307   5.949   6.370  16.085  0.2686 -0.2008 -0.3580
19631TIP3    H180308   5.860   6.349  16.057 -0.2690  1.1541  0.2725
19631TIP3    H280309   5.940   6.447  16.141  1.9064  0.3961 -0.8430
19632TIP3   OH280310   3.282   5.793   4.235 -0.3737 -0.0953 -0.2345
19632TIP3    H180311   3.356   5.736   4.215 -0.6851  0.6837 -4.7271
19632TIP3    H280312   3.220   5.737   4.283  2.1701 -1.3236  1.8425
19633TIP3   OH280313   5.671   0.098  15.647 -0.1168  0.1545  0.7571
19633TIP3    H180314   5.613   0.034  15.605  0.1641  0.0613  0.5029
19633TIP3    H280315   5.758   0.075  15.615 -0.0234  0.7210  0.5960
19634TIP3   OH280316   5.580   2.387   4.073 -0.0703  0.3382  0.5421
19634TIP3    H180317   5.539   2.304   4.049 -0.3377  0.5935  0.0886
19634TIP3    H280318   5.670   2.380   4.042 -0.6092  0.9577 -1.3109
19635TIP3   OH280319   1.895   2.043  15.302  0.4934  0.6084 -0.1410
19635TIP3    H180320   1.818   2.093  15.273 -0.2137  1.2219  2.4912
19635TIP3    H280321   1.969   2.089  15.263 -0.3495  1.4300 -0.8446
19636TIP3   OH280322   6.041   0.748   4.545 -0.2210  0.5963 -0.7416
19636TIP3    H180323   5.994   0.811   4.490 -0.7850 -0.1253 -1.1052
19636TIP3    H280324   6.002   0.663   4.523 -1.3791  0.4014  1.6756
19637TIP3   OH280325   5.692   6.229   2.904 -0.0680 -0.3533  0.6053
19637TIP3    H180326   5.726   6.144   2.929 -0.3043 -0.3953  0.7858
19637TIP3    H280327   5.602   6.212   2.876 -0.4511 -0.0193  1.6027
19638TIP3   OH280328   3.855   4.776  13.383 -0.1109  0.5350  0.4926
19638TIP3    H180329   3.859   4.835  13.458 -0.8693  0.2184  0.7989
19638TIP3    H280330   3.784   4.715  13.405 -1.3140  1.2927 -1.1073
19639TIP3   OH280331   3.541   2.483  13.090  0.4771  0.1086  0.1952
19639TIP3    H180332   3.522   2.516  13.178 -0.4381 -1.7765  0.7693
19639TIP3    H280333   3.636   2.473  13.089  0.3552 -2.9899  2.3276
19640TIP3   OH280334   6.021   5.316  13.568 -0.0659  0.0154 -0.0757
19640TIP3    H180335   6.009   5.410  13.563 -1.2103 -0.1473 -0.8604
19640TIP3    H280336   5.933   5.280  13.553  0.5942 -1.1924 -1.3120
19641TIP3   OH280337   4.740   6.367  11.655 -0.1119 -0.2925 -0.1543
19641TIP3    H180338   4.805   6.417  11.706 -1.5618  1.3224  0.2105
19641TIP3    H280339   4.676   6.338  11.720 -0.5369 -0.5865 -0.6984
19642TIP3   OH280340   0.911   4.082  13.743 -0.5055 -0.0073  0.2034
19642TIP3    H180341   0.948   4.169  13.757  1.2221 -0.9402  1.9660
19642TIP3    H280342   0.908   4.071  13.648 -0.1774  1.7220 -0.0242
19643TIP3   OH280343   2.467   6.007   6.936  0.0587  0.5531  0.2737
19643TIP3    H180344   2.472   5.993   7.030 -1.4458  0.8165  0.4236
19643TIP3    H280345   2.474   5.919   6.898 -1.6213  0.1673  0.7767
19644TIP3   OH280346   2.131   3.726  13.242 -0.8515  0.4555  0.2599
19644TIP3    H180347   2.201   3.661  13.238 -1.6238 -0.4620  1.1483
19644TIP3    H280348   2.168   3.798  13.292 -0.3594  0.2316  0.2278
19645TIP3   OH280349   1.469   3.383  16.989  0.3064  0.5383  0.1035
19645TIP3    H180350   1.444   3.385  17.081  0.9243 -0.4769  0.3140
19645TIP3    H280351   1.452   3.292  16.962  0.2361  0.7975 -0.7555
19646TIP3   OH280352   2.160   5.700   5.045  0.6171  0.3640  0.4571
19646TIP3    H180353   2.195   5.629   5.098  1.2527 -2.2022 -2.9747
19646TIP3    H280354   2.235   5.757   5.028  0.5964  0.7369  1.5909
19647TIP3   OH280355   1.258   0.891   4.772 -0.5313  0.5039 -0.6467
19647TIP3    H180356   1.169   0.857   4.759 -0.1875 -0.5229 -0.3764
19647TIP3    H280357   1.286   0.856   4.856 -0.4295  2.0889  0.0052
19648TIP3   OH280358   3.928   4.573  12.697  0.3716 -0.1046 -0.5847
19648TIP3    H180359   3.904   4.517  12.623  1.0305 -1.1783 -0.0221
19648TIP3    H280360   4.011   4.612  12.672 -0.0835  0.6468 -0.9739
19649TIP3   OH280361   0.179   2.694  15.125 -0.2730  0.7488 -1.0138
19649TIP3    H180362   0.261   2.679  15.173 -1.4736 -0.5177  0.8129
19649TIP3    H280363   0.116   2.636  15.168 -2.3655  2.3727 -1.7275
19650TIP3   OH280364   1.138   0.599   2.920 -0.0690 -0.0063  0.5659
19650TIP3    H180365   1.174   0.687   2.907  0.5477 -0.3222  0.1040
19650TIP3    H280366   1.052   0.614   2.960 -0.1248  0.8197  0.1503
19651TIP3   OH280367   3.057   2.144   3.659 -0.2866 -0.2586  0.1193
19651TIP3    H180368   3.057   2.051   3.680 -0.3981 -0.3979 -0.4815
19651TIP3    H280369   2.967   2.172   3.674 -0.4288 -0.4175 -0.4220
19652TIP3   OH280370   0.493   1.867  14.512  0.5082  0.3835 -0.4845
19652TIP3    H180371   0.439   1.812  14.569 -1.9809  2.4936 -0.6271
19652TIP3    H280372   0.556   1.908  14.571 -0.0062  0.1875  0.2136
19653TIP3   OH280373   6.169   5.285   0.201  0.1528 -0.0562 -0.3135
19653TIP3    H180374   6.099   5.344   0.228  0.2436 -0.5604  1.1402
19653TIP3    H280375   6.138   5.197   0.225  1.2489 -0.2916  0.3739
19654TIP3   OH280376   5.330   6.598   5.375 -0.1213  0.1813 -0.2840
19654TIP3    H180377   5.385   6.525   5.403 -1.2748  0.1541  2.2123
19654TIP3    H280378   5.389   6.673   5.373  0.5442 -0.3371 -0.3506
19655TIP3   OH280379   5.808   1.375   1.093 -0.9629  0.2363  0.5878
19655TIP3    H180380   5.863   1.433   1.146 -1.5740  0.7482  0.6787
19655TIP3    H280381   5.855   1.292   1.091  0.3304  0.9463 -0.1945
19656TIP3   OH280382   1.108   4.803   2.037  0.0367  0.0133  0.2153
19656TIP3    H180383   1.023   4.771   2.068  0.0049 -0.4131 -0.3145
19656TIP3    H280384   1.120   4.763   1.951  1.8280 -1.8080  1.2265
19657TIP3   OH280385   5.949   4.997  11.990  0.2253 -0.4836  0.1098
19657TIP3    H180386   5.873   4.971  12.042  1.1127 -0.4296  1.4927
19657TIP3    H280387   5.996   5.060  12.045  0.0447  1.3309 -1.6870
19658TIP3   OH280388   3.869   4.652  16.046 -0.0957  0.0323  0.5080
19658TIP3    H180389   3.892   4.733  16.090  1.2302  0.6943 -1.3080
19658TIP3    H280390   3.773   4.656  16.039 -0.0065  1.8522 -0.2672
19659TIP3   OH280391   5.644   5.850   2.461 -0.1324  0.8419 -0.4847
19659TIP3    H180392   5.583   5.861   2.389 -1.6116  2.3464  0.9127
19659TIP3    H280393   5.730   5.867   2.423 -0.3975 -1.9172 -2.6401
19660TIP3   OH280394   5.940   1.389   5.797 -0.4005 -0.1876 -0.2703
19660TIP3    H180395   5.889   1.439   5.734  0.0449  0.0484 -0.4385
19660TIP3    H280396   6.031   1.409   5.778 -0.2536 -0.2297  0.3476
19661TIP3   OH280397   4.263   0.047   3.239  0.4568  0.0805 -0.0010
19661TIP3    H180398   4.205   0.039   3.314 -0.0122 -0.2530 -0.3937
19661TIP3    H280399   4.296  -0.041   3.225  0.1143  0.0324 -0.5234
19662TIP3   OH280400   5.191   5.134  13.834 -0.3834  0.1859  0.0253
19662TIP3    H180401   5.115   5.087  13.799 -0.2616  0.2136 -0.2723
19662TIP3    H280402   5.167   5.226  13.828 -0.4652  0.1827  0.2562
19663TIP3   OH280403   4.685   3.855  13.698 -0.0200 -0.7396  0.3127
19663TIP3    H180404   4.747   3.901  13.640  0.2197 -1.4802 -0.0354
19663TIP3    H280405   4.608   3.911  13.699 -0.0497 -0.7297 -0.7838
19664TIP3   OH280406   3.382   4.676   1.550  0.5058  0.0306  0.1740
19664TIP3    H180407   3.338   4.625   1.619  2.0487 -2.0421 -0.2822
19664TIP3    H280408   3.363   4.628   1.469  0.7328  1.0766 -0.5103
19665TIP3   OH280409   4.671   1.255  12.864 -0.3261 -0.3958 -0.5678
19665TIP3    H180410   4.712   1.283  12.946  2.4017  0.6221 -2.1266
19665TIP3    H280411   4.591   1.307  12.858 -0.6466 -0.5776  1.4435
19666TIP3   OH280412   1.492   2.615  16.753 -0.7202 -0.1806  0.0460
19666TIP3    H180413   1.445   2.675  16.810 -0.1392 -0.3507  0.7193
19666TIP3    H280414   1.497   2.533  16.802 -0.2105 -0.3267 -0.2371
19667TIP3   OH280415   4.155   0.392  14.967  0.4434  0.4217  0.4558
19667TIP3    H180416   4.183   0.332  15.037 -0.4146  0.2317  0.6533
19667TIP3    H280417   4.202   0.362  14.890  1.8286  0.9671  1.0438
19668TIP3   OH280418   3.670   1.345   4.183 -0.1344 -0.3997 -0.3249
19668TIP3    H180419   3.653   1.263   4.229 -0.5546  0.0529  0.3381
19668TIP3    H280420   3.762   1.365   4.202 -0.4263  0.0083  0.6870
19669TIP3   OH280421   4.611   6.266   3.392 -0.1577 -0.0221 -0.6114
19669TIP3    H180422   4.621   6.214   3.472 -0.1510  1.5272  0.4475
19669TIP3    H280423   4.631   6.205   3.321  1.8139 -0.9494  0.6465
19670TIP3   OH280424   2.965   1.921  15.130 -0.0836 -0.0593  0.3874
19670TIP3    H180425   2.958   1.834  15.089  1.1358  0.3824 -0.8554
19670TIP3    H280426   2.895   1.972  15.090  0.9239  0.2857 -1.0386
19671TIP3   OH280427   6.163   3.454   5.501 -0.3836  0.4936 -0.0143
19671TIP3    H180428   6.185   3.363   5.518 -0.8029  0.4964  0.5652
19671TIP3    H280429   6.236   3.487   5.449 -0.3357 -0.2326 -0.4245
19672TIP3   OH280430   4.846   2.719  12.419 -0.3652 -0.0734  0.5304
19672TIP3    H180431   4.793   2.709  12.339 -1.3518  0.3027  1.1223
19672TIP3    H280432   4.784   2.748  12.485 -0.0355 -2.5206  2.0400
19673TIP3   OH280433   5.934   4.968   4.183 -0.1648  0.1654  0.6159
19673TIP3    H180434   5.971   5.055   4.166  2.2819 -0.3561  2.6376
19673TIP3    H280435   6.010   4.913   4.202 -1.7766 -2.0122  1.1844
19674TIP3   OH280436   2.150   3.404  15.979 -0.2913  0.0868  0.0848
19674TIP3    H180437   2.228   3.457  15.991  0.5932 -1.2881  0.6338
19674TIP3    H280438   2.086   3.440  16.040  0.2351  0.6048  0.3310
19675TIP3   OH280439   3.933   2.600   5.774 -0.0580 -0.6380 -0.2476
19675TIP3    H180440   3.911   2.691   5.754 -0.3710 -0.9976 -1.5995
19675TIP3    H280441   4.011   2.606   5.829  1.1293  0.3985 -1.9479
19676TIP3   OH280442   4.247   0.358   0.662 -0.1438 -0.2090 -0.1681
19676TIP3    H180443   4.208   0.439   0.629  0.3701 -0.1936 -0.7559
19676TIP3    H280444   4.333   0.384   0.695 -0.6046 -0.2487  1.0796
19677TIP3   OH280445   5.315   5.599  13.471 -1.1226 -0.4103  0.0125
19677TIP3    H180446   5.223   5.626  13.475 -1.1410 -0.2851 -0.8935
19677TIP3    H280447   5.311   5.508  13.440 -0.9018  0.0573 -1.4508
19678TIP3   OH280448   2.140   2.299  12.188 -0.1474 -0.3410 -0.2058
19678TIP3    H180449   2.145   2.358  12.262  0.5764 -1.0930  0.3608
19678TIP3    H280450   2.142   2.211  12.226  0.9969 -0.7499 -1.1315
19679TIP3   OH280451   6.032   5.882  14.907 -0.4099 -0.1859 -0.3423
19679TIP3    H180452   6.108   5.890  14.964  0.6129  0.5764 -1.7244
19679TIP3    H280453   5.992   5.970  14.907 -1.6129 -0.6989  0.7518
19680TIP3   OH280454   1.155   2.690   4.400  0.5910  0.3811  0.7229
19680TIP3    H180455   1.222   2.729   4.456  0.4597  1.4890  0.1453
19680TIP3    H280456   1.096   2.763   4.380  0.2205 -0.1650 -0.2413
19681TIP3   OH280457   0.263   0.511  15.980 -0.1513 -0.2794 -0.2879
19681TIP3    H180458   0.282   0.560  16.060  0.2457  0.3582 -0.7592
19681TIP3    H280459   0.292   0.422  15.998 -0.1784 -0.1693  0.3154
19682TIP3   OH280460   3.940   0.542  13.353  0.4312  0.0965  0.1908
19682TIP3    H180461   3.987   0.581  13.426 -1.3687 -0.2361  1.6075
19682TIP3    H280462   3.997   0.471  13.322  1.7713  1.0400  0.4099
19683TIP3   OH280463   6.276   5.494  15.451 -0.0820 -0.0001  0.1119
19683TIP3    H180464   6.185   5.501  15.423 -0.0876  0.1525  0.1726
19683TIP3    H280465   6.282   5.408  15.494 -0.2675  0.1257  0.3847
19684TIP3   OH280466   1.833   0.120   3.748 -0.5976  0.0652  0.1368
19684TIP3    H180467   1.867   0.086   3.830 -0.0707  0.2156 -0.0175
19684TIP3    H280468   1.752   0.166   3.772  0.5670  1.8548  0.8832
19685TIP3   OH280469   0.406   1.329   4.405 -0.2410 -0.6021  0.2838
19685TIP3    H180470   0.344   1.381   4.454  0.9264 -0.1568  1.3327
19685TIP3    H280471   0.491   1.349   4.444  0.6939 -0.5345 -1.6503
19686TIP3   OH280472   3.789   5.652  14.758 -0.5745  0.1409 -0.1798
19686TIP3    H180473   3.748   5.739  14.750 -0.7992  0.0189 -0.3663
19686TIP3    H280474   3.856   5.652  14.690 -0.2770  0.3323  0.1104
19687TIP3   OH280475   3.223   1.377  13.236 -0.1978 -0.3207  0.5697
19687TIP3    H180476   3.279   1.326  13.177  1.3399  0.5113  1.2512
19687TIP3    H280477   3.167   1.311  13.278  1.8561 -1.5730  1.5657
19688TIP3   OH280478   6.709   3.158   1.745  0.0781  0.3391  0.3184
19688TIP3    H180479   6.714   3.223   1.814 -0.6615  0.4514  0.2740
19688TIP3    H280480   6.615   3.151   1.725  0.4019  2.1700 -2.4050
19689TIP3   OH280481   5.888   5.445  15.690  0.2626 -0.0960  0.2362
19689TIP3    H180482   5.929   5.468  15.606  3.1300  1.2515  1.8673
19689TIP3    H280483   5.821   5.511  15.703  0.5859  0.3902 -0.4818
19690TIP3   OH280484   5.712   2.676   4.105  0.3777 -0.1914 -0.0458
19690TIP3    H180485   5.665   2.609   4.055 -0.1101  0.2099 -0.1323
19690TIP3    H280486   5.732   2.744   4.040 -0.7016  0.5670  0.3732
19691TIP3   OH280487   4.143   0.356   5.281 -0.9485 -0.1027  0.5447
19691TIP3    H180488   4.105   0.287   5.336 -1.5752 -0.2475 -0.0680
19691TIP3    H280489   4.164   0.313   5.199  0.5141 -0.0170  0.8379
19692TIP3   OH280490   4.295   4.829   6.402 -0.0878 -0.0038  0.6272
19692TIP3    H180491   4.387   4.840   6.425  0.4076  0.7141 -1.4499
19692TIP3    H280492   4.273   4.741   6.433  1.1675 -0.0291  1.5277
19693TIP3   OH280493   5.915   2.100  13.082 -0.2784 -0.0555 -0.3774
19693TIP3    H180494   6.001   2.067  13.108  0.6238  1.4892 -1.2066
19693TIP3    H280495   5.863   2.099  13.162  0.1608 -1.9819 -0.0683
19694TIP3   OH280496   6.044   2.889   0.733 -0.2164 -0.0349  1.0790
19694TIP3    H180497   6.101   2.935   0.672 -0.3733  0.4757  1.3182
19694TIP3    H280498   6.092   2.809   0.754 -0.2786 -0.3569  0.0748
19695TIP3   OH280499   2.084   3.608  12.105 -0.2291 -0.1360 -0.1621
19695TIP3    H180500   1.999   3.632  12.068  0.5366  0.5173 -1.5897
19695TIP3    H280501   2.064   3.576  12.193 -2.1732 -1.9588 -1.1881
19696TIP3   OH280502   4.126   5.768   0.445 -0.2633  0.4223 -0.3059
19696TIP3    H180503   4.160   5.846   0.403 -1.1276  0.4717 -0.9430
19696TIP3    H280504   4.092   5.715   0.373  2.5499 -1.7444 -0.2102
19697TIP3   OH280505   5.658   4.720   2.845  0.0214 -0.3129  0.6367
19697TIP3    H180506   5.731   4.704   2.905  1.0781  0.9742 -0.2590
19697TIP3    H280507   5.675   4.661   2.772 -0.5080 -0.8705  0.9510
19698TIP3   OH280508   0.153   0.359  12.650 -0.2792 -0.2091 -0.0212
19698TIP3    H180509   0.240   0.322  12.640 -1.2871 -2.4768 -1.0153
19698TIP3    H280510   0.168   0.449  12.677  2.3589 -1.4531  3.3460
19699TIP3   OH280511   6.652   3.868   2.432  0.2687 -0.5543  0.0605
19699TIP3    H180512   6.667   3.782   2.471 -0.9720 -0.9439 -0.2736
19699TIP3    H280513   6.683   3.930   2.498  1.3483 -1.2509  0.2285
19700TIP3   OH280514   4.630   0.783   2.676 -0.1735  0.9094  0.2465
19700TIP3    H180515   4.695   0.846   2.710  0.9469  0.6058 -1.2374
19700TIP3    H280516   4.682   0.706   2.653 -1.1598  0.4443 -0.4607
19701TIP3   OH280517   3.227   2.148   4.093  0.0469  0.4118  0.1182
19701TIP3    H180518   3.290   2.217   4.115  1.1675 -0.6247  0.2559
19701TIP3    H280519   3.227   2.145   3.997  2.9443 -1.9041  0.0414
19702TIP3   OH280520   6.240   5.954   6.046 -0.2025 -0.7240 -0.0860
19702TIP3    H180521   6.246   5.936   6.140  0.2817  0.1401  0.0586
19702TIP3    H280522   6.154   5.996   6.036 -0.9508 -2.2439 -0.2910
19703TIP3   OH280523   2.907   0.620   5.279  0.6272  0.1550 -0.3858
19703TIP3    H180524   2.887   0.703   5.322 -1.0581 -0.6554  0.5076
19703TIP3    H280525   2.973   0.580   5.334 -0.3168 -0.1401  0.5649
19704TIP3   OH280526   0.212   1.021  17.077 -0.2340  0.3311 -0.3199
19704TIP3    H180527   0.216   0.931  17.046  1.7262  0.6739 -1.2165
19704TIP3    H280528   0.200   1.014  17.171 -0.1761 -0.8589 -0.3948
19705TIP3   OH280529   5.302   1.622   4.587  0.0314 -0.0961  0.0894
19705TIP3    H180530   5.243   1.698   4.590  0.2258  0.0179  1.7109
19705TIP3    H280531   5.342   1.619   4.674  2.7196  0.0605 -1.0290
19706TIP3   OH280532   0.473   3.329   2.089  0.1656  0.6975 -0.1280
19706TIP3    H180533   0.440   3.239   2.095  2.3284 -0.1818 -0.4258
19706TIP3    H280534   0.440   3.372   2.168  1.8684 -1.3838  1.8629
19707TIP3   OH280535   3.226   5.954   3.989  0.0712  0.0740  0.1635
19707TIP3    H180536   3.226   5.902   4.070  2.1274 -0.4367 -0.1030
19707TIP3    H280537   3.253   5.892   3.921  0.1658  0.9226 -0.5887
19708TIP3   OH280538   6.399   5.617   5.906  0.3193 -0.2669  0.1265
19708TIP3    H180539   6.375   5.709   5.890  0.0749 -0.4768 -0.7703
19708TIP3    H280540   6.346   5.592   5.982 -0.6095 -0.0387 -0.4219
19709TIP3   OH280541   5.679   5.124  12.629 -0.3113 -0.4499  0.1573
19709TIP3    H180542   5.632   5.190  12.579 -2.3478 -1.9730 -0.0682
19709TIP3    H280543   5.724   5.071  12.563  0.9840  0.4158  0.3112
19710TIP3   OH280544   3.630   2.640  13.504 -0.7127  0.3033 -0.3831
19710TIP3    H180545   3.616   2.727  13.465  1.2244  0.4027 -0.9529
19710TIP3    H280546   3.647   2.583  13.430 -1.7570 -0.5406  0.0089
19711TIP3   OH280547   0.802   3.541  11.846  0.2998  0.2800 -0.6706
19711TIP3    H180548   0.858   3.485  11.792  0.4947 -1.3690  1.1214
19711TIP3    H280549   0.743   3.584  11.784  1.4513 -0.3983 -2.2965
19712TIP3   OH280550   4.556   1.879   2.204  0.2836 -0.7354 -0.1633
19712TIP3    H180551   4.648   1.873   2.228  0.1050  0.4326  0.9005
19712TIP3    H280552   4.519   1.795   2.228  0.5682 -0.3520  1.7486
19713TIP3   OH280553   2.761   5.993  15.849  0.7376  0.3439  0.1030
19713TIP3    H180554   2.763   5.899  15.833  1.2347  0.4412 -0.4486
19713TIP3    H280555   2.718   6.002  15.934 -1.0315 -0.2626 -0.6763
19714TIP3   OH280556   1.230   5.717   2.279  0.3374 -1.0661 -0.4311
19714TIP3    H180557   1.141   5.683   2.289 -0.6058  1.3422  0.0853
19714TIP3    H280558   1.243   5.723   2.185 -0.4486 -0.5204 -0.5149
19715TIP3   OH280559   0.725   2.177  14.535  0.3248  0.2922 -0.2136
19715TIP3    H180560   0.666   2.171  14.610  1.0883 -2.0163  0.2841
19715TIP3    H280561   0.805   2.217  14.571  0.4042 -0.0765  0.0239
19716TIP3   OH280562   1.888   0.916   1.081  0.4780 -0.6564  0.3349
19716TIP3    H180563   1.957   0.853   1.061  0.3934 -0.9055  0.8106
19716TIP3    H280564   1.887   0.921   1.177 -1.9703 -2.7486  0.5475
19717TIP3   OH280565   5.873   6.509  17.146  0.4724  0.7565  0.0473
19717TIP3    H180566   5.813   6.440  17.175 -1.0512  1.8629 -0.3722
19717TIP3    H280567   5.937   6.463  17.091 -2.0506 -0.0573 -2.4603
19718TIP3   OH280568   0.220   5.209   0.423  0.3762  0.2895  0.3263
19718TIP3    H180569   0.192   5.274   0.358 -0.5129  1.0497  1.4223
19718TIP3    H280570   0.167   5.132   0.402  1.0271  0.0823 -0.6318
19719TIP3   OH280571   4.471   5.442   5.498  0.3668  0.4744 -0.3175
19719TIP3    H180572   4.522   5.519   5.473  3.3484 -0.8600  1.1630
19719TIP3    H280573   4.442   5.461   5.587  1.8775 -0.3990  0.3938
19720TIP3   OH280574   6.043   1.281   1.386 -0.1272  0.3077  0.0952
19720TIP3    H180575   6.083   1.329   1.459  1.8146 -2.4498  1.0117
19720TIP3    H280576   6.115   1.269   1.324 -0.7415 -0.7500 -0.4222
19721TIP3   OH280577   5.482   2.765  13.239  0.0584 -0.3572  0.2336
19721TIP3    H180578   5.449   2.699  13.179  0.2490 -3.2520  3.0178
19721TIP3    H280579   5.576   2.745  13.248  0.1080  0.2269  1.1982
19722TIP3   OH280580   1.211   5.688   2.022  0.1145 -0.5984 -0.0194
19722TIP3    H180581   1.292   5.699   1.972  0.4026 -1.2629  0.2936
19722TIP3    H280582   1.142   5.684   1.956  0.2113  0.9793 -0.2476
19723TIP3   OH280583   3.917   4.967  11.160 -0.5118  0.1815  0.2928
19723TIP3    H180584   3.974   5.043  11.147  0.1710 -0.2270  0.7962
19723TIP3    H280585   3.978   4.893  11.164 -1.1367 -0.3376  0.2242
19724TIP3   OH280586   6.602   1.140   4.698 -0.0959 -0.3800 -0.1750
19724TIP3    H180587   6.553   1.168   4.776 -0.6959  1.5185 -1.1692
19724TIP3    H280588   6.688   1.180   4.709  1.1310 -3.1529  1.2362
19725TIP3   OH280589   2.163   5.156   2.475 -0.1157 -0.4953 -0.4805
19725TIP3    H180590   2.226   5.119   2.413  0.1724 -0.8140 -0.0061
19725TIP3    H280591   2.156   5.248   2.450  0.9373 -0.3278 -0.2291
19726TIP3   OH280592   5.632   4.668   5.095 -0.1210  0.1990  0.4472
19726TIP3    H180593   5.651   4.667   5.001  0.7404  0.2511  0.6093
19726TIP3    H280594   5.556   4.611   5.104 -0.4323  0.4759 -0.3270
19727TIP3   OH280595   1.283   2.224  16.681  0.1681 -0.0696 -0.2259
19727TIP3    H180596   1.368   2.253  16.715  1.0222  0.5929 -2.7462
19727TIP3    H280597   1.231   2.305  16.674  0.2902 -0.0720 -1.2233
19728TIP3   OH280598   3.226   0.100   2.122 -0.0632 -0.1328 -0.6504
19728TIP3    H180599   3.186   0.187   2.123  0.2432  0.0190  0.8484
19728TIP3    H280600   3.240   0.078   2.215 -0.8391 -2.1107 -0.9454
19729TIP3   OH280601   1.491   0.271  13.756  0.6012  0.2046  0.0322
19729TIP3    H180602   1.533   0.287  13.671  2.6586 -1.3483  0.6647
19729TIP3    H280603   1.516   0.347  13.809  0.0036  0.7769 -0.4884
19730TIP3   OH280604   1.866   1.401   2.577 -0.2190 -0.4294 -0.1109
19730TIP3    H180605   1.957   1.378   2.597  0.0333 -0.0755 -0.7961
19730TIP3    H280606   1.864   1.497   2.578 -0.3780 -0.4147 -0.9290
19731TIP3   OH280607   3.126   5.039  14.950  0.1534  0.0932  0.5318
19731TIP3    H180608   3.077   5.066  14.871  1.9338  0.5789 -0.4587
19731TIP3    H280609   3.108   4.945  14.958 -0.5870  0.1709 -0.0495
19732TIP3   OH280610   6.408   4.803   2.034  0.0639  0.1308 -0.0253
19732TIP3    H180611   6.375   4.840   2.116 -0.7175 -1.7399  0.5644
19732TIP3    H280612   6.497   4.838   2.026 -0.4317  1.6464  0.7433
19733TIP3   OH280613   5.837   5.926  15.187  0.0912 -0.2924 -0.4667
19733TIP3    H180614   5.770   5.861  15.162 -0.5567  0.0844  0.2479
19733TIP3    H280615   5.877   5.952  15.104  0.7803 -2.0369 -0.7249
19734TIP3   OH280616   3.560   1.068  13.272  0.5145 -0.4555 -1.2681
19734TIP3    H180617   3.486   1.128  13.273  2.0923  1.6281  1.2007
19734TIP3    H280618   3.526   0.988  13.314  0.0830  1.2269  1.9246
19735TIP3   OH280619   1.255   2.676   2.002  0.1381  0.3245 -0.1515
19735TIP3    H180620   1.232   2.584   1.988  0.4900  0.3570 -1.0043
19735TIP3    H280621   1.192   2.707   2.068 -0.1464 -0.4553 -0.0504
19736TIP3   OH280622   4.435   1.365  16.640  0.6673  1.2148 -0.3059
19736TIP3    H180623   4.529   1.379  16.654  1.0027  1.2773 -2.3253
19736TIP3    H280624   4.408   1.439  16.585 -0.5574  1.1278  0.1400
19737TIP3   OH280625   3.479   2.914   1.534 -0.8301 -0.4925  0.0896
19737TIP3    H180626   3.397   2.945   1.495 -0.9287 -2.2052 -1.1460
19737TIP3    H280627   3.547   2.966   1.490 -1.1884  0.5363  0.7130
19738TIP3   OH280628   3.490   5.868  11.917 -0.0561 -0.0296  0.0344
19738TIP3    H180629   3.545   5.867  11.839  0.3774 -0.3697  0.3442
19738TIP3    H280630   3.401   5.876  11.883  0.1751  0.5446 -0.4671
19739TIP3   OH280631   2.446   5.021   0.570  0.3122 -0.2271  0.5151
19739TIP3    H180632   2.463   5.107   0.533 -1.0736  0.3133  1.0530
19739TIP3    H280633   2.509   4.963   0.528 -1.1157  0.3334 -2.6282
19740TIP3   OH280634   1.257   5.631  11.944  0.0888 -0.1409 -0.0451
19740TIP3    H180635   1.252   5.561  12.009 -3.6025 -0.0654 -0.0168
19740TIP3    H280636   1.271   5.586  11.861  1.7882 -0.4909  0.3952
19741TIP3   OH280637   3.058   4.703  11.686  0.1630  0.0635  0.1264
19741TIP3    H180638   3.105   4.628  11.651  1.2921  0.7691  0.0827
19741TIP3    H280639   3.095   4.779  11.641 -1.7345  0.5896 -0.6603
19742TIP3   OH280640   3.146   3.846  14.755  0.0756  0.4660  0.0759
19742TIP3    H180641   3.192   3.894  14.825  0.8594  0.1472 -0.2038
19742TIP3    H280642   3.058   3.833  14.789 -0.0903  1.8919  0.2598
19743TIP3   OH280643   0.809   4.486  12.088 -0.2126 -0.3806  0.2712
19743TIP3    H180644   0.903   4.470  12.093  0.3495  2.4949  1.8880
19743TIP3    H280645   0.785   4.465  11.998  2.2623 -0.0482 -0.5492
19744TIP3   OH280646   1.905   1.352  17.398 -0.2907  0.1710  0.1121
19744TIP3    H180647   1.968   1.322  17.333 -0.5493 -0.1210 -0.0086
19744TIP3    H280648   1.850   1.414  17.351  0.8824  1.6485  0.6258
19745TIP3   OH280649   4.522   3.499  11.033 -0.5405 -0.4537  0.2239
19745TIP3    H180650   4.476   3.568  11.082 -0.7890  0.1647 -0.8547
19745TIP3    H280651   4.454   3.457  10.981 -0.4290 -1.6868  1.0293
19746TIP3   OH280652   0.177   0.804   4.277  0.0181 -0.4514 -0.3615
19746TIP3    H180653   0.217   0.832   4.359 -1.6905 -0.3408  0.4616
19746TIP3    H280654   0.157   0.712   4.290  0.7155 -0.7161 -1.0747
19747TIP3   OH280655   2.800   3.919   5.793  0.0339  0.1194 -0.2290
19747TIP3    H180656   2.821   3.909   5.700 -1.7682  0.4794 -0.7140
19747TIP3    H280657   2.712   3.883   5.802 -0.1224  0.7883  1.2014
19748TIP3   OH280658   5.230   2.249  12.373 -1.2905 -0.2316 -0.3725
19748TIP3    H180659   5.202   2.331  12.333  0.0711 -0.5132 -2.0188
19748TIP3    H280660   5.326   2.252  12.369 -1.2152 -1.7766 -0.2322
19749TIP3   OH280661   6.372   3.952   2.494 -0.0434 -0.1663 -0.1064
19749TIP3    H180662   6.292   3.905   2.516  1.0249 -1.1266  1.9972
19749TIP3    H280663   6.430   3.885   2.459  0.7951 -0.0530  1.0222
19750TIP3   OH280664   1.814   2.061  14.101  0.0336  0.5988 -0.4120
19750TIP3    H180665   1.873   2.090  14.031  1.6209  0.0515  0.6570
19750TIP3    H280666   1.836   2.117  14.175 -0.7836  0.3686  0.0123
19751TIP3   OH280667   0.774   0.795   3.030 -0.0675  0.0537 -0.0646
19751TIP3    H180668   0.729   0.763   3.108  1.1054  0.9735  1.0383
19751TIP3    H280669   0.784   0.718   2.974 -0.3870 -0.7578  0.9704
19752TIP3   OH280670   0.023   0.862  13.692  0.5914 -0.3783 -0.3876
19752TIP3    H180671   0.106   0.908  13.704  1.4358 -1.2887 -2.3218
19752TIP3    H280672   0.011   0.812  13.773  0.8354  1.3644  0.7795
19753TIP3   OH280673   2.034   3.069   3.456 -0.1287  0.1895  0.2756
19753TIP3    H180674   2.066   2.987   3.420 -0.7768 -0.1147  0.3841
19753TIP3    H280675   1.960   3.044   3.511  0.2103  0.7538  1.0101
19754TIP3   OH280676   5.743   4.341   2.497 -0.1202  0.7236  0.1335
19754TIP3    H180677   5.744   4.289   2.417 -0.3796 -2.6381  2.1419
19754TIP3    H280678   5.827   4.388   2.496 -0.1167  0.7595 -2.0456
19755TIP3   OH280679   4.741   0.469   3.891  0.3864 -0.3041 -0.4262
19755TIP3    H180680   4.648   0.489   3.900  0.5465 -0.0994  1.0017
19755TIP3    H280681   4.772   0.459   3.981  1.8568  0.1420 -0.8591
19756TIP3   OH280682   1.302   6.387  10.470 -0.3205 -0.0169 -0.1695
19756TIP3    H180683   1.388   6.348  10.450 -0.6667 -0.1067 -1.6058
19756TIP3    H280684   1.318   6.481  10.467 -0.2851 -0.0326 -0.4970
19757TIP3   OH280685   3.915   5.078  13.416  0.5110  0.2569 -0.1035
19757TIP3    H180686   3.972   5.137  13.465 -1.5770  2.1010  0.2904
19757TIP3    H280687   3.972   5.039  13.350  2.4569  1.0174  1.0292
19758TIP3   OH280688   6.538   1.881   5.771  0.1548 -0.1280 -0.5667
19758TIP3    H180689   6.471   1.816   5.789 -1.8970  1.8654 -0.5258
19758TIP3    H280690   6.618   1.845   5.811 -1.5275 -1.2853  2.0061
19759TIP3   OH280691   1.122   3.339   4.576 -0.6188  0.4078  0.2869
19759TIP3    H180692   1.112   3.246   4.555  1.5047  0.4533 -1.2714
19759TIP3    H280693   1.123   3.383   4.490 -0.8222  1.7948  0.9638
19760TIP3   OH280694   2.240   2.171  12.807  0.0214  0.0035  0.8220
19760TIP3    H180695   2.163   2.226  12.797 -0.1454 -0.4257 -0.4128
19760TIP3    H280696   2.254   2.133  12.720  2.3227  0.9892  0.7024
19761TIP3   OH280697   0.687   6.209  15.120  0.7453  0.3575  0.1505
19761TIP3    H180698   0.608   6.235  15.073  0.1546  1.9112  1.8958
19761TIP3    H280699   0.672   6.116  15.141  0.2808  0.1033 -1.2070
19762TIP3   OH280700   2.870   2.803   3.529 -0.3310  0.0485 -0.4434
19762TIP3    H180701   2.929   2.753   3.472  1.2880  1.0240  0.3117
19762TIP3    H280702   2.796   2.744   3.545 -0.0368 -0.8635 -2.1781
19763TIP3   OH280703   4.770   1.357  11.893 -0.6355  0.2231  0.0923
19763TIP3    H180704   4.726   1.350  11.809 -0.0680 -1.6455 -0.1002
19763TIP3    H280705   4.855   1.396  11.873 -2.2274  4.3199  0.5337
19764TIP3   OH280706   4.058   3.488   0.990  0.2811 -0.6899  0.1568
19764TIP3    H180707   4.090   3.410   0.945  0.4425  0.0220 -1.0103
19764TIP3    H280708   4.136   3.529   1.027  0.3138 -0.5868 -0.0280
19765TIP3   OH280709   2.734   5.449  16.982  0.1792  0.6613 -0.1160
19765TIP3    H180710   2.794   5.493  16.922  0.7097 -0.6126 -0.5477
19765TIP3    H280711   2.782   5.372  17.012 -0.6851  0.4267  0.7047
19766TIP3   OH280712   1.509   1.016   1.502  0.2595  0.6323  0.2836
19766TIP3    H180713   1.490   0.987   1.591  1.6225 -2.1712 -0.2118
19766TIP3    H280714   1.424   1.018   1.459 -0.2611  0.6299  1.2873
19767TIP3   OH280715   4.230   6.567   0.690  0.0336 -0.2473  0.0903
19767TIP3    H180716   4.204   6.659   0.685 -0.2088 -0.3853 -2.4323
19767TIP3    H280717   4.155   6.519   0.655  1.0383 -1.2087 -0.8247
19768TIP3   OH280718   0.544   0.945  13.130 -0.4885 -0.2698  0.0133
19768TIP3    H180719   0.485   0.959  13.056  0.0382  1.0335 -0.1783
19768TIP3    H280720   0.547   1.029  13.176  0.2047 -0.6890  0.7708
19769TIP3   OH280721   5.221   2.764  12.779 -0.8084  0.4842 -0.1213
19769TIP3    H180722   5.170   2.778  12.698  1.4186  0.5762 -1.5945
19769TIP3    H280723   5.310   2.746  12.748  0.0085 -0.0226  2.3343
19770TIP3   OH280724   1.010   1.320  14.353  0.4315  0.0730  0.3802
19770TIP3    H180725   0.924   1.304  14.392 -0.0322  0.7472 -0.3403
19770TIP3    H280726   0.992   1.375  14.277  1.4889  0.0967  0.1330
19771TIP3   OH280727   3.158   2.818   1.686  0.7883  0.0809  0.2983
19771TIP3    H180728   3.218   2.837   1.614 -0.0980 -3.5827 -1.6438
19771TIP3    H280729   3.203   2.751   1.737 -1.1749 -2.1444 -0.7257
19772TIP3   OH280730   4.552   4.089  11.436  0.7012 -0.6008  0.0338
19772TIP3    H180731   4.608   4.074  11.360  1.0123  0.6074  0.0098
19772TIP3    H280732   4.585   4.169  11.475  0.3933 -1.0732  1.3238
19773TIP3   OH280733   2.279   1.616   5.365  0.1423 -0.4658 -0.6517
19773TIP3    H180734   2.225   1.667   5.305 -0.9806  0.4025  1.0109
19773TIP3    H280735   2.222   1.546   5.395 -0.5757  1.0951  1.9678
19774TIP3   OH280736   5.676   6.746   3.069 -0.0928 -0.5742  0.4776
19774TIP3    H180737   5.610   6.741   2.999  2.1489  0.0943 -1.8207
19774TIP3    H280738   5.732   6.669   3.055  1.6776  0.7348  0.1052
19775TIP3   OH280739   1.008   0.510  11.176  0.3752  0.5349 -0.0706
19775TIP3    H180740   1.073   0.573  11.208  0.2420  0.5972  0.0783
19775TIP3    H280741   1.060   0.437  11.143  0.5775 -2.0628  5.0812
19776TIP3   OH280742   3.786   5.178  15.173 -0.4760  0.2337  0.5287
19776TIP3    H180743   3.749   5.173  15.261  0.5835  3.3702  1.3086
19776TIP3    H280744   3.880   5.166  15.186 -0.3363  0.4999 -0.1920
19777TIP3   OH280745   2.027   0.955  16.542  0.2401 -0.8042 -0.2886
19777TIP3    H180746   2.111   0.988  16.573 -0.1116 -0.9151  0.8358
19777TIP3    H280747   2.003   0.888  16.606 -0.7695 -0.6620 -0.5009
19778TIP3   OH280748   0.961   1.742   5.063 -0.5009 -0.2337 -0.0563
19778TIP3    H180749   0.961   1.827   5.106  0.0625 -0.9364  1.4203
19778TIP3    H280750   0.894   1.748   4.996 -0.4688  1.3606  0.0337
19779TIP3   OH280751   3.228   5.615   5.145  0.4528  0.1635 -0.0618
19779TIP3    H180752   3.271   5.537   5.111  1.0862  0.7156 -0.5502
19779TIP3    H280753   3.159   5.581   5.203  0.1061 -0.7794 -0.9862
19780TIP3   OH280754   2.276   2.959  15.440 -0.1790 -0.0657 -0.4779
19780TIP3    H180755   2.248   2.951  15.531  0.1319  1.4047 -0.2263
19780TIP3    H280756   2.361   2.915  15.438 -0.5492 -0.8090 -0.2540
19781TIP3   OH280757   4.552   4.824   2.420  0.3258  0.1944  0.5441
19781TIP3    H180758   4.494   4.879   2.367 -0.2652 -1.0824 -0.1839
19781TIP3    H280759   4.638   4.833   2.378  0.2585  0.6203  0.4890
19782TIP3   OH280760   2.196   0.708  14.853 -0.0017 -0.1757 -0.2069
19782TIP3    H180761   2.151   0.626  14.832  0.2218 -0.2127 -0.5565
19782TIP3    H280762   2.129   0.775  14.844 -0.4158 -0.4173  0.9891
19783TIP3   OH280763   4.985   6.086  14.895 -0.6296 -0.0595 -0.1354
19783TIP3    H180764   5.062   6.044  14.934  0.9025  0.4558 -2.4105
19783TIP3    H280765   4.976   6.044  14.809 -0.4358  2.6022 -1.5540
19784TIP3   OH280766   3.755   6.437  11.073 -0.2784  0.1357 -0.2206
19784TIP3    H180767   3.709   6.441  11.157 -1.4376 -2.3138 -0.6606
19784TIP3    H280768   3.721   6.359  11.030  1.6997  0.2400 -2.1777
19785TIP3   OH280769   4.131   6.373  17.393  0.2414 -0.2317  0.0575
19785TIP3    H180770   4.050   6.389  17.442 -0.4516 -1.5555 -0.6112
19785TIP3    H280771   4.119   6.419  17.310  1.0261  1.2158  0.6980
19786TIP3   OH280772   0.201   3.070  12.758 -0.5381  0.2235 -0.4102
19786TIP3    H180773   0.215   3.007  12.687 -1.4328  1.2562 -1.5590
19786TIP3    H280774   0.151   3.021  12.824  0.8067 -0.9251 -0.1859
19787TIP3   OH280775   2.344   0.377   1.692 -0.5578  0.2978  0.4117
19787TIP3    H180776   2.323   0.468   1.670 -0.6548  0.4611  1.1723
19787TIP3    H280777   2.335   0.330   1.609  0.7499  1.1972 -0.2690
19788TIP3   OH280778   4.304   0.361   1.994 -0.3392 -0.1214  0.3966
19788TIP3    H180779   4.296   0.456   1.985 -0.0636 -0.1753 -0.5480
19788TIP3    H280780   4.386   0.340   1.949 -1.3129 -1.0109 -1.0649
19789TIP3   OH280781   2.545   3.966   4.856  0.3205 -0.4549 -0.3380
19789TIP3    H180782   2.490   3.887   4.860  0.5879 -0.7044 -1.3602
19789TIP3    H280783   2.494   4.028   4.805 -0.2461  0.3608  1.1360
19790TIP3   OH280784   5.905   0.588  13.226  0.5890  0.6914  0.8548
19790TIP3    H180785   5.936   0.676  13.250  1.1190  0.7948 -0.1862
19790TIP3    H280786   5.974   0.529  13.258  1.0097  0.7841  0.1360
19791TIP3   OH280787   3.310   0.104  15.762  0.0201  0.4086  0.6454
19791TIP3    H180788   3.340   0.079  15.674  0.2114  1.1283  0.5038
19791TIP3    H280789   3.235   0.161  15.746  0.5597  1.2001  0.9307
19792TIP3   OH280790   2.116   2.680   4.095 -0.5722 -0.2717 -0.0746
19792TIP3    H180791   2.205   2.694   4.128 -0.7693  2.1531 -0.3931
19792TIP3    H280792   2.114   2.588   4.070  1.5858 -0.5873  0.7090
19793TIP3   OH280793   4.311   1.884   0.031  0.0027  0.6174 -0.0987
19793TIP3    H180794   4.294   1.807  -0.023 -0.0427  0.5729 -0.0194
19793TIP3    H280795   4.277   1.862   0.117 -0.9891  1.1330 -0.3428
19794TIP3   OH280796   1.319   6.406  10.777 -0.1843  0.4405 -0.1208
19794TIP3    H180797   1.309   6.405  10.682 -0.8829  0.0023 -0.0471
19794TIP3    H280798   1.270   6.483  10.806  0.1206  0.6363 -0.1259
19795TIP3   OH280799   0.182   3.616  14.334 -0.5756  0.2522  0.8387
19795TIP3    H180800   0.116   3.564  14.379 -0.6676 -0.1586  0.2402
19795TIP3    H280801   0.140   3.642  14.252 -0.2625  0.6314  0.7983
19796TIP3   OH280802   5.709   3.523   6.213 -0.0626  0.4022  0.6110
19796TIP3    H180803   5.743   3.577   6.285 -0.3051  1.3247  0.0581
19796TIP3    H280804   5.774   3.454   6.203  0.4523  0.7966  1.1073
19797TIP3   OH280805   1.224   5.484  14.368  0.7358 -0.6717 -0.1159
19797TIP3    H180806   1.135   5.501  14.398  1.5313  1.3384  1.3879
19797TIP3    H280807   1.220   5.489  14.273 -0.7165 -0.5076 -0.0571
19798TIP3   OH280808   1.668   4.875   2.497  0.2287 -0.1151 -0.4604
19798TIP3    H180809   1.596   4.892   2.435 -0.3287  1.3099  0.5267
19798TIP3    H280810   1.742   4.924   2.462 -0.3822  1.5619  0.5135
19799TIP3   OH280811   6.102   1.022  14.026 -0.4698 -0.3144  0.4006
19799TIP3    H180812   6.173   0.962  14.003  1.2523  1.0572  1.8751
19799TIP3    H280813   6.100   1.023  14.121  1.0460  3.4758  0.5769
19800TIP3   OH280814   3.912   1.511  13.617 -0.2262  0.4555  0.5358
19800TIP3    H180815   3.880   1.572  13.550 -2.2136  0.2717  1.2520
19800TIP3    H280816   3.889   1.425  13.582 -3.3745  0.4327  2.3764
19801TIP3   OH280817   2.541   1.238  10.822  0.1377  0.8987 -0.4286
19801TIP3    H180818   2.453   1.234  10.785 -0.7517  0.7893  1.5372
19801TIP3    H280819   2.585   1.309  10.775 -0.9959  0.9552 -1.4307
19802TIP3   OH280820   5.031   0.761   3.373  0.0191  0.1750 -0.0931
19802TIP3    H180821   5.086   0.811   3.434  0.0708  1.0055 -0.7909
19802TIP3    H280822   4.946   0.804   3.378 -0.2807 -0.4393  0.1908
19803TIP3   OH280823   0.682   5.763  14.594 -0.3388  0.3221 -0.3073
19803TIP3    H180824   0.773   5.760  14.622 -0.7672 -2.1385  1.1488
19803TIP3    H280825   0.637   5.811  14.664 -0.5332 -0.8523  0.4034
19804TIP3   OH280826   5.189   4.365  14.182  0.1152 -0.0860 -0.0253
19804TIP3    H180827   5.141   4.326  14.109 -0.5397  0.4894  0.0877
19804TIP3    H280828   5.131   4.351  14.258  0.1854  0.4936  0.1388
19805TIP3   OH280829   3.671   6.399  14.687  0.5251 -0.0730  0.6739
19805TIP3    H180830   3.614   6.348  14.744 -0.3426  1.2449  1.0293
19805TIP3    H280831   3.724   6.452  14.748  3.3685 -2.4051  0.4627
19806TIP3   OH280832   4.638   1.278   1.166  0.3747 -0.0071 -0.1818
19806TIP3    H180833   4.603   1.255   1.252  0.2278 -0.4276 -0.3539
19806TIP3    H280834   4.701   1.348   1.184  0.6333 -0.3611  0.3140
19807TIP3   OH280835   2.293   5.150  13.159  1.0783 -0.1737  0.2045
19807TIP3    H180836   2.288   5.202  13.078 -0.6476  0.9155  0.9398
19807TIP3    H280837   2.372   5.097  13.149  0.3354 -0.9225 -2.6982
19808TIP3   OH280838   3.244   1.990   5.543  0.0170 -0.7158 -0.0799
19808TIP3    H180839   3.174   1.925   5.532 -1.1423  0.6610 -1.3462
19808TIP3    H280840   3.310   1.965   5.479 -1.3813  0.4667 -2.1076
19809TIP3   OH280841   1.228   3.968   3.187 -0.1343  1.1380  0.1461
19809TIP3    H180842   1.304   3.930   3.141 -1.8334 -0.0449 -1.8495
19809TIP3    H280843   1.199   3.898   3.246 -2.6462 -0.5477 -2.7972
19810TIP3   OH280844   2.028   3.311   3.352 -0.0773 -0.7280  0.2056
19810TIP3    H180845   2.084   3.357   3.414 -1.8180 -0.6809  1.8243
19810TIP3    H280846   2.013   3.226   3.392  0.3810 -1.4736 -1.1468
19811TIP3   OH280847   0.278   0.815   4.624 -0.6154  0.4233 -0.1249
19811TIP3    H180848   0.239   0.901   4.606 -0.2358  0.2524 -1.9698
19811TIP3    H280849   0.211   0.753   4.596 -0.3773  0.1237 -0.0309
19812TIP3   OH280850   2.468   6.486   0.184  0.2420  0.3310  0.0057
19812TIP3    H180851   2.427   6.449   0.262  1.4398  3.0536  2.1110
19812TIP3    H280852   2.545   6.533   0.217  2.5012 -0.7220 -3.1885
19813TIP3   OH280853   1.105   2.858  14.184  0.3273  0.2772  0.5457
19813TIP3    H180854   1.150   2.934  14.221 -0.4974  0.4264  1.2659
19813TIP3    H280855   1.057   2.893  14.109 -1.8508  0.9758  2.1558
19814TIP3   OH280856   4.224   4.177   1.888  0.1440 -0.4847 -0.6333
19814TIP3    H180857   4.198   4.240   1.821  1.2002  1.1860  0.4416
19814TIP3    H280858   4.318   4.167   1.876  0.2697 -0.5076  0.3086
19815TIP3   OH280859   4.069   5.608   0.914  0.6491 -0.1264 -0.0397
19815TIP3    H180860   4.061   5.671   0.843 -2.0766 -1.2353 -0.8672
19815TIP3    H280861   4.143   5.639   0.966  1.7689  1.5812 -2.4683
19816TIP3   OH280862   0.945   5.314   1.484  0.1208  0.2060 -0.5722
19816TIP3    H180863   1.022   5.364   1.455 -0.1172  0.6114 -0.5150
19816TIP3    H280864   0.977   5.225   1.494  0.6982  0.4523 -0.1295
19817TIP3   OH280865   4.164   6.733  13.351 -0.1228  0.0469 -0.2131
19817TIP3    H180866   4.183   6.757  13.260  1.1084 -2.2661 -0.6538
19817TIP3    H280867   4.249   6.724  13.392 -0.6598  0.7107  1.1093
19818TIP3   OH280868   4.226   3.458   4.341  0.5444 -0.0059  0.6906
19818TIP3    H180869   4.207   3.412   4.259  0.9783  0.6707  0.1958
19818TIP3    H280870   4.283   3.398   4.389 -2.0970 -1.7535  1.8950
19819TIP3   OH280871   5.563   0.969   0.307  0.6265 -0.2252 -0.1679
19819TIP3    H180872   5.610   0.915   0.243  0.2555 -0.2881 -0.3873
19819TIP3    H280873   5.533   0.906   0.373 -0.6893 -0.4443 -0.9478
19820TIP3   OH280874   0.491   1.305   0.264  0.0878  0.1818 -0.0233
19820TIP3    H180875   0.580   1.297   0.229  0.1131  1.6265 -0.3316
19820TIP3    H280876   0.487   1.392   0.302 -0.7351 -0.4369  1.3848
19821TIP3   OH280877   0.659   2.939   5.590  0.0659 -0.0669 -0.4805
19821TIP3    H180878   0.666   2.869   5.525 -2.0799 -0.3558 -0.4938
19821TIP3    H280879   0.571   2.927   5.627  1.2447  0.0004  2.5797
19822TIP3   OH280880   3.805   5.010   1.004  0.3832 -0.5349  0.2617
19822TIP3    H180881   3.849   5.081   0.956  2.0481 -1.0001  1.0416
19822TIP3    H280882   3.712   5.033   1.001  0.8182  1.3073 -0.1308
19823TIP3   OH280883   4.316   6.460  15.143  0.2821 -0.0397  0.0815
19823TIP3    H180884   4.404   6.496  15.142  0.3290 -0.1677 -0.8519
19823TIP3    H280885   4.325   6.374  15.184 -0.0675  1.5053  3.8016
19824TIP3   OH280886   1.429   6.652   0.857  0.0314 -0.3143 -0.6391
19824TIP3    H180887   1.347   6.657   0.808 -1.5368  3.3241  1.9268
19824TIP3    H280888   1.404   6.622   0.944  1.6707 -0.6007 -0.2238
19825TIP3   OH280889   5.524   3.675  13.239 -0.1019  0.3852 -0.3203
19825TIP3    H180890   5.515   3.723  13.321 -0.2520 -0.6143  0.2694
19825TIP3    H280891   5.534   3.584  13.266  0.0531  0.0668 -1.4110
19826TIP3   OH280892   1.960   5.012   4.060  0.3568 -0.1601  1.3004
19826TIP3    H180893   2.047   4.996   4.022 -1.3181 -1.3859 -2.6101
19826TIP3    H280894   1.932   4.926   4.092 -0.1681 -0.2593  0.6041
19827TIP3   OH280895   6.288   5.701  16.504  0.1202  0.1369  0.3335
19827TIP3    H180896   6.291   5.791  16.472  1.0359 -0.4752 -1.4404
19827TIP3    H280897   6.227   5.657  16.444  0.5097 -0.6687  0.5189
19828TIP3   OH280898   5.512   2.199  12.322  0.4333  0.3313 -0.2392
19828TIP3    H180899   5.524   2.195  12.417  1.3434 -0.6115 -0.3815
19828TIP3    H280900   5.507   2.108  12.294 -1.4781  0.6053 -0.9192
19829TIP3   OH280901   1.154   1.599  15.591  0.0656 -0.2140 -0.5781
19829TIP3    H180902   1.091   1.567  15.527  0.1046 -2.2269  0.2972
19829TIP3    H280903   1.101   1.624  15.667  0.0426  1.8642 -1.2342
19830TIP3   OH280904   5.172   3.179  14.147  0.0236  0.3166  0.0315
19830TIP3    H180905   5.155   3.103  14.203 -0.5595 -0.6518 -1.4102
19830TIP3    H280906   5.101   3.240  14.167 -0.0827  0.0530  0.4663
19831TIP3   OH280907   6.682   4.294  11.261 -0.3786  0.5793  0.8081
19831TIP3    H180908   6.599   4.284  11.216  0.2289  1.0207 -0.4828
19831TIP3    H280909   6.748   4.279  11.193  0.6200 -0.5508  1.9666
19832TIP3   OH280910   5.597   1.043   6.013  0.1917  0.1507  0.7385
19832TIP3    H180911   5.624   1.028   6.103  1.0219  0.0534  0.4883
19832TIP3    H280912   5.671   1.090   5.973  1.7590 -3.3751 -0.9686
19833TIP3   OH280913   2.305   2.591   1.840  0.1382 -0.2857  0.1434
19833TIP3    H180914   2.270   2.650   1.907  0.2711 -0.3203  0.2430
19833TIP3    H280915   2.260   2.508   1.857 -0.6203 -0.0148 -0.4725
19834TIP3   OH280916   4.952   2.677  15.057  0.2092 -0.3951  0.0207
19834TIP3    H180917   4.932   2.670  15.151  0.0117  1.2187  0.1229
19834TIP3    H280918   4.868   2.697  15.016  0.4371 -0.2728 -0.3949
19835TIP3   OH280919   2.432   5.383  11.336  0.1925 -0.1211 -0.0208
19835TIP3    H180920   2.487   5.322  11.287 -1.8475 -0.6377 -1.7644
19835TIP3    H280921   2.488   5.460  11.348  1.3636 -0.6596 -1.6161
19836TIP3   OH280922   0.751   0.751  15.438  0.6823  0.4212 -0.4722
19836TIP3    H180923   0.801   0.696  15.498 -1.9710 -1.1680  0.4396
19836TIP3    H280924   0.714   0.820  15.493 -1.4263 -0.8060 -0.2577
19837TIP3   OH280925   5.233   6.555  11.588  0.2253  0.0614 -0.3909
19837TIP3    H180926   5.297   6.605  11.537 -0.1081 -0.3918 -1.2785
19837TIP3    H280927   5.153   6.558  11.536 -0.2107 -0.1879  0.2463
19838TIP3   OH280928   2.794   2.556   0.459  0.1802 -0.1048 -0.5444
19838TIP3    H180929   2.867   2.571   0.519 -0.2846  0.2613 -0.0647
19838TIP3    H280930   2.769   2.643   0.428  0.1568 -0.2565 -0.9615
19839TIP3   OH280931   2.193   4.559   3.203  0.1276 -0.0687 -0.2158
19839TIP3    H180932   2.127   4.594   3.262  0.8653 -1.0136  1.2070
19839TIP3    H280933   2.143   4.522   3.130 -1.0308 -1.9195  1.4271
19840TIP3   OH280934   1.290   4.188   0.666  0.3595  0.1971  0.0447
19840TIP3    H180935   1.381   4.218   0.667  0.5330 -0.2556 -0.8741
19840TIP3    H280936   1.239   4.268   0.650  0.8693 -0.0053 -3.2296
19841TIP3   OH280937   6.609   2.373   4.098  0.2516  0.1829 -0.2589
19841TIP3    H180938   6.591   2.466   4.112 -1.5723 -0.1331 -0.3024
19841TIP3    H280939   6.688   2.371   4.044 -0.1377  1.7179 -0.9052
19842TIP3   OH280940   3.598   1.466  16.785  0.0530 -0.2932 -0.0538
19842TIP3    H180941   3.560   1.549  16.813 -0.5382 -0.9969  1.3341
19842TIP3    H280942   3.546   1.440  16.709 -1.6810 -0.7682  1.2343
19843TIP3   OH280943   2.966   1.880   6.529  0.0822 -0.4156 -0.5597
19843TIP3    H180944   3.037   1.939   6.554  0.2336 -1.0938  0.6692
19843TIP3    H280945   3.005   1.822   6.464  0.1670  0.2793 -1.1429
19844TIP3   OH280946   2.882   6.500   5.384  0.8280 -0.1860  0.0610
19844TIP3    H180947   2.876   6.443   5.307 -1.0317 -1.0211  0.7773
19844TIP3    H280948   2.860   6.444   5.458 -0.5966  1.3300  0.8445
19845TIP3   OH280949   2.382   6.099   0.994  0.0082  0.6800  0.7048
19845TIP3    H180950   2.392   6.004   1.004  0.1053  0.4364 -1.3843
19845TIP3    H280951   2.464   6.127   0.952 -1.0589  1.2652 -1.0782
19846TIP3   OH280952   1.413   6.408  13.265 -0.3981  0.0921 -0.1439
19846TIP3    H180953   1.505   6.410  13.239 -0.3656  0.2643 -0.0134
19846TIP3    H280954   1.369   6.364  13.192 -0.0596 -0.9579  0.2647
19847TIP3   OH280955   4.987   1.569   2.798 -0.7787 -0.5937  0.6780
19847TIP3    H180956   4.940   1.511   2.737 -0.3954 -1.0720  0.8308
19847TIP3    H280957   4.954   1.657   2.778  0.7412 -0.4541 -1.5468
19848TIP3   OH280958   4.430   5.231  14.826  0.0724  0.0437 -0.5404
19848TIP3    H180959   4.402   5.264  14.912 -2.2776 -3.3917  0.2337
19848TIP3    H280960   4.525   5.224  14.833 -0.1180 -1.3179  2.3643
19849TIP3   OH280961   6.450   5.243   5.713 -0.1576 -0.0055  0.2506
19849TIP3    H180962   6.454   5.148   5.707 -3.4827 -0.2431  0.3449
19849TIP3    H280963   6.488   5.263   5.799 -2.8817 -1.7053  1.9986
19850TIP3   OH280964   0.708   3.919  11.562  0.9003 -0.1232 -0.4062
19850TIP3    H180965   0.733   3.855  11.629  0.3299 -3.1819 -2.9218
19850TIP3    H280966   0.614   3.908  11.551  0.5657  2.0196 -0.1605
19851TIP3   OH280967   4.310   0.556  13.606 -0.1146  0.4961  0.7214
19851TIP3    H180968   4.279   0.469  13.582 -0.6748  0.7443  0.5245
19851TIP3    H280969   4.382   0.540  13.668  0.8726 -0.1225 -0.5503
19852TIP3   OH280970   2.450   6.710  17.125  0.0538 -0.1560 -0.2964
19852TIP3    H180971   2.456   6.800  17.157  2.8169 -0.7038  1.0024
19852TIP3    H280972   2.420   6.660  17.201 -1.2034 -0.3957 -0.9316
19853TIP3   OH280973   5.700   3.303   6.498  0.0492  0.6128 -0.0598
19853TIP3    H180974   5.666   3.342   6.579  1.7951  2.4080 -0.1202
19853TIP3    H280975   5.622   3.270   6.453 -1.1183  0.9266  1.6512
19854TIP3   OH280976   6.167   6.508  16.246 -0.0459 -0.1936  0.0293
19854TIP3    H180977   6.190   6.560  16.169  2.5337 -0.1628  0.7341
19854TIP3    H280978   6.077   6.536  16.268 -0.1231  1.1708 -1.8166
19855TIP3   OH280979   5.170   6.126   2.214  0.1640 -0.1597 -0.4266
19855TIP3    H180980   5.153   6.220   2.208  1.3081  0.0025 -1.3025
19855TIP3    H280981   5.127   6.100   2.296 -2.0583  0.6777 -1.2446
19856TIP3   OH280982   5.223   4.157  10.651 -0.3109  0.1237  0.1502
19856TIP3    H180983   5.217   4.236  10.598  1.1486 -0.8002 -1.5025
19856TIP3    H280984   5.139   4.112  10.637 -0.3194  0.3646 -0.6050
19857TIP3   OH280985   3.546   5.220  16.035  0.2167  0.2144 -0.3902
19857TIP3    H180986   3.561   5.220  16.129  1.2049 -0.5222 -0.5324
19857TIP3    H280987   3.597   5.146  16.002 -0.6238  0.0665 -1.4283
19858TIP3   OH280988   1.242   1.354  14.538 -0.3395 -0.3298  0.6235
19858TIP3    H180989   1.179   1.348  14.466 -0.4172  0.4244  0.6164
19858TIP3    H280990   1.285   1.439  14.525  0.8191 -0.9124  0.5172
19859TIP3   OH280991   2.650   1.294  11.776  0.4431  0.2253 -0.6151
19859TIP3    H180992   2.693   1.208  11.769  1.3505  0.5653  0.4622
19859TIP3    H280993   2.692   1.336  11.851 -1.1326  0.9671 -0.0952
19860TIP3   OH280994   4.307   2.056  12.319 -0.0203 -0.7952 -0.4785
19860TIP3    H180995   4.335   2.121  12.254 -0.6573  0.6127  0.6083
19860TIP3    H280996   4.384   2.000  12.333  0.4053 -0.5604 -1.7445
19861TIP3   OH280997   3.549   3.867   4.893 -0.1091  0.8563  0.7512
19861TIP3    H180998   3.489   3.881   4.966  0.5553  1.2418  1.2393
19861TIP3    H280999   3.526   3.935   4.830 -1.0348  0.1951  0.3608
19862TIP3   OH281000   1.609   4.070  16.282  0.2131  0.2757  0.1343
19862TIP3    H181001   1.668   4.103  16.215  1.7570  0.3571  1.4721
19862TIP3    H281002   1.609   3.975  16.270 -1.5686  0.4242 -1.5635
19863TIP3   OH281003   6.271   5.271  12.972 -0.3291 -0.1858 -1.3394
19863TIP3    H181004   6.254   5.178  12.965 -0.4838 -0.2713 -0.1556
19863TIP3    H281005   6.343   5.288  12.912  0.9674 -1.4390 -0.2167
19864TIP3   OH281006   4.199   2.560  11.733  0.4864 -0.5190  0.3065
19864TIP3    H181007   4.220   2.653  11.743  1.4326 -0.8044  1.1795
19864TIP3    H281008   4.212   2.523  11.821  0.9185 -1.6201 -0.2057
19865TIP3   OH281009   2.175   0.557  11.749  0.4264 -0.2968  0.0134
19865TIP3    H181010   2.118   0.537  11.675  0.4669  1.9579 -0.6953
19865TIP3    H281011   2.140   0.504  11.821 -1.2799 -0.5323 -0.9261
19866TIP3   OH281012   5.247   3.664  15.020  0.4984  0.3574 -0.2966
19866TIP3    H181013   5.164   3.667  15.067 -0.5350  0.2801 -2.0330
19866TIP3    H281014   5.304   3.610  15.076 -0.9366 -0.4662  0.4294
19867TIP3   OH281015   5.277   4.512  12.245 -0.3371  0.2273 -0.0741
19867TIP3    H181016   5.218   4.479  12.312  1.4076 -0.0108  1.3999
19867TIP3    H281017   5.226   4.581  12.201 -1.5257  0.4210  1.5029
19868TIP3   OH281018   6.008   4.367  12.655 -1.0705 -0.0432  0.1248
19868TIP3    H181019   5.961   4.284  12.641 -0.5884 -0.3370  0.2315
19868TIP3    H281020   6.005   4.380  12.749  2.9756 -2.4493  0.8239
19869TIP3   OH281021   5.504   3.014  17.343 -0.4477  0.1750  0.1740
19869TIP3    H181022   5.411   2.992  17.345 -0.6265  0.7034 -1.1137
19869TIP3    H281023   5.549   2.929  17.340 -0.9765 -0.0943 -0.9585
19870TIP3   OH281024   3.296   5.797   2.457  0.7011  0.5278  0.1798
19870TIP3    H181025   3.217   5.770   2.410 -0.6469  0.4017  2.3839
19870TIP3    H281026   3.341   5.855   2.395  0.4528 -1.6880 -2.2532
19871TIP3   OH281027   1.541   3.645   2.838  0.8728  0.0756 -0.1115
19871TIP3    H181028   1.606   3.657   2.907 -1.6831 -2.5602  3.1028
19871TIP3    H281029   1.549   3.553   2.813 -1.0896 -0.1547 -0.0795
19872TIP3   OH281030   3.264   1.183   6.058 -0.0374 -0.0700 -0.5904
19872TIP3    H181031   3.257   1.109   6.117  1.6428 -0.4123 -0.7769
19872TIP3    H281032   3.236   1.259   6.110 -3.1152 -0.9399 -0.8029
19873TIP3   OH281033   5.922   5.213   1.574 -0.2960 -0.1619  0.5809
19873TIP3    H181034   5.903   5.213   1.668 -2.9438 -1.5536  0.1345
19873TIP3    H281035   5.957   5.126   1.557 -1.0313 -0.3730  0.0964
19874TIP3   OH281036   1.401   6.196   1.065  0.1316  0.0726 -0.5721
19874TIP3    H181037   1.335   6.234   1.007 -1.3784 -0.4728  0.7265
19874TIP3    H281038   1.360   6.193   1.151  1.6256 -0.8762  0.1667
19875TIP3   OH281039   1.483   2.692   3.565  0.4998 -0.0837 -0.1229
19875TIP3    H181040   1.395   2.727   3.583 -0.2066 -0.8382 -1.8384
19875TIP3    H281041   1.522   2.679   3.651 -1.8281 -1.5667  0.8008
19876TIP3   OH281042   1.933   6.308  14.681  0.0529  0.3251  0.1323
19876TIP3    H181043   1.896   6.396  14.687  1.8469  1.0539  1.0167
19876TIP3    H281044   1.982   6.308  14.599 -2.3080 -0.8741 -1.4156
19877TIP3   OH281045   2.055   1.115   4.751  0.2622 -0.5480 -0.9285
19877TIP3    H181046   2.136   1.114   4.802 -1.2203 -0.1439  1.6197
19877TIP3    H281047   2.019   1.026   4.761 -1.0248  0.0781  0.5731
19878TIP3   OH281048   4.572   4.030  16.668  0.4517  0.2572  1.0318
19878TIP3    H181049   4.627   4.027  16.589 -2.0531  0.4882 -0.8513
19878TIP3    H281050   4.543   3.939  16.680 -0.0133  0.4045  1.0435
19879TIP3   OH281051   1.576   3.295  11.619 -0.0800  0.6033 -0.1738
19879TIP3    H181052   1.600   3.203  11.618  1.6579  1.0318 -0.8513
19879TIP3    H281053   1.586   3.321  11.710  0.7668  0.4420 -0.2143
19880TIP3   OH281054   3.687   1.747   4.878  0.6251  0.8427 -0.2284
19880TIP3    H181055   3.686   1.755   4.973 -1.8271 -0.0207 -0.1107
19880TIP3    H281056   3.738   1.823   4.848 -2.2426  3.7706  1.6165
19881TIP3   OH281057   6.699   6.131   6.114  0.4452  0.1971  0.4059
19881TIP3    H181058   6.614   6.087   6.126 -0.4579  1.5329 -0.7263
19881TIP3    H281059   6.693   6.210   6.167 -0.4702  2.0671 -2.2379
19882TIP3   OH281060   2.252   2.548  13.455  0.3315 -0.2131  0.1937
19882TIP3    H181061   2.284   2.630  13.418  1.4827 -0.3889  0.7672
19882TIP3    H281062   2.261   2.559  13.550 -1.2662 -0.3059  0.3943
19883TIP3   OH281063   2.706   2.981  16.290 -0.3668  0.3607 -0.1194
19883TIP3    H181064   2.664   2.956  16.372  1.2445  4.1067  2.0739
19883TIP3    H281065   2.691   3.075  16.282  2.3421  0.7501 -2.3811
19884TIP3   OH281066   2.421   4.474   0.108 -0.4654 -0.0144  0.4777
19884TIP3    H181067   2.415   4.452   0.015  0.0681  1.1457  0.1448
19884TIP3    H281068   2.364   4.412   0.151 -2.3585  0.7102 -0.8476
19885TIP3   OH281069   4.208   4.253  13.848  0.1645  0.0717  0.3778
19885TIP3    H181070   4.273   4.263  13.918  0.1106 -1.8337  0.7271
19885TIP3    H281071   4.232   4.321  13.785  2.2056 -0.2593  0.7342
19886TIP3   OH281072   2.741   1.383  15.073  0.7525 -0.4925 -0.2906
19886TIP3    H181073   2.810   1.406  15.010  0.9820 -0.6775 -0.1111
19886TIP3    H281074   2.664   1.364  15.020  0.4340  1.0659 -0.4430
19887TIP3   OH281075   3.959   1.133   4.043  0.1435  0.2176 -0.2939
19887TIP3    H181076   3.969   1.147   4.137 -0.0682  0.2287 -0.2740
19887TIP3    H281077   3.916   1.047   4.036  1.7833 -0.6453 -0.4156
19888TIP3   OH281078   5.259   0.868   1.924 -0.2530  0.0598  0.1565
19888TIP3    H181079   5.262   0.963   1.937  0.0197 -0.1942  2.2234
19888TIP3    H281080   5.331   0.850   1.864 -0.1702  1.1342 -0.0988
19889TIP3   OH281081   2.442   0.234  12.533 -0.1900  0.6599 -0.4356
19889TIP3    H181082   2.347   0.231  12.537 -0.1840 -0.7716 -0.6669
19889TIP3    H281083   2.470   0.248  12.624 -0.6102  1.5181 -0.4276
19890TIP3   OH281084   2.109   2.940   2.722  0.2345 -0.5102 -0.2531
19890TIP3    H181085   2.044   2.873   2.703  0.3107 -0.9591  0.9423
19890TIP3    H281086   2.061   3.007   2.771  0.5727 -0.6348  0.2579
19891TIP3   OH281087   3.964   2.713   0.500 -0.3113 -0.7560 -0.4555
19891TIP3    H181088   3.982   2.728   0.407 -0.7803  1.9526 -0.1900
19891TIP3    H281089   3.897   2.644   0.500  2.3497 -3.6418 -1.8571
19892TIP3   OH281090   1.224   3.498   0.305  1.0207 -0.2235 -0.8143
19892TIP3    H181091   1.291   3.434   0.326  1.1689 -0.3206 -1.5416
19892TIP3    H281092   1.206   3.544   0.387  2.9959  0.7531 -0.8781
19893TIP3   OH281093   2.091   4.130   0.926  0.3180 -0.0977 -0.6976
19893TIP3    H181094   2.090   4.040   0.958  1.3103 -0.3860 -1.4351
19893TIP3    H281095   2.182   4.147   0.901 -0.2705  0.2574 -2.8698
19894TIP3   OH281096   2.396   6.607   3.158  0.0646 -0.6689 -0.1093
19894TIP3    H181097   2.424   6.571   3.074  3.5853  0.3600  0.4528
19894TIP3    H281098   2.392   6.531   3.216 -0.3979 -1.1230 -0.7190
19895TIP3   OH281099   3.276   5.350  12.259  0.8715  0.1939  0.2625
19895TIP3    H181100   3.256   5.398  12.179  0.0820  1.0401  0.9483
19895TIP3    H281101   3.353   5.394  12.295 -0.8050  2.0566  1.7374
19896TIP3   OH281102   4.536   3.869   0.579 -0.3337  0.0284  0.3097
19896TIP3    H181103   4.458   3.918   0.606 -0.8549 -1.0362  0.8133
19896TIP3    H281104   4.562   3.910   0.497 -1.3682  0.4776  0.1820
19897TIP3   OH281105   1.190   2.611  15.130  0.7020 -0.3712  0.0489
19897TIP3    H181106   1.159   2.523  15.155  2.5241 -0.9599  0.3785
19897TIP3    H281107   1.230   2.599  15.044 -1.3167  0.7076 -1.1080
19898TIP3   OH281108   6.596   0.381   4.256  0.0067 -0.3816 -0.1325
19898TIP3    H181109   6.535   0.423   4.196 -0.1311 -0.5744 -0.1290
19898TIP3    H281110   6.680   0.426   4.242 -0.0678 -0.3111 -0.3418
19899TIP3   OH281111   0.328   3.740   2.135 -0.3013 -0.5976 -0.2649
19899TIP3    H181112   0.284   3.788   2.204  0.8004  1.7577 -1.0954
19899TIP3    H281113   0.399   3.693   2.179 -1.2021 -1.2575  0.5147
19900TIP3   OH281114   3.664   0.351   2.994  0.1001  0.3552 -0.2413
19900TIP3    H181115   3.628   0.303   3.068  2.3484  1.9585  2.0542
19900TIP3    H281116   3.756   0.325   2.990  0.2463  1.0007 -1.9025
19901TIP3   OH281117   0.907   6.262  14.875  0.1223  0.0605  0.5703
19901TIP3    H181118   0.946   6.176  14.862 -0.2169 -0.2799  1.6633
19901TIP3    H281119   0.841   6.269  14.806  0.1512 -0.5610  0.4732
19902TIP3   OH281120   4.808   5.884   3.509 -0.7907 -0.2802 -0.4536
19902TIP3    H181121   4.817   5.922   3.422 -0.8009 -1.2337 -0.8823
19902TIP3    H281122   4.839   5.794   3.499 -0.9289 -0.4444  0.4975
19903TIP3   OH281123   6.464   3.952  12.112 -0.4520 -0.3072 -0.5375
19903TIP3    H181124   6.411   3.923  12.038 -0.4133 -0.9365 -0.3222
19903TIP3    H281125   6.445   3.889  12.181 -0.8536  0.5540  0.1495
19904TIP3   OH281126   3.230   0.564  13.117  0.2564  0.3551  0.5261
19904TIP3    H181127   3.325   0.570  13.128  0.8818 -2.7403 -1.7601
19904TIP3    H281128   3.211   0.470  13.122 -2.8248  0.8966  1.4654
19905TIP3   OH281129   1.649   5.387  16.293  0.2215 -0.2248 -0.1553
19905TIP3    H181130   1.690   5.377  16.207 -0.9940 -3.6450 -0.4991
19905TIP3    H281131   1.713   5.351  16.354  0.0404 -0.2142  0.0403
19906TIP3   OH281132   3.222   6.059  11.735 -0.5408  0.2190  0.2403
19906TIP3    H181133   3.208   6.083  11.643 -0.0366  0.5874  0.2556
19906TIP3    H281134   3.158   5.991  11.752 -0.7782  0.2957 -0.3291
19907TIP3   OH281135   0.044   3.265  17.171  0.2943 -0.4477  0.2727
19907TIP3    H181136   0.055   3.183  17.219  0.7971  0.5370  1.9135
19907TIP3    H281137   0.108   3.325  17.210 -0.2019  0.7986 -0.7434
19908TIP3   OH281138   1.877   3.419  15.146  0.0035  0.7727 -0.0137
19908TIP3    H181139   1.933   3.358  15.194 -0.7278  0.5574  0.5891
19908TIP3    H281140   1.789   3.381  15.153  0.0667 -0.1664 -2.9701
19909TIP3   OH281141   3.688   0.252   5.633 -0.0506 -0.4544 -0.0965
19909TIP3    H181142   3.676   0.159   5.617  3.7795 -1.0292 -0.4432
19909TIP3    H281143   3.687   0.292   5.546  1.3521 -0.6934 -0.2495
19910TIP3   OH281144   1.934   3.018   4.844 -0.2245  0.2767 -0.6509
19910TIP3    H181145   1.971   2.953   4.785 -1.6716 -1.5955  0.3950
19910TIP3    H281146   1.857   3.052   4.798 -0.6392 -0.2649 -0.3605
19911TIP3   OH281147   3.869   5.774  11.540 -0.1006 -0.2144  0.2327
19911TIP3    H181148   3.795   5.744  11.486 -1.9391  0.4044  2.2675
19911TIP3    H281149   3.874   5.710  11.612  1.8471 -0.6252 -0.1948
19912TIP3   OH281150   4.183   5.987  10.598  0.4947  0.2585 -0.0946
19912TIP3    H181151   4.176   6.022  10.686  1.3316  0.3119 -0.0371
19912TIP3    H281152   4.239   6.049  10.552 -0.7926  0.8074 -0.9838
19913TIP3   OH281153   5.454   2.063  15.760 -0.0700 -0.4415 -0.1229
19913TIP3    H181154   5.378   2.071  15.701  0.5826  0.7744 -0.8326
19913TIP3    H281155   5.429   2.114  15.837  0.7206  1.5693 -1.1309
19914TIP3   OH281156   1.650   0.980  12.377  0.1580 -0.2697 -0.0829
19914TIP3    H181157   1.695   0.906  12.335  1.7923 -0.3664  1.7087
19914TIP3    H281158   1.648   0.957  12.470  0.0002  1.5861  0.4155
19915TIP3   OH281159   0.381   4.397  13.722  0.0706 -0.1450  0.5470
19915TIP3    H181160   0.470   4.428  13.704  0.3309  0.0591  2.0196
19915TIP3    H281161   0.333   4.412  13.641  0.3927  3.3682  0.8427
19916TIP3   OH281162   2.068   1.613  12.175 -0.2399 -0.3028  0.1553
19916TIP3    H181163   2.080   1.609  12.080  1.0683  0.2475  0.2759
19916TIP3    H281164   2.156   1.599  12.210 -0.5049  0.6445  1.2489
19917TIP3   OH281165   0.318   1.477   4.109 -0.0391  0.1649  0.2450
19917TIP3    H181166   0.338   1.570   4.108  1.0640 -0.0303  1.3944
19917TIP3    H281167   0.265   1.464   4.187  1.1450 -0.3950  0.9802
19918TIP3   OH281168   2.807   2.997   3.711 -0.1943  0.0911 -0.1789
19918TIP3    H181169   2.826   2.915   3.665  0.6175 -0.5340  1.1923
19918TIP3    H281170   2.865   2.995   3.787 -1.3897  1.1401  0.7973
19919TIP3   OH281171   6.203   1.675  11.538 -0.0528 -0.2106  0.2612
19919TIP3    H181172   6.246   1.674  11.452  1.6863 -1.1019  1.0935
19919TIP3    H281173   6.148   1.596  11.538  0.5914 -0.6644  0.2700
19920TIP3   OH281174   3.877   3.001  13.905 -0.6078  0.5488  0.3114
19920TIP3    H181175   3.875   2.933  13.838 -3.2754 -1.0357  1.8069
19920TIP3    H281176   3.958   3.049  13.889  0.5987 -1.9616 -1.8296
19921TIP3   OH281177   6.591   5.030   6.555 -0.2047 -0.4361  0.5845
19921TIP3    H181178   6.520   5.094   6.551 -0.3155 -0.3124  2.8926
19921TIP3    H281179   6.663   5.070   6.508 -1.7489 -0.7973 -2.3310
19922TIP3   OH281180   6.055   4.566   0.876 -0.0059  0.6877  0.0475
19922TIP3    H181181   6.034   4.652   0.913 -0.6475  0.8520 -0.6779
19922TIP3    H281182   6.118   4.529   0.937 -0.5189  1.2384  0.9364
19923TIP3   OH281183   5.071   5.627   3.547 -0.5783  0.0281 -0.3545
19923TIP3    H181184   5.164   5.617   3.569 -1.2070 -1.0282  2.1567
19923TIP3    H281185   5.060   5.577   3.467  0.9545 -0.0941 -0.5218
19924TIP3   OH281186   3.120   3.269   4.581  0.5879  0.0293 -0.2869
19924TIP3    H181187   3.028   3.270   4.555  0.2289 -1.3673  0.7851
19924TIP3    H281188   3.133   3.354   4.625 -0.5735 -0.2744  0.7118
19925TIP3   OH281189   4.052   1.036  11.787 -0.4299 -0.1238 -0.6568
19925TIP3    H181190   4.043   1.128  11.814  0.1924 -0.3578  0.4192
19925TIP3    H281191   4.141   1.030  11.754  0.1265 -0.7166  0.8987
19926TIP3   OH281192   6.621   1.793  13.538  0.5407  0.2579 -0.1693
19926TIP3    H181193   6.566   1.831  13.469 -0.2837 -0.6469 -0.0362
19926TIP3    H281194   6.636   1.865  13.599 -2.7397 -0.0134  1.2032
19927TIP3   OH281195   5.027   4.792  16.053 -0.1285  0.7892 -0.4021
19927TIP3    H181196   5.042   4.714  16.107 -0.2318  0.1993 -1.2049
19927TIP3    H281197   4.946   4.829  16.088 -0.0894  0.5284 -0.0234
19928TIP3   OH281198   6.296   4.531  15.268 -0.0611  0.0589  0.4621
19928TIP3    H181199   6.264   4.595  15.332 -0.2250 -0.8474  1.3075
19928TIP3    H281200   6.330   4.585  15.195  0.8046  1.1284  1.6107
19929TIP3   OH281201   1.079   3.955   4.009 -0.0308  0.5267  0.2250
19929TIP3    H181202   1.130   3.975   4.087 -1.4564  1.3626  0.9888
19929TIP3    H281203   1.027   3.878   4.032  1.4440 -0.8436 -0.8393
19930TIP3   OH281204   4.217   2.211   2.147 -0.1683  0.2471  0.2592
19930TIP3    H181205   4.146   2.188   2.088  0.8051  1.7972 -1.6650
19930TIP3    H281206   4.256   2.128   2.173 -0.8666 -0.4900 -0.9991
19931TIP3   OH281207   3.005   0.297   2.453 -0.3439 -0.2707  0.1774
19931TIP3    H181208   3.038   0.346   2.528 -1.3289 -0.7128  0.9213
19931TIP3    H281209   2.975   0.214   2.490  1.5217 -1.5989 -1.0844
19932TIP3   OH281210   6.725   4.125   2.908  0.4204  0.1045  0.2167
19932TIP3    H181211   6.636   4.150   2.884  0.3917  0.6950  0.9372
19932TIP3    H281212   6.780   4.192   2.868  0.7424 -1.3765 -2.0230
19933TIP3   OH281213   2.227   4.340   4.649 -0.2916  0.8144 -0.5068
19933TIP3    H181214   2.146   4.323   4.601 -1.0854 -1.8102  1.5089
19933TIP3    H281215   2.201   4.395   4.723 -0.4165 -0.4528  0.4341
19934TIP3   OH281216   5.579   5.401   1.171  0.2328 -0.2891 -0.2099
19934TIP3    H181217   5.567   5.438   1.084 -1.1215  2.4460  1.0272
19934TIP3    H281218   5.673   5.380   1.175  0.9435  2.2824 -1.3547
19935TIP3   OH281219   2.118   1.864   4.109 -0.3049  0.0214 -0.3401
19935TIP3    H181220   2.042   1.923   4.111 -0.1030  0.2820 -0.3599
19935TIP3    H281221   2.096   1.800   4.042 -0.6277 -0.0634 -0.1577
19936TIP3   OH281222   5.652   0.979  13.460 -0.4258  0.0263  0.0926
19936TIP3    H181223   5.737   0.948  13.491 -0.2755 -0.5502 -0.8851
19936TIP3    H281224   5.602   0.993  13.541  0.6702  0.6508  0.6961
19937TIP3   OH281225   0.436   3.297   3.548  0.1339  0.4942  0.6061
19937TIP3    H181226   0.485   3.221   3.516  1.8735  1.5406  0.6790
19937TIP3    H281227   0.383   3.324   3.474 -0.8954 -1.0487  0.7236
19938TIP3   OH281228   3.069   6.475   6.169  0.2684 -0.2885 -0.1554
19938TIP3    H181229   3.034   6.416   6.236  2.7078 -1.2808  0.3388
19938TIP3    H281230   3.114   6.543   6.219 -0.2223  0.5230 -0.7833
19939TIP3   OH281231   0.083   0.703  13.924 -0.5323 -0.6276 -0.0178
19939TIP3    H181232   0.079   0.671  14.014  1.1316  0.1494  0.3740
19939TIP3    H281233   0.174   0.729  13.912 -1.0362  0.6453 -1.4432
19940TIP3   OH281234   5.168   3.709   6.293 -0.3315  0.2136 -0.4652
19940TIP3    H181235   5.214   3.789   6.318 -1.2332  0.3820  0.7240
19940TIP3    H281236   5.076   3.727   6.310 -0.8104 -0.3355 -2.2123
19941TIP3   OH281237   3.012   0.822  13.674  0.3579  0.4696 -0.2649
19941TIP3    H181238   3.027   0.801  13.766  1.2403  1.8981 -0.0403
19941TIP3    H281239   3.032   0.742  13.627 -0.9505 -0.5539  0.8226
19942TIP3   OH281240   1.439   4.127  15.614  0.0127 -0.1506 -0.1824
19942TIP3    H181241   1.399   4.045  15.586 -0.8280 -0.1625  1.0247
19942TIP3    H281242   1.366   4.182  15.642  0.3863  1.6472 -2.4340
19943TIP3   OH281243   2.378   4.566  10.780 -0.2752 -0.1737 -0.3399
19943TIP3    H181244   2.355   4.603  10.865 -0.1035  0.9174 -0.7455
19943TIP3    H281245   2.332   4.482  10.776 -1.2783  0.3341  0.3210
19944TIP3   OH281246   5.991   0.335  17.014 -0.4404  0.3996  0.4398
19944TIP3    H181247   6.052   0.406  16.995 -0.1095  0.0639  0.2418
19944TIP3    H281248   5.909   0.379  17.037 -0.0018  0.8661  1.1552
19945TIP3   OH281249   5.855   3.609   4.884  0.1837  0.4551  0.5503
19945TIP3    H181250   5.770   3.646   4.858 -0.7814 -1.8871  0.0290
19945TIP3    H281251   5.835   3.556   4.961  0.6708 -1.7572 -0.7433
19946CLA    CLA81252   5.493   0.558   4.347  0.1760  0.1735 -0.0882
19947LIG     O181253   3.646   3.025  17.366 -0.0215 -0.3582 -0.5363
19947LIG     O281254   3.325   3.199  17.362 -0.0748 -0.1374 -0.1807
19947LIG     O381255   3.506   3.074  17.194  0.4780  0.1962  0.0983
19947LIG     O481256   3.300   2.941  17.389  0.4240  0.3408 -0.1612
19947LIG     O581257   3.150   3.717  17.089  0.3788 -0.4134  0.0590
19947LIG      N81258   3.913   2.803  17.293  0.4069  0.1573 -0.1639
19947LIG     C181259   3.867   2.937  17.344 -0.4204 -0.7515 -0.8692
19947LIG     C281260   3.820   2.772  17.176 -0.5428  0.2312  0.6098
19947LIG     C381261   3.738   2.968  17.273 -0.1815 -0.3423 -0.5338
19947LIG     C481262   3.691   2.835  17.212  0.7851 -0.3263  0.3055
19947LIG     C581263   4.058   2.811  17.256  0.2677 -0.2510 -0.4416
19947LIG     C681264   3.892   2.709  17.407 -0.0410 -0.2465  0.3709
19947LIG     C781265   3.536   3.078  17.313  0.1264  0.5076  0.2009
19947LIG     C881266   3.444   3.133  17.416  0.5805 -0.8245 -0.2000
19947LIG     C981267   3.520   3.233  17.515 -0.2189  0.3261  0.1989
19947LIG    C1081268   3.399   3.001  17.468  0.0519  0.5337  0.0957
19947LIG    C1181269   3.368   3.325  17.311  0.1544 -0.0228  0.3388
19947LIG    C1281270   3.457   3.265  17.633 -0.0896 -0.5457 -0.3030
19947LIG    C1381271   3.638   3.288  17.481 -0.0452 -0.5789  0.3058
19947LIG    C1481272   3.429   2.931  17.580 -0.2449  0.6577  0.2367
19947LIG    C1581273   3.243   3.362  17.226 -0.4868 -0.1805  0.5841
19947LIG    C1681274   3.252   3.516  17.190  1.3143 -0.4808  0.2559
19947LIG    C1781275   3.355   2.819  17.579 -1.0565  0.2218 -0.0880
19947LIG    C1881276   3.520   3.359  17.723 -0.0439 -0.0349  0.2885
19947LIG    C1981277   3.694   3.394  17.558 -0.1964 -0.7495  0.5161
19947LIG    C2081278   3.280   2.824  17.464  0.4725  0.4481 -0.1184
19947LIG    C2181279   3.642   3.422  17.686 -0.1238 -0.1837 -0.0759
19947LIG    C2281280   3.135   3.575  17.110 -0.2347  0.7558  0.2267
19947LIG     H181281   3.944   3.015  17.323 -0.8061  0.8706  3.0215
19947LIG     H281282   3.859   2.938  17.454  0.1992 -1.3039 -0.8126
19947LIG     H381283   3.814   2.667  17.140 -1.0992  0.3841  0.2474
19947LIG     H481284   3.861   2.821  17.085 -1.0911 -0.2881  0.0738
19947LIG     H581285   3.756   3.038  17.190 -1.8639  2.8244  1.5700
19947LIG     H681286   3.633   2.783  17.290  0.9858 -1.2925 -0.1773
19947LIG     H781287   3.628   2.848  17.123  1.9148 -2.6533 -0.9200
19947LIG     H881288   4.081   2.888  17.184 -0.3280  1.3823  1.0493
19947LIG     H981289   4.110   2.720  17.231  0.0733 -0.4962  0.0322
19947LIG    H1081290   4.101   2.856  17.343 -2.2033  1.2386  0.1171
19947LIG    H1181291   3.866   2.616  17.359 -1.4836  0.7859 -0.9256
19947LIG    H1281292   3.809   2.743  17.467  0.8501  2.0858  0.3973
19947LIG    H1381293   3.981   2.711  17.469 -0.5711 -2.2705  1.2724
19947LIG    H1481294   3.468   3.332  17.263 -0.5205  2.7779 -0.8591
19947LIG    H1581295   3.372   3.396  17.397 -0.9321 -0.3669  0.6938
19947LIG    H1681296   3.357   3.230  17.656 -0.2970 -0.6864 -1.3902
19947LIG    H1781297   3.687   3.279  17.385 -0.7721  1.0953 -0.2707
19947LIG    H1881298   3.514   2.958  17.642  1.1753  2.3128 -2.2465
19947LIG    H1981299   3.152   3.355  17.289 -1.3628 -0.7886 -0.7127
19947LIG    H2081300   3.236   3.297  17.136  0.5191  0.7654 -0.2192
19947LIG    H2181301   3.342   3.536  17.129  1.1153  1.2405  0.4717
19947LIG    H2281302   3.250   3.559  17.292 -0.3058 -0.3322  0.1978
19947LIG    H2381303   3.347   2.746  17.658  0.2302 -0.3730 -0.4969
19947LIG    H2481304   3.475   3.385  17.818  1.0354 -0.8712  1.0509
19947LIG    H2581305   3.785   3.437  17.519 -0.9457 -0.8791 -1.5356
19947LIG    H2681306   3.195   2.767  17.426 -0.8310 -0.9169  4.2285
19947LIG    H2781307   3.687   3.491  17.756  0.3865 -0.8654  0.2771
19947LIG    H2881308   3.144   3.530  17.009  1.2170 -2.2163  1.5316
19947LIG    H2981309   3.030   3.550  17.136 -0.5188  0.3206 -1.2367
19947LIG    H3081310   3.139   3.726  16.995 -0.3398  1.1441  0.2688
   6.75455   6.75455  17.41074
