;;
;; Generated by CHARMM-GUI (http://www.charmm-gui.org) v1.7
;;
;; psf2itp_mol.py
;;
;; Correspondance:
;; jul316@lehigh.edu or wonpil@lehigh.edu
;;
;; GROMACS topology file for LIG
;;


[ moleculetype ]
; name	nrexcl
LIG	     3

[ atoms ]
; nr	type	resnr	residu	atom	cgnr	charge	mass
     1      SG311      1      LIG     S1      1     -0.229    32.0600   ; qtot -0.229
     2      SG311      1      LIG     S2      2     -0.189    32.0600   ; qtot -0.418
     3     SG2R50      1      LIG     S3      3      0.000    32.0600   ; qtot -0.418
     4      OG2D1      1      LIG     O1      4     -0.469    15.9994   ; qtot -0.887
     5      OG311      1      LIG     O2      5     -0.561    15.9994   ; qtot -1.448
     6      OG2D1      1      LIG     O3      6     -0.557    15.9994   ; qtot -2.005
     7      OG2D1      1      LIG     O4      7     -0.532    15.9994   ; qtot -2.537
     8     NG2R43      1      LIG     N1      8     -0.228    14.0070   ; qtot -2.765
     9      NG2S1      1      LIG     N2      9     -0.547    14.0070   ; qtot -3.312
    10     NG2R51      1      LIG     N3     10      0.247    14.0070   ; qtot -3.065
    11     NG2R50      1      LIG     N4     11     -0.583    14.0070   ; qtot -3.648
    12     NG2R50      1      LIG     N5     12     -0.321    14.0070   ; qtot -3.969
    13     NG2R50      1      LIG     N6     13     -0.093    14.0070   ; qtot -4.062
    14     CG3RC1      1      LIG     C1     14      0.044    12.0110   ; qtot -4.018
    15      CG301      1      LIG     C2     15      0.365    12.0110   ; qtot -3.653
    16     CG3C41      1      LIG     C3     16      0.313    12.0110   ; qtot -3.340
    17      CG321      1      LIG     C4     17     -0.086    12.0110   ; qtot -3.426
    18     CG2R53      1      LIG     C5     18      0.252    12.0110   ; qtot -3.174
    19      CG321      1      LIG     C6     19     -0.162    12.0110   ; qtot -3.336
    20      CG321      1      LIG     C7     20     -0.118    12.0110   ; qtot -3.454
    21      CG2O2      1      LIG     C8     21      0.796    12.0110   ; qtot -2.658
    22      CG2O1      1      LIG     C9     22      0.539    12.0110   ; qtot -2.119
    23      CG321      1      LIG    C10     23     -0.095    12.0110   ; qtot -2.214
    24     CG2R53      1      LIG    C11     24      0.667    12.0110   ; qtot -1.547
    25     CG2R51      1      LIG    C12     25      0.076    12.0110   ; qtot -1.471
    26     CG2R51      1      LIG    C13     26     -0.204    12.0110   ; qtot -1.675
    27      CG331      1      LIG    C14     27     -0.180    12.0110   ; qtot -1.855
    28     CG2R51      1      LIG    C15     28     -0.220    12.0110   ; qtot -2.075
    29     CG2R51      1      LIG    C16     29     -0.247    12.0110   ; qtot -2.322
    30       HGA1      1      LIG     H1     30      0.090     1.0080   ; qtot -2.232
    31       HGA1      1      LIG     H2     31      0.090     1.0080   ; qtot -2.142
    32       HGA2      1      LIG     H3     32      0.090     1.0080   ; qtot -2.052
    33       HGA2      1      LIG     H4     33      0.090     1.0080   ; qtot -1.962
    34       HGA2      1      LIG     H5     34      0.090     1.0080   ; qtot -1.872
    35       HGA2      1      LIG     H6     35      0.090     1.0080   ; qtot -1.782
    36       HGA2      1      LIG     H7     36      0.090     1.0080   ; qtot -1.692
    37       HGA2      1      LIG     H8     37      0.090     1.0080   ; qtot -1.602
    38       HGP1      1      LIG     H9     38      0.316     1.0080   ; qtot -1.286
    39       HGP1      1      LIG    H10     39      0.290     1.0080   ; qtot -0.996
    40       HGA2      1      LIG    H11     40      0.090     1.0080   ; qtot -0.906
    41       HGA2      1      LIG    H12     41      0.090     1.0080   ; qtot -0.816
    42      HGR51      1      LIG    H13     42      0.173     1.0080   ; qtot -0.643
    43       HGA3      1      LIG    H14     43      0.090     1.0080   ; qtot -0.553
    44       HGA3      1      LIG    H15     44      0.090     1.0080   ; qtot -0.463
    45       HGA3      1      LIG    H16     45      0.090     1.0080   ; qtot -0.373
    46      HGR51      1      LIG    H17     46      0.187     1.0080   ; qtot -0.186
    47      HGR52      1      LIG    H18     47      0.186     1.0080   ; qtot -0.000

[ bonds ]
; ai	aj	funct	b0	Kb
    1    14     1
    1    19     1
    2    20     1
    2    24     1
    3    25     1
    3    29     1
    4    18     1
    5    21     1
    5    39     1
    6    21     1
    7    22     1
    8    14     1
    8    17     1
    8    18     1
    9    16     1
    9    22     1
    9    38     1
   10    12     1
   10    24     1
   10    27     1
   11    13     1
   11    24     1
   12    13     1
   14    16     1
   14    30     1
   15    17     1
   15    19     1
   15    20     1
   15    21     1
   16    18     1
   16    31     1
   17    32     1
   17    33     1
   19    34     1
   19    35     1
   20    36     1
   20    37     1
   22    23     1
   23    25     1
   23    40     1
   23    41     1
   25    26     1
   26    28     1
   26    42     1
   27    43     1
   27    44     1
   27    45     1
   28    29     1
   28    46     1
   29    47     1

[ pairs ]
; ai	aj	funct	c6	c12
    1     9     1 
    1    17     1 
    1    18     1 
    1    20     1 
    1    21     1 
    1    31     1 
    2    12     1 
    2    13     1 
    2    17     1 
    2    19     1 
    2    21     1 
    2    27     1 
    3    22     1 
    3    40     1 
    3    41     1 
    3    42     1 
    3    46     1 
    4     9     1 
    4    14     1 
    4    17     1 
    4    31     1 
    5    17     1 
    5    19     1 
    5    20     1 
    6    17     1 
    6    19     1 
    6    20     1 
    6    39     1 
    7    16     1 
    7    25     1 
    7    38     1 
    7    40     1 
    7    41     1 
    8     9     1 
    8    14     1 
    8    18     1 
    8    19     1 
    8    20     1 
    8    21     1 
    8    31     1 
    9    25     1 
    9    30     1 
    9    40     1 
    9    41     1 
   10    20     1 
   11    20     1 
   11    27     1 
   12    43     1 
   12    44     1 
   12    45     1 
   13    27     1 
   14    15     1 
   14    16     1 
   14    22     1 
   14    32     1 
   14    33     1 
   14    34     1 
   14    35     1 
   14    38     1 
   15    18     1 
   15    24     1 
   15    39     1 
   16    17     1 
   16    18     1 
   16    19     1 
   16    23     1 
   17    30     1 
   17    34     1 
   17    35     1 
   17    36     1 
   17    37     1 
   18    22     1 
   18    30     1 
   18    32     1 
   18    33     1 
   18    38     1 
   19    30     1 
   19    32     1 
   19    33     1 
   19    36     1 
   19    37     1 
   20    32     1 
   20    33     1 
   20    34     1 
   20    35     1 
   21    32     1 
   21    33     1 
   21    34     1 
   21    35     1 
   21    36     1 
   21    37     1 
   22    26     1 
   22    31     1 
   23    28     1 
   23    29     1 
   23    38     1 
   23    42     1 
   24    36     1 
   24    37     1 
   24    43     1 
   24    44     1 
   24    45     1 
   25    46     1 
   25    47     1 
   26    40     1 
   26    41     1 
   26    47     1 
   29    42     1 
   30    31     1 
   31    38     1 
   42    46     1 
   46    47     1 

[ angles ] 
; ai	aj	ak	funct	th0	cth	S0	Kub
   14     1    19     5
   20     2    24     5
   25     3    29     5
   21     5    39     5
   14     8    17     5
   14     8    18     5
   17     8    18     5
   16     9    22     5
   16     9    38     5
   22     9    38     5
   12    10    24     5
   12    10    27     5
   24    10    27     5
   13    11    24     5
   10    12    13     5
   11    13    12     5
    1    14     8     5
    1    14    16     5
    1    14    30     5
    8    14    16     5
    8    14    30     5
   16    14    30     5
   17    15    19     5
   17    15    20     5
   17    15    21     5
   19    15    20     5
   19    15    21     5
   20    15    21     5
    9    16    14     5
    9    16    18     5
    9    16    31     5
   14    16    18     5
   14    16    31     5
   18    16    31     5
    8    17    15     5
    8    17    32     5
    8    17    33     5
   15    17    32     5
   15    17    33     5
   32    17    33     5
    4    18     8     5
    4    18    16     5
    8    18    16     5
    1    19    15     5
    1    19    34     5
    1    19    35     5
   15    19    34     5
   15    19    35     5
   34    19    35     5
    2    20    15     5
    2    20    36     5
    2    20    37     5
   15    20    36     5
   15    20    37     5
   36    20    37     5
    5    21     6     5
    5    21    15     5
    6    21    15     5
    7    22     9     5
    7    22    23     5
    9    22    23     5
   22    23    25     5
   22    23    40     5
   22    23    41     5
   25    23    40     5
   25    23    41     5
   40    23    41     5
    2    24    10     5
    2    24    11     5
   10    24    11     5
    3    25    23     5
    3    25    26     5
   23    25    26     5
   25    26    28     5
   25    26    42     5
   28    26    42     5
   10    27    43     5
   10    27    44     5
   10    27    45     5
   43    27    44     5
   43    27    45     5
   44    27    45     5
   26    28    29     5
   26    28    46     5
   29    28    46     5
    3    29    28     5
    3    29    47     5
   28    29    47     5

[ dihedrals ]
; ai	aj	ak	al	funct	phi0	cp	mult
   19     1    14    30     9
   14     1    19    15     9
   14     1    19    34     9
   14     1    19    35     9
   24     2    20    36     9
   24     2    20    37     9
   25     3    29    28     9
   25     3    29    47     9
   17     8    14    30     9
   18     8    14    30     9
   14     8    17    15     9
   14     8    17    32     9
   14     8    17    33     9
   18     8    17    32     9
   18     8    17    33     9
   14     8    18    16     9
   22     9    16    31     9
   16     9    22    23     9
   12    10    27    43     9
   12    10    27    44     9
   12    10    27    45     9
   24    10    27    43     9
   24    10    27    44     9
   24    10    27    45     9
   13    12    10    24     9
   13    12    10    27     9
   10    12    13    11     9
   12    13    11    24     9
    8    14     1    19     9
   16    14     1    19     9
    1    14     8    17     9
    1    14     8    18     9
   16    14     8    17     9
   16    14     8    18     9
    1    14    16     9     9
    1    14    16    18     9
    1    14    16    31     9
    8    14    16     9     9
    8    14    16    18     9
    8    14    16    31     9
   30    14    16    31     9
   19    15    17    32     9
   19    15    17    33     9
   20    15    17    32     9
   20    15    17    33     9
   21    15    17    32     9
   21    15    17    33     9
   17    15    19    34     9
   17    15    19    35     9
   20    15    19    34     9
   20    15    19    35     9
   21    15    19    34     9
   21    15    19    35     9
   17    15    20    36     9
   17    15    20    37     9
   19    15    20    36     9
   19    15    20    37     9
   21    15    20    36     9
   21    15    20    37     9
   14    16     9    22     9
   14    16     9    38     9
   18    16     9    22     9
   18    16     9    38     9
   31    16     9    38     9
    9    16    14    30     9
   18    16    14    30     9
   15    17     8    18     9
    8    17    15    19     9
    8    17    15    20     9
    8    17    15    21     9
    4    18     8    14     9
    4    18     8    17     9
   16    18     8    17     9
    4    18    16     9     9
    4    18    16    14     9
    4    18    16    31     9
    8    18    16     9     9
    8    18    16    14     9
    8    18    16    31     9
    1    19    15    17     9
    1    19    15    20     9
    1    19    15    21     9
   15    20     2    24     9
    2    20    15    17     9
    2    20    15    19     9
    2    20    15    21     9
    6    21     5    39     9
   15    21     5    39     9
    5    21    15    17     9
    5    21    15    19     9
    5    21    15    20     9
    6    21    15    17     9
    6    21    15    19     9
    6    21    15    20     9
    7    22     9    16     9
    7    22     9    38     9
   23    22     9    38     9
    7    22    23    25     9
    7    22    23    40     9
    7    22    23    41     9
    9    22    23    25     9
    9    22    23    40     9
    9    22    23    41     9
   22    23    25    26     9
   10    24     2    20     9
   11    24     2    20     9
    2    24    10    12     9
    2    24    10    27     9
   11    24    10    12     9
   11    24    10    27     9
    2    24    11    13     9
   10    24    11    13     9
   23    25     3    29     9
   26    25     3    29     9
    3    25    23    22     9
    3    25    23    40     9
    3    25    23    41     9
   26    25    23    40     9
   26    25    23    41     9
    3    25    26    28     9
    3    25    26    42     9
   23    25    26    28     9
   23    25    26    42     9
   25    26    28    29     9
   25    26    28    46     9
   42    26    28    46     9
   29    28    26    42     9
   26    28    29    47     9
   46    28    29    47     9
    3    29    28    26     9
    3    29    28    46     9

[ dihedrals ]
; ai	aj	ak	al	funct	q0	cq
   18    16     8     4     2
   21    15     6     5     2
   22    23     9     7     2
