;;
;; Generated by CHARMM-GUI (http://www.charmm-gui.org) v1.7
;;
;; psf2itp_mol.py
;;
;; Correspondance:
;; jul316@lehigh.edu or wonpil@lehigh.edu
;;
;; GROMACS topology file for LIG
;;


[ moleculetype ]
; name	nrexcl
LIG	     3

[ atoms ]
; nr	type	resnr	residu	atom	cgnr	charge	mass
     1      OG2D4      1      LIG     O1      1     -0.488    15.9994   ; qtot -0.488
     2      OG2D4      1      LIG     O2      2     -0.443    15.9994   ; qtot -0.931
     3     NG2R61      1      LIG     N1      3     -0.052    14.0070   ; qtot -0.983
     4     NG2R51      1      LIG     N2      4     -0.082    14.0070   ; qtot -1.065
     5     NG2R61      1      LIG     N3      5      0.345    14.0070   ; qtot -0.720
     6     NG2R50      1      LIG     N4      6     -0.745    14.0070   ; qtot -1.465
     7     CG2RC0      1      LIG     C1      7     -0.172    12.0110   ; qtot -1.637
     8     CG2RC0      1      LIG     C2      8      0.475    12.0110   ; qtot -1.162
     9     CG2R63      1      LIG     C3      9      0.466    12.0110   ; qtot -0.696
    10     CG2R63      1      LIG     C4     10      0.027    12.0110   ; qtot -0.669
    11     CG2R53      1      LIG     C5     11      0.265    12.0110   ; qtot -0.404
    12      CG331      1      LIG     C6     12     -0.078    12.0110   ; qtot -0.482
    13      CG331      1      LIG     C7     13     -0.276    12.0110   ; qtot -0.758
    14      CG331      1      LIG     C8     14     -0.150    12.0110   ; qtot -0.908
    15      HGR52      1      LIG     H1     15      0.098     1.0080   ; qtot -0.810
    16       HGA3      1      LIG     H2     16      0.090     1.0080   ; qtot -0.720
    17       HGA3      1      LIG     H3     17      0.090     1.0080   ; qtot -0.630
    18       HGA3      1      LIG     H4     18      0.090     1.0080   ; qtot -0.540
    19       HGA3      1      LIG     H5     19      0.090     1.0080   ; qtot -0.450
    20       HGA3      1      LIG     H6     20      0.090     1.0080   ; qtot -0.360
    21       HGA3      1      LIG     H7     21      0.090     1.0080   ; qtot -0.270
    22       HGA3      1      LIG     H8     22      0.090     1.0080   ; qtot -0.180
    23       HGA3      1      LIG     H9     23      0.090     1.0080   ; qtot -0.090
    24       HGA3      1      LIG    H10     24      0.090     1.0080   ; qtot -0.000

[ bonds ]
; ai	aj	funct	b0	Kb
    1     9     1
    2    10     1
    3     8     1
    3    10     1
    3    12     1
    4     7     1
    4    11     1
    4    13     1
    5     9     1
    5    10     1
    5    14     1
    6     8     1
    6    11     1
    7     8     1
    7     9     1
   11    15     1
   12    16     1
   12    17     1
   12    18     1
   13    19     1
   13    20     1
   13    21     1
   14    22     1
   14    23     1
   14    24     1

[ pairs ]
; ai	aj	funct	c6	c12
    1     4     1 
    1     8     1 
    1    10     1 
    1    14     1 
    2     8     1 
    2     9     1 
    2    12     1 
    2    14     1 
    3     4     1 
    3     9     1 
    3    11     1 
    3    14     1 
    4     5     1 
    5     8     1 
    5    12     1 
    6     9     1 
    6    10     1 
    6    12     1 
    6    13     1 
    7    10     1 
    7    12     1 
    7    14     1 
    7    15     1 
    7    19     1 
    7    20     1 
    7    21     1 
    8    13     1 
    8    15     1 
    8    16     1 
    8    17     1 
    8    18     1 
    9    11     1 
    9    13     1 
    9    22     1 
    9    23     1 
    9    24     1 
   10    16     1 
   10    17     1 
   10    18     1 
   10    22     1 
   10    23     1 
   10    24     1 
   11    19     1 
   11    20     1 
   11    21     1 
   13    15     1 

[ angles ] 
; ai	aj	ak	funct	th0	cth	S0	Kub
    8     3    10     5
    8     3    12     5
   10     3    12     5
    7     4    11     5
    7     4    13     5
   11     4    13     5
    9     5    10     5
    9     5    14     5
   10     5    14     5
    8     6    11     5
    4     7     8     5
    4     7     9     5
    8     7     9     5
    3     8     6     5
    3     8     7     5
    6     8     7     5
    1     9     5     5
    1     9     7     5
    5     9     7     5
    2    10     3     5
    2    10     5     5
    3    10     5     5
    4    11     6     5
    4    11    15     5
    6    11    15     5
    3    12    16     5
    3    12    17     5
    3    12    18     5
   16    12    17     5
   16    12    18     5
   17    12    18     5
    4    13    19     5
    4    13    20     5
    4    13    21     5
   19    13    20     5
   19    13    21     5
   20    13    21     5
    5    14    22     5
    5    14    23     5
    5    14    24     5
   22    14    23     5
   22    14    24     5
   23    14    24     5

[ dihedrals ]
; ai	aj	ak	al	funct	phi0	cp	mult
    8     3    12    16     9
    8     3    12    17     9
    8     3    12    18     9
   10     3    12    16     9
   10     3    12    17     9
   10     3    12    18     9
    7     4    11    15     9
   13     4    11    15     9
    7     4    13    19     9
    7     4    13    20     9
    7     4    13    21     9
   11     4    13    19     9
   11     4    13    20     9
   11     4    13    21     9
    9     5    14    22     9
    9     5    14    23     9
    9     5    14    24     9
   10     5    14    22     9
   10     5    14    23     9
   10     5    14    24     9
    8     6    11    15     9
    8     7     4    11     9
    8     7     4    13     9
    9     7     4    11     9
    9     7     4    13     9
    4     7     8     6     9
    4     7     9     5     9
    6     8     3    10     9
    6     8     3    12     9
    7     8     3    10     9
    7     8     3    12     9
    3     8     6    11     9
    7     8     6    11     9
    3     8     7     4     9
    3     8     7     9     9
    6     8     7     9     9
    1     9     5    10     9
    1     9     5    14     9
    7     9     5    10     9
    7     9     5    14     9
    1     9     7     4     9
    1     9     7     8     9
    5     9     7     8     9
    2    10     3     8     9
    2    10     3    12     9
    5    10     3     8     9
    5    10     3    12     9
    2    10     5     9     9
    2    10     5    14     9
    3    10     5     9     9
    3    10     5    14     9
    6    11     4     7     9
    6    11     4    13     9
    4    11     6     8     9

[ dihedrals ]
; ai	aj	ak	al	funct	q0	cq
    9     7     5     1     2
   10     3     5     2     2
