Generated by CHARMM-GUI FF-Converter
42794
    1SAPS     N    1   3.863   3.705   6.234
    1SAPS   HN1    2   3.889   3.783   6.298
    1SAPS   HN2    3   3.926   3.701   6.151
    1SAPS   HN3    4   3.762   3.713   6.212
    1SAPS   C12    5   3.875   3.580   6.314
    1SAPS  H12A    6   3.972   3.584   6.361
    1SAPS   C13    7   3.765   3.571   6.424
    1SAPS  O13A    8   3.684   3.666   6.436
    1SAPS  O13B    9   3.742   3.458   6.474
    1SAPS   C11   10   3.860   3.451   6.226
    1SAPS  H11A   11   3.760   3.453   6.178
    1SAPS  H11B   12   3.865   3.361   6.292
    1SAPS     P   13   4.092   3.364   6.142
    1SAPS   O13   14   4.190   3.458   6.196
    1SAPS   O14   15   4.065   3.236   6.212
    1SAPS   O12   16   3.955   3.444   6.122
    1SAPS   O11   17   4.120   3.338   5.993
    1SAPS    C1   18   4.113   3.217   5.926
    1SAPS    HA   19   4.191   3.144   5.955
    1SAPS    HB   20   4.012   3.169   5.938
    1SAPS    C2   21   4.142   3.255   5.785
    1SAPS    HS   22   4.241   3.296   5.758
    1SAPS   O21   23   4.029   3.344   5.754
    1SAPS   C21   24   4.065   3.461   5.702
    1SAPS   O22   25   4.180   3.498   5.688
    1SAPS   C22   26   3.948   3.544   5.647
    1SAPS   H2R   27   3.909   3.603   5.732
    1SAPS   H2S   28   3.994   3.615   5.574
    1SAPS    C3   29   4.156   3.123   5.705
    1SAPS    HX   30   4.064   3.068   5.716
    1SAPS    HY   31   4.207   3.035   5.747
    1SAPS   O31   32   4.211   3.146   5.572
    1SAPS   C31   33   4.130   3.224   5.501
    1SAPS   O32   34   4.019   3.254   5.543
    1SAPS   C32   35   4.182   3.218   5.347
    1SAPS   H2X   36   4.194   3.112   5.316
    1SAPS   H2Y   37   4.287   3.238   5.350
    1SAPS   C23   38   3.835   3.470   5.573
    1SAPS   H3R   39   3.798   3.385   5.636
    1SAPS   H3S   40   3.875   3.426   5.479
    1SAPS   C24   41   3.715   3.560   5.542
    1SAPS   H4R   42   3.666   3.585   5.639
    1SAPS   H4S   43   3.641   3.498   5.487
    1SAPS   C25   44   3.745   3.689   5.470
    1SAPS   H5R   45   3.752   3.776   5.537
    1SAPS   C26   46   3.787   3.704   5.343
    1SAPS   H6R   47   3.799   3.805   5.304
    1SAPS   C27   48   3.816   3.602   5.236
    1SAPS   H7R   49   3.760   3.508   5.251
    1SAPS   H7S   50   3.924   3.579   5.246
    1SAPS   C28   51   3.798   3.649   5.093
    1SAPS   H8R   52   3.712   3.608   5.040
    1SAPS   C29   53   3.882   3.724   5.020
    1SAPS   H9R   54   3.838   3.762   4.926
    1SAPS  C210   55   4.016   3.784   5.062
    1SAPS  H10R   56   4.080   3.730   5.131
    1SAPS  H10S   57   3.961   3.835   5.140
    1SAPS  C211   58   4.111   3.872   4.975
    1SAPS  H11R   59   4.109   3.983   4.981
    1SAPS  C212   60   4.169   3.835   4.863
    1SAPS  H12R   61   4.172   3.916   4.787
    1SAPS  C213   62   4.154   3.697   4.809
    1SAPS  H13R   63   4.138   3.629   4.894
    1SAPS  H13S   64   4.257   3.688   4.776
    1SAPS  C214   65   4.058   3.650   4.703
    1SAPS  H14R   66   3.955   3.653   4.733
    1SAPS  C215   67   4.069   3.598   4.581
    1SAPS  H15R   68   3.994   3.603   4.502
    1SAPS  C216   69   4.192   3.572   4.522
    1SAPS  H16R   70   4.202   3.470   4.477
    1SAPS  H16S   71   4.266   3.587   4.603
    1SAPS  C217   72   4.186   3.687   4.424
    1SAPS  H17R   73   4.272   3.616   4.405
    1SAPS  H17S   74   4.220   3.788   4.455
    1SAPS  C218   75   4.133   3.712   4.283
    1SAPS  H18R   76   4.182   3.777   4.204
    1SAPS  H18S   77   4.053   3.783   4.307
    1SAPS  C219   78   4.133   3.581   4.214
    1SAPS  H19R   79   4.064   3.522   4.279
    1SAPS  H19S   80   4.224   3.520   4.198
    1SAPS  C220   81   4.096   3.606   4.073
    1SAPS  H20R   82   4.059   3.505   4.042
    1SAPS  H20S   83   4.162   3.645   3.994
    1SAPS  H20T   84   4.022   3.689   4.087
    1SAPS   C33   85   4.088   3.290   5.239
    1SAPS   H3X   86   4.055   3.377   5.295
    1SAPS   H3Y   87   3.992   3.247   5.207
    1SAPS   C34   88   4.133   3.330   5.100
    1SAPS   H4X   89   4.227   3.384   5.106
    1SAPS   H4Y   90   4.047   3.373   5.040
    1SAPS   C35   91   4.164   3.210   5.026
    1SAPS   H5X   92   4.060   3.167   5.031
    1SAPS   H5Y   93   4.240   3.158   5.089
    1SAPS   C36   94   4.233   3.206   4.890
    1SAPS   H6X   95   4.239   3.112   4.834
    1SAPS   H6Y   96   4.339   3.215   4.919
    1SAPS   C37   97   4.181   3.308   4.795
    1SAPS   H7X   98   4.267   3.314   4.725
    1SAPS   H7Y   99   4.172   3.401   4.855
    1SAPS   C38  100   4.052   3.273   4.716
    1SAPS   H8X  101   4.055   3.167   4.684
    1SAPS   H8Y  102   4.057   3.331   4.621
    1SAPS   C39  103   3.918   3.309   4.787
    1SAPS   H9X  104   3.924   3.415   4.816
    1SAPS   H9Y  105   3.903   3.251   4.881
    1SAPS  C310  106   3.791   3.296   4.701
    1SAPS  H10X  107   3.773   3.187   4.684
    1SAPS  H10Y  108   3.811   3.344   4.604
    1SAPS  C311  109   3.666   3.362   4.765
    1SAPS  H11X  110   3.686   3.469   4.785
    1SAPS  H11Y  111   3.641   3.316   4.864
    1SAPS  C312  112   3.538   3.349   4.684
    1SAPS  H12X  113   3.457   3.392   4.749
    1SAPS  H12Y  114   3.514   3.241   4.669
    1SAPS  C313  115   3.537   3.423   4.550
    1SAPS  H13X  116   3.611   3.505   4.552
    1SAPS  H13Y  117   3.436   3.466   4.527
    1SAPS  C314  118   3.576   3.337   4.432
    1SAPS  H14X  119   3.523   3.244   4.425
    1SAPS  H14Y  120   3.684   3.314   4.423
    1SAPS  C315  121   3.530   3.404   4.314
    1SAPS  H15X  122   3.582   3.507   4.322
    1SAPS  H15Y  123   3.423   3.436   4.306
    1SAPS  C316  124   3.563   3.307   4.194
    1SAPS  H16X  125   3.505   3.217   4.192
    1SAPS  H16Y  126   3.675   3.299   4.174
    1SAPS  C317  127   3.506   3.330   4.061
    1SAPS  H17X  128   3.401   3.363   4.043
    1SAPS  H17Y  129   3.560   3.297   3.968
    1SAPS  C318  130   3.560   3.440   4.077
    1SAPS  H18X  131   3.641   3.470   4.096
    1SAPS  H18Y  132   3.541   3.520   4.151
    1SAPS  H18Z  133   3.563   3.479   3.979
    2SAPS     N  134   4.672   5.275   6.254
    2SAPS   HN1  135   4.675   5.323   6.347
    2SAPS   HN2  136   4.690   5.173   6.263
    2SAPS   HN3  137   4.734   5.324   6.187
    2SAPS   C12  138   4.527   5.288   6.213
    2SAPS  H12A  139   4.517   5.332   6.115
    2SAPS   C13  140   4.450   5.160   6.211
    2SAPS  O13A  141   4.516   5.055   6.237
    2SAPS  O13B  142   4.326   5.168   6.197
    2SAPS   C11  143   4.453   5.371   6.316
    2SAPS  H11A  144   4.443   5.320   6.413
    2SAPS  H11B  145   4.350   5.397   6.280
    2SAPS     P  146   4.495   5.611   6.263
    2SAPS   O13  147   4.361   5.661   6.302
    2SAPS   O14  148   4.614   5.685   6.307
    2SAPS   O12  149   4.532   5.482   6.336
    2SAPS   O11  150   4.509   5.611   6.107
    2SAPS    C1  151   4.442   5.704   6.019
    2SAPS    HA  152   4.421   5.807   6.056
    2SAPS    HB  153   4.509   5.720   5.931
    2SAPS    C2  154   4.309   5.647   5.966
    2SAPS    HS  155   4.226   5.670   6.038
    2SAPS   O21  156   4.329   5.505   5.947
    2SAPS   C21  157   4.226   5.424   5.941
    2SAPS   O22  158   4.114   5.451   5.978
    2SAPS   C22  159   4.269   5.291   5.874
    2SAPS   H2R  160   4.328   5.234   5.948
    2SAPS   H2S  161   4.182   5.228   5.852
    2SAPS    C3  162   4.282   5.718   5.830
    2SAPS    HX  163   4.264   5.827   5.846
    2SAPS    HY  164   4.185   5.678   5.802
    2SAPS   O31  165   4.393   5.693   5.738
    2SAPS   C31  166   4.387   5.685   5.606
    2SAPS   O32  167   4.303   5.715   5.530
    2SAPS   C32  168   4.505   5.656   5.530
    2SAPS   H2X  169   4.554   5.564   5.565
    2SAPS   H2Y  170   4.558   5.753   5.543
    2SAPS   C23  171   4.359   5.309   5.751
    2SAPS   H3R  172   4.446   5.371   5.783
    2SAPS   H3S  173   4.303   5.363   5.671
    2SAPS   C24  174   4.416   5.175   5.701
    2SAPS   H4R  175   4.332   5.106   5.676
    2SAPS   H4S  176   4.475   5.127   5.782
    2SAPS   C25  177   4.500   5.209   5.581
    2SAPS   H5R  178   4.608   5.214   5.599
    2SAPS   C26  179   4.448   5.235   5.460
    2SAPS   H6R  180   4.514   5.269   5.378
    2SAPS   C27  181   4.301   5.233   5.429
    2SAPS   H7R  182   4.258   5.335   5.429
    2SAPS   H7S  183   4.247   5.184   5.512
    2SAPS   C28  184   4.273   5.154   5.304
    2SAPS   H8R  185   4.244   5.050   5.321
    2SAPS   C29  186   4.269   5.198   5.178
    2SAPS   H9R  187   4.256   5.128   5.094
    2SAPS  C210  188   4.293   5.338   5.135
    2SAPS  H10R  189   4.359   5.337   5.048
    2SAPS  H10S  190   4.327   5.407   5.214
    2SAPS  C211  191   4.163   5.386   5.093
    2SAPS  H11R  192   4.077   5.333   5.135
    2SAPS  C212  193   4.142   5.499   5.029
    2SAPS  H12R  194   4.039   5.523   5.006
    2SAPS  C213  195   4.245   5.596   4.989
    2SAPS  H13R  196   4.297   5.640   5.076
    2SAPS  H13S  197   4.193   5.675   4.943
    2SAPS  C214  198   4.328   5.571   4.873
    2SAPS  H14R  199   4.424   5.538   4.902
    2SAPS  C215  200   4.301   5.598   4.746
    2SAPS  H15R  201   4.359   5.551   4.668
    2SAPS  C216  202   4.175   5.660   4.702
    2SAPS  H16R  203   4.176   5.741   4.628
    2SAPS  H16S  204   4.108   5.700   4.784
    2SAPS  C217  205   4.125   5.533   4.644
    2SAPS  H17R  206   4.033   5.564   4.706
    2SAPS  H17S  207   4.129   5.433   4.681
    2SAPS  C218  208   4.149   5.482   4.491
    2SAPS  H18R  209   4.073   5.417   4.434
    2SAPS  H18S  210   4.218   5.399   4.506
    2SAPS  C219  211   4.159   5.587   4.380
    2SAPS  H19R  212   4.193   5.680   4.427
    2SAPS  H19S  213   4.069   5.610   4.318
    2SAPS  C220  214   4.237   5.542   4.262
    2SAPS  H20R  215   4.334   5.508   4.299
    2SAPS  H20S  216   4.248   5.632   4.200
    2SAPS  H20T  217   4.179   5.463   4.207
    2SAPS   C33  218   4.474   5.646   5.377
    2SAPS   H3X  219   4.412   5.731   5.338
    2SAPS   H3Y  220   4.418   5.554   5.351
    2SAPS   C34  221   4.606   5.654   5.305
    2SAPS   H4X  222   4.685   5.593   5.355
    2SAPS   H4Y  223   4.637   5.760   5.303
    2SAPS   C35  224   4.595   5.606   5.165
    2SAPS   H5X  225   4.535   5.675   5.100
    2SAPS   H5Y  226   4.557   5.502   5.158
    2SAPS   C36  227   4.727   5.604   5.105
    2SAPS   H6X  228   4.805   5.544   5.158
    2SAPS   H6Y  229   4.767   5.708   5.109
    2SAPS   C37  230   4.688   5.551   4.965
    2SAPS   H7X  231   4.786   5.516   4.973
    2SAPS   H7Y  232   4.675   5.623   4.882
    2SAPS   C38  233   4.659   5.405   4.928
    2SAPS   H8X  234   4.551   5.404   4.946
    2SAPS   H8Y  235   4.715   5.339   4.998
    2SAPS   C39  236   4.697   5.352   4.787
    2SAPS   H9X  237   4.806   5.357   4.764
    2SAPS   H9Y  238   4.643   5.405   4.705
    2SAPS  C310  239   4.665   5.204   4.777
    2SAPS  H10X  240   4.726   5.145   4.850
    2SAPS  H10Y  241   4.697   5.172   4.675
    2SAPS  C311  242   4.516   5.181   4.800
    2SAPS  H11X  243   4.461   5.274   4.819
    2SAPS  H11Y  244   4.501   5.110   4.885
    2SAPS  C312  245   4.447   5.124   4.679
    2SAPS  H12X  246   4.349   5.081   4.708
    2SAPS  H12Y  247   4.522   5.047   4.669
    2SAPS  C313  248   4.442   5.222   4.562
    2SAPS  H13X  249   4.543   5.246   4.525
    2SAPS  H13Y  250   4.388   5.309   4.602
    2SAPS  C314  251   4.361   5.188   4.441
    2SAPS  H14X  252   4.328   5.272   4.377
    2SAPS  H14Y  253   4.264   5.144   4.477
    2SAPS  C315  254   4.441   5.101   4.349
    2SAPS  H15X  255   4.382   5.067   4.265
    2SAPS  H15Y  256   4.458   5.032   4.432
    2SAPS  C316  257   4.573   5.067   4.297
    2SAPS  H16X  258   4.579   4.956   4.268
    2SAPS  H16Y  259   4.650   5.101   4.363
    2SAPS  C317  260   4.570   5.125   4.167
    2SAPS  H17X  261   4.487   5.071   4.116
    2SAPS  H17Y  262   4.649   5.074   4.120
    2SAPS  C318  263   4.564   5.279   4.170
    2SAPS  H18X  264   4.471   5.312   4.222
    2SAPS  H18Y  265   4.558   5.323   4.067
    2SAPS  H18Z  266   4.600   5.336   4.251
    3SAPS     N  267   4.937   5.069   6.258
    3SAPS   HN1  268   4.949   5.088   6.157
    3SAPS   HN2  269   4.857   5.002   6.269
    3SAPS   HN3  270   4.919   5.157   6.307
    3SAPS   C12  271   5.065   5.007   6.317
    3SAPS  H12A  272   5.078   5.034   6.419
    3SAPS   C13  273   5.073   4.855   6.313
    3SAPS  O13A  274   4.998   4.807   6.227
    3SAPS  O13B  275   5.147   4.786   6.387
    3SAPS   C11  276   5.179   5.057   6.228
    3SAPS  H11A  277   5.168   5.164   6.218
    3SAPS  H11B  278   5.169   5.016   6.124
    3SAPS     P  279   5.436   5.074   6.205
    3SAPS   O13  280   5.389   5.154   6.089
    3SAPS   O14  281   5.528   5.114   6.310
    3SAPS   O12  282   5.307   5.029   6.283
    3SAPS   O11  283   5.505   4.948   6.160
    3SAPS    C1  284   5.414   4.852   6.135
    3SAPS    HA  285   5.436   4.761   6.198
    3SAPS    HB  286   5.302   4.867   6.132
    3SAPS    C2  287   5.441   4.834   5.988
    3SAPS    HS  288   5.549   4.805   6.000
    3SAPS   O21  289   5.428   4.935   5.896
    3SAPS   C21  290   5.441   4.917   5.770
    3SAPS   O22  291   5.474   4.824   5.702
    3SAPS   C22  292   5.412   5.041   5.705
    3SAPS   H2R  293   5.333   5.034   5.635
    3SAPS   H2S  294   5.422   5.122   5.780
    3SAPS    C3  295   5.342   4.739   5.949
    3SAPS    HX  296   5.345   4.700   6.044
    3SAPS    HY  297   5.368   4.653   5.910
    3SAPS   O31  298   5.213   4.767   5.916
    3SAPS   C31  299   5.172   4.679   5.831
    3SAPS   O32  300   5.211   4.565   5.807
    3SAPS   C32  301   5.036   4.736   5.810
    3SAPS   H2X  302   5.011   4.813   5.878
    3SAPS   H2Y  303   4.947   4.695   5.864
    3SAPS   C23  304   5.504   5.058   5.592
    3SAPS   H3R  305   5.574   5.069   5.677
    3SAPS   H3S  306   5.535   5.158   5.561
    3SAPS   C24  307   5.516   4.940   5.484
    3SAPS   H4R  308   5.583   4.848   5.484
    3SAPS   H4S  309   5.597   4.976   5.438
    3SAPS   C25  310   5.455   4.949   5.363
    3SAPS   H5R  311   5.437   5.051   5.333
    3SAPS   C26  312   5.438   4.839   5.300
    3SAPS   H6R  313   5.350   4.853   5.241
    3SAPS   C27  314   5.475   4.698   5.349
    3SAPS   H7R  315   5.541   4.674   5.436
    3SAPS   H7S  316   5.503   4.634   5.276
    3SAPS   C28  317   5.353   4.643   5.393
    3SAPS   H8R  318   5.351   4.671   5.500
    3SAPS   C29  319   5.251   4.626   5.309
    3SAPS   H9R  320   5.222   4.727   5.305
    3SAPS  C210  321   5.250   4.657   5.160
    3SAPS  H10R  322   5.260   4.756   5.117
    3SAPS  H10S  323   5.159   4.637   5.111
    3SAPS  C211  324   5.316   4.561   5.091
    3SAPS  H11R  325   5.322   4.466   5.144
    3SAPS  C212  326   5.297   4.535   4.968
    3SAPS  H12R  327   5.348   4.438   4.951
    3SAPS  C213  328   5.215   4.582   4.852
    3SAPS  H13R  329   5.113   4.577   4.874
    3SAPS  H13S  330   5.230   4.515   4.767
    3SAPS  C214  331   5.243   4.715   4.804
    3SAPS  H14R  332   5.309   4.759   4.882
    3SAPS  C215  333   5.258   4.737   4.670
    3SAPS  H15R  334   5.354   4.796   4.663
    3SAPS  C216  335   5.249   4.618   4.558
    3SAPS  H16R  336   5.278   4.661   4.462
    3SAPS  H16S  337   5.187   4.529   4.581
    3SAPS  C217  338   5.345   4.487   4.521
    3SAPS  H17R  339   5.343   4.397   4.461
    3SAPS  H17S  340   5.347   4.431   4.618
    3SAPS  C218  341   5.483   4.528   4.456
    3SAPS  H18R  342   5.450   4.648   4.487
    3SAPS  H18S  343   5.478   4.616   4.391
    3SAPS  C219  344   5.646   4.400   4.501
    3SAPS  H19R  345   5.655   4.488   4.460
    3SAPS  H19S  346   5.636   4.311   4.450
    3SAPS  C220  347   5.841   4.329   4.553
    3SAPS  H20R  348   5.791   4.262   4.566
    3SAPS  H20S  349   5.893   4.395   4.642
    3SAPS  H20T  350   5.950   4.344   4.586
    3SAPS   C33  351   5.040   4.766   5.661
    3SAPS   H3X  352   4.954   4.785   5.608
    3SAPS   H3Y  353   5.000   4.687   5.703
    3SAPS   C34  354   5.148   4.847   5.635
    3SAPS   H4X  355   5.233   4.776   5.631
    3SAPS   H4Y  356   5.127   4.901   5.732
    3SAPS   C35  357   5.086   4.931   5.524
    3SAPS   H5X  358   4.988   4.957   5.566
    3SAPS   H5Y  359   5.171   4.981   5.582
    3SAPS   C36  360   5.109   5.057   5.445
    3SAPS   H6X  361   5.206   5.014   5.411
    3SAPS   H6Y  362   5.089   5.142   5.521
    3SAPS   C37  363   5.027   5.117   5.330
    3SAPS   H7X  364   4.943   5.092   5.395
    3SAPS   H7Y  365   4.981   5.094   5.234
    3SAPS   C38  366   5.143   5.201   5.289
    3SAPS   H8X  367   5.244   5.151   5.290
    3SAPS   H8Y  368   5.150   5.278   5.366
    3SAPS   C39  369   5.106   5.262   5.157
    3SAPS   H9X  370   5.160   5.358   5.160
    3SAPS   H9Y  371   4.996   5.284   5.159
    3SAPS  C310  372   5.127   5.178   5.032
    3SAPS  H10X  373   5.119   5.248   4.946
    3SAPS  H10Y  374   5.044   5.104   5.022
    3SAPS  C311  375   5.258   5.102   5.026
    3SAPS  H11X  376   5.247   5.037   4.935
    3SAPS  H11Y  377   5.270   5.032   5.112
    3SAPS  C312  378   5.374   5.202   5.028
    3SAPS  H12X  379   5.376   5.264   5.120
    3SAPS  H12Y  380   5.377   5.264   4.935
    3SAPS  C313  381   5.501   5.133   5.022
    3SAPS  H13X  382   5.531   5.079   5.115
    3SAPS  H13Y  383   5.586   5.204   5.000
    3SAPS  C314  384   5.470   5.033   4.911
    3SAPS  H14X  385   5.430   4.931   4.914
    3SAPS  H14Y  386   5.533   4.961   4.952
    3SAPS  C315  387   5.476   5.078   4.764
    3SAPS  H15X  388   5.379   5.126   4.753
    3SAPS  H15Y  389   5.491   4.989   4.698
    3SAPS  C316  390   5.553   5.197   4.715
    3SAPS  H16X  391   5.655   5.194   4.718
    3SAPS  H16Y  392   5.592   5.265   4.791
    3SAPS  C317  393   5.568   5.205   4.559
    3SAPS  H17X  394   5.644   5.287   4.560
    3SAPS  H17Y  395   5.462   5.229   4.548
    3SAPS  C318  396   5.596   5.107   4.437
    3SAPS  H18X  397   5.694   5.057   4.426
    3SAPS  H18Y  398   5.590   5.162   4.341
    3SAPS  H18Z  399   5.538   5.016   4.447
    4SAPS     N  400   2.749   2.115   6.279
    4SAPS   HN1  401   2.784   2.148   6.372
    4SAPS   HN2  402   2.822   2.118   6.206
    4SAPS   HN3  403   2.660   2.163   6.253
    4SAPS   C12  404   2.710   1.974   6.302
    4SAPS  H12A  405   2.798   1.911   6.300
    4SAPS   C13  406   2.640   1.956   6.438
    4SAPS  O13A  407   2.596   2.058   6.498
    4SAPS  O13B  408   2.648   1.842   6.490
    4SAPS   C11  409   2.614   1.937   6.188
    4SAPS  H11A  410   2.663   1.964   6.092
    4SAPS  H11B  411   2.518   1.994   6.197
    4SAPS     P  412   2.471   1.728   6.116
    4SAPS   O13  413   2.497   1.582   6.120
    4SAPS   O14  414   2.344   1.787   6.166
    4SAPS   O12  415   2.592   1.798   6.190
    4SAPS   O11  416   2.502   1.784   5.973
    4SAPS    C1  417   2.452   1.910   5.926
    4SAPS    HA  418   2.407   1.977   6.001
    4SAPS    HB  419   2.523   1.955   5.854
    4SAPS    C2  420   2.338   1.886   5.844
    4SAPS    HS  421   2.272   1.827   5.923
    4SAPS   O21  422   2.412   1.819   5.729
    4SAPS   C21  423   2.313   1.783   5.667
    4SAPS   O22  424   2.214   1.764   5.743
    4SAPS   C22  425   2.340   1.722   5.489
    4SAPS   H2R  426   2.349   1.789   5.415
    4SAPS   H2S  427   2.427   1.650   5.514
    4SAPS    C3  428   2.252   2.007   5.787
    4SAPS    HX  429   2.206   2.053   5.876
    4SAPS    HY  430   2.160   1.994   5.729
    4SAPS   O31  431   2.335   2.084   5.699
    4SAPS   C31  432   2.324   2.074   5.565
    4SAPS   O32  433   2.249   2.004   5.500
    4SAPS   C32  434   2.429   2.167   5.506
    4SAPS   H2X  435   2.438   2.253   5.577
    4SAPS   H2Y  436   2.396   2.212   5.410
    4SAPS   C23  437   2.203   1.650   5.376
    4SAPS   H3R  438   2.105   1.694   5.388
    4SAPS   H3S  439   2.134   1.563   5.409
    4SAPS   C24  440   2.213   1.547   5.260
    4SAPS   H4R  441   2.133   1.466   5.247
    4SAPS   H4S  442   2.308   1.499   5.245
    4SAPS   C25  443   2.220   1.634   5.154
    4SAPS   H5R  444   2.129   1.628   5.096
    4SAPS   C26  445   2.330   1.705   5.131
    4SAPS   H6R  446   2.332   1.748   5.034
    4SAPS   C27  447   2.464   1.710   5.204
    4SAPS   H7R  448   2.476   1.757   5.298
    4SAPS   H7S  449   2.525   1.781   5.144
    4SAPS   C28  450   2.540   1.590   5.230
    4SAPS   H8R  451   2.574   1.538   5.322
    4SAPS   C29  452   2.592   1.564   5.119
    4SAPS   H9R  453   2.677   1.513   5.152
    4SAPS  C210  454   2.594   1.621   4.976
    4SAPS  H10R  455   2.690   1.672   4.970
    4SAPS  H10S  456   2.504   1.672   4.953
    4SAPS  C211  457   2.567   1.563   4.842
    4SAPS  H11R  458   2.494   1.484   4.871
    4SAPS  C212  459   2.638   1.544   4.726
    4SAPS  H12R  460   2.623   1.458   4.665
    4SAPS  C213  461   2.767   1.562   4.665
    4SAPS  H13R  462   2.865   1.500   4.677
    4SAPS  H13S  463   2.781   1.651   4.709
    4SAPS  C214  464   2.732   1.646   4.559
    4SAPS  H14R  465   2.721   1.755   4.581
    4SAPS  C215  466   2.765   1.597   4.447
    4SAPS  H15R  467   2.748   1.671   4.372
    4SAPS  C216  468   2.837   1.463   4.437
    4SAPS  H16R  469   2.787   1.371   4.437
    4SAPS  H16S  470   2.926   1.451   4.503
    4SAPS  C217  471   2.899   1.419   4.317
    4SAPS  H17R  472   2.957   1.332   4.318
    4SAPS  H17S  473   3.013   1.439   4.355
    4SAPS  C218  474   2.824   1.472   4.176
    4SAPS  H18R  475   2.863   1.487   4.071
    4SAPS  H18S  476   2.754   1.558   4.177
    4SAPS  C219  477   2.752   1.360   4.175
    4SAPS  H19R  478   2.721   1.352   4.271
    4SAPS  H19S  479   2.819   1.275   4.159
    4SAPS  C220  480   2.624   1.384   4.126
    4SAPS  H20R  481   2.555   1.464   4.155
    4SAPS  H20S  482   2.568   1.297   4.149
    4SAPS  H20T  483   2.637   1.385   4.020
    4SAPS   C33  484   2.563   2.104   5.495
    4SAPS   H3X  485   2.610   2.114   5.595
    4SAPS   H3Y  486   2.618   2.164   5.420
    4SAPS   C34  487   2.559   1.957   5.454
    4SAPS   H4X  488   2.518   1.949   5.350
    4SAPS   H4Y  489   2.486   1.908   5.520
    4SAPS   C35  490   2.694   1.888   5.477
    4SAPS   H5X  491   2.688   1.779   5.462
    4SAPS   H5Y  492   2.722   1.902   5.583
    4SAPS   C36  493   2.805   1.939   5.385
    4SAPS   H6X  494   2.903   1.896   5.418
    4SAPS   H6Y  495   2.815   2.050   5.391
    4SAPS   C37  496   2.781   1.889   5.242
    4SAPS   H7X  497   2.673   1.903   5.222
    4SAPS   H7Y  498   2.807   1.781   5.239
    4SAPS   C38  499   2.855   1.963   5.132
    4SAPS   H8X  500   2.965   1.942   5.140
    4SAPS   H8Y  501   2.828   2.069   5.148
    4SAPS   C39  502   2.825   1.933   4.989
    4SAPS   H9X  503   2.819   1.826   5.012
    4SAPS   H9Y  504   2.906   1.963   4.919
    4SAPS  C310  505   2.686   1.969   4.942
    4SAPS  H10X  506   2.668   2.078   4.954
    4SAPS  H10Y  507   2.623   1.915   5.015
    4SAPS  C311  508   2.652   1.911   4.804
    4SAPS  H11X  509   2.669   1.802   4.814
    4SAPS  H11Y  510   2.721   1.944   4.724
    4SAPS  C312  511   2.503   1.923   4.768
    4SAPS  H12X  512   2.444   1.905   4.861
    4SAPS  H12Y  513   2.470   1.845   4.695
    4SAPS  C313  514   2.463   2.060   4.713
    4SAPS  H13X  515   2.485   2.136   4.791
    4SAPS  H13Y  516   2.353   2.055   4.696
    4SAPS  C314  517   2.539   2.112   4.590
    4SAPS  H14X  518   2.646   2.089   4.579
    4SAPS  H14Y  519   2.515   2.221   4.584
    4SAPS  C315  520   2.477   2.061   4.467
    4SAPS  H15X  521   2.379   2.114   4.491
    4SAPS  H15Y  522   2.475   1.949   4.463
    4SAPS  C316  523   2.502   2.119   4.331
    4SAPS  H16X  524   2.604   2.161   4.342
    4SAPS  H16Y  525   2.426   2.198   4.309
    4SAPS  C317  526   2.485   2.014   4.220
    4SAPS  H17X  527   2.380   1.996   4.190
    4SAPS  H17Y  528   2.538   1.920   4.247
    4SAPS  C318  529   2.550   2.067   4.099
    4SAPS  H18X  530   2.491   2.148   4.050
    4SAPS  H18Y  531   2.582   1.992   4.024
    4SAPS  H18Z  532   2.637   2.110   4.147
    5SAPS     N  533   5.997   4.801   6.382
    5SAPS   HN1  534   5.901   4.798   6.344
    5SAPS   HN2  535   5.997   4.846   6.476
    5SAPS   HN3  536   6.060   4.847   6.312
    5SAPS   C12  537   6.045   4.661   6.398
    5SAPS  H12A  538   6.150   4.667   6.411
    5SAPS   C13  539   5.986   4.583   6.517
    5SAPS  O13A  540   5.896   4.639   6.585
    5SAPS  O13B  541   6.017   4.462   6.528
    5SAPS   C11  542   6.022   4.584   6.267
    5SAPS  H11A  543   5.912   4.571   6.255
    5SAPS  H11B  544   6.072   4.485   6.272
    5SAPS     P  545   6.097   4.588   6.021
    5SAPS   O13  546   6.235   4.553   5.989
    5SAPS   O14  547   5.986   4.490   6.004
    5SAPS   O12  548   6.081   4.658   6.162
    5SAPS   O11  549   6.065   4.709   5.941
    5SAPS    C1  550   5.978   4.801   5.996
    5SAPS    HA  551   5.873   4.764   6.020
    5SAPS    HB  552   6.020   4.871   6.071
    5SAPS    C2  553   5.964   4.886   5.887
    5SAPS    HS  554   5.857   4.915   5.919
    5SAPS   O21  555   5.967   4.810   5.762
    5SAPS   C21  556   5.860   4.730   5.744
    5SAPS   O22  557   5.767   4.717   5.820
    5SAPS   C22  558   5.858   4.705   5.593
    5SAPS   H2R  559   5.762   4.713   5.538
    5SAPS   H2S  560   5.928   4.773   5.542
    5SAPS    C3  561   6.075   5.008   5.882
    5SAPS    HX  562   6.079   5.065   5.977
    5SAPS    HY  563   6.064   5.100   5.819
    5SAPS   O31  564   6.195   4.968   5.825
    5SAPS   C31  565   6.278   4.924   5.911
    5SAPS   O32  566   6.274   4.941   6.032
    5SAPS   C32  567   6.379   4.843   5.833
    5SAPS   H2X  568   6.413   4.767   5.905
    5SAPS   H2Y  569   6.463   4.904   5.805
    5SAPS   C23  570   5.925   4.575   5.600
    5SAPS   H3R  571   5.864   4.510   5.667
    5SAPS   H3S  572   6.027   4.597   5.641
    5SAPS   C24  573   5.941   4.512   5.469
    5SAPS   H4R  574   6.000   4.424   5.484
    5SAPS   H4S  575   5.998   4.582   5.402
    5SAPS   C25  576   5.807   4.464   5.433
    5SAPS   H5R  577   5.736   4.416   5.498
    5SAPS   C26  578   5.767   4.495   5.320
    5SAPS   H6R  579   5.660   4.477   5.302
    5SAPS   C27  580   5.857   4.574   5.239
    5SAPS   H7R  581   5.796   4.548   5.175
    5SAPS   H7S  582   5.941   4.543   5.174
    5SAPS   C28  583   5.815   4.706   5.239
    5SAPS   H8R  584   5.822   4.762   5.332
    5SAPS   C29  585   5.811   4.769   5.131
    5SAPS   H9R  586   5.766   4.855   5.160
    5SAPS  C210  587   5.838   4.755   4.986
    5SAPS  H10R  588   5.918   4.691   4.955
    5SAPS  H10S  589   5.887   4.841   4.931
    5SAPS  C211  590   5.707   4.760   4.927
    5SAPS  H11R  591   5.606   4.775   4.978
    5SAPS  C212  592   5.717   4.717   4.811
    5SAPS  H12R  593   5.624   4.754   4.769
    5SAPS  C213  594   5.831   4.655   4.729
    5SAPS  H13R  595   5.912   4.638   4.777
    5SAPS  H13S  596   5.824   4.749   4.660
    5SAPS  C214  597   5.732   4.527   4.722
    5SAPS  H14R  598   5.714   4.546   4.626
    5SAPS  C215  599   5.706   4.374   4.740
    5SAPS  H15R  600   5.613   4.316   4.690
    5SAPS  C216  601   5.775   4.300   4.837
    5SAPS  H16R  602   5.694   4.242   4.882
    5SAPS  H16S  603   5.838   4.378   4.880
    5SAPS  C217  604   5.889   4.210   4.796
    5SAPS  H17R  605   5.944   4.187   4.888
    5SAPS  H17S  606   5.979   4.265   4.757
    5SAPS  C218  607   5.840   4.103   4.694
    5SAPS  H18R  608   5.850   4.114   4.582
    5SAPS  H18S  609   5.735   4.089   4.679
    5SAPS  C219  610   5.942   4.021   4.678
    5SAPS  H19R  611   5.934   3.948   4.758
    5SAPS  H19S  612   6.028   4.089   4.699
    5SAPS  C220  613   5.948   3.965   4.536
    5SAPS  H20R  614   6.010   3.888   4.557
    5SAPS  H20S  615   5.986   4.026   4.453
    5SAPS  H20T  616   5.846   3.949   4.505
    5SAPS   C33  617   6.324   4.779   5.705
    5SAPS   H3X  618   6.221   4.747   5.727
    5SAPS   H3Y  619   6.389   4.697   5.672
    5SAPS   C34  620   6.315   4.860   5.581
    5SAPS   H4X  621   6.421   4.864   5.548
    5SAPS   H4Y  622   6.263   4.956   5.594
    5SAPS   C35  623   6.245   4.799   5.460
    5SAPS   H5X  624   6.147   4.772   5.499
    5SAPS   H5Y  625   6.314   4.718   5.429
    5SAPS   C36  626   6.197   4.886   5.344
    5SAPS   H6X  627   6.288   4.909   5.296
    5SAPS   H6Y  628   6.148   4.983   5.367
    5SAPS   C37  629   6.159   4.816   5.218
    5SAPS   H7X  630   6.121   4.892   5.146
    5SAPS   H7Y  631   6.079   4.755   5.260
    5SAPS   C38  632   6.278   4.740   5.154
    5SAPS   H8X  633   6.339   4.682   5.226
    5SAPS   H8Y  634   6.352   4.805   5.102
    5SAPS   C39  635   6.218   4.649   5.050
    5SAPS   H9X  636   6.131   4.704   5.007
    5SAPS   H9Y  637   6.188   4.554   5.097
    5SAPS  C310  638   6.310   4.618   4.939
    5SAPS  H10X  639   6.386   4.540   4.965
    5SAPS  H10Y  640   6.366   4.713   4.925
    5SAPS  C311  641   6.232   4.562   4.817
    5SAPS  H11X  642   6.172   4.474   4.833
    5SAPS  H11Y  643   6.312   4.516   4.756
    5SAPS  C312  644   6.138   4.654   4.736
    5SAPS  H12X  645   6.183   4.716   4.672
    5SAPS  H12Y  646   6.081   4.736   4.781
    5SAPS  C313  647   6.118   4.616   4.590
    5SAPS  H13X  648   6.054   4.538   4.629
    5SAPS  H13Y  649   6.201   4.566   4.536
    5SAPS  C314  650   6.070   4.734   4.497
    5SAPS  H14X  651   6.150   4.796   4.460
    5SAPS  H14Y  652   5.993   4.797   4.550
    5SAPS  C315  653   6.047   4.700   4.349
    5SAPS  H15X  654   5.977   4.750   4.280
    5SAPS  H15Y  655   5.944   4.709   4.400
    5SAPS  C316  656   6.119   4.554   4.295
    5SAPS  H16X  657   6.148   4.480   4.373
    5SAPS  H16Y  658   6.179   4.579   4.210
    5SAPS  C317  659   6.041   4.445   4.210
    5SAPS  H17X  660   5.981   4.353   4.250
    5SAPS  H17Y  661   6.050   4.330   4.213
    5SAPS  C318  662   5.947   4.550   4.121
    5SAPS  H18X  663   5.861   4.619   4.144
    5SAPS  H18Y  664   5.860   4.528   4.067
    5SAPS  H18Z  665   6.005   4.629   4.096
    6SAPS     N  666   1.833   5.242   6.349
    6SAPS   HN1  667   1.812   5.270   6.446
    6SAPS   HN2  668   1.814   5.140   6.338
    6SAPS   HN3  669   1.928   5.269   6.317
    6SAPS   C12  670   1.731   5.316   6.268
    6SAPS  H12A  671   1.738   5.284   6.165
    6SAPS   C13  672   1.587   5.285   6.316
    6SAPS  O13A  673   1.572   5.192   6.400
    6SAPS  O13B  674   1.491   5.342   6.260
    6SAPS   C11  675   1.761   5.469   6.274
    6SAPS  H11A  676   1.870   5.489   6.269
    6SAPS  H11B  677   1.726   5.507   6.373
    6SAPS     P  678   1.655   5.688   6.185
    6SAPS   O13  679   1.571   5.702   6.306
    6SAPS   O14  680   1.777   5.770   6.187
    6SAPS   O12  681   1.695   5.535   6.164
    6SAPS   O11  682   1.566   5.731   6.060
    6SAPS    C1  683   1.438   5.673   6.038
    6SAPS    HA  684   1.419   5.581   6.099
    6SAPS    HB  685   1.360   5.747   6.064
    6SAPS    C2  686   1.418   5.640   5.888
    6SAPS    HS  687   1.335   5.567   5.878
    6SAPS   O21  688   1.534   5.592   5.821
    6SAPS   C21  689   1.573   5.471   5.852
    6SAPS   O22  690   1.510   5.386   5.911
    6SAPS   C22  691   1.711   5.445   5.796
    6SAPS   H2R  692   1.742   5.347   5.834
    6SAPS   H2S  693   1.705   5.444   5.685
    6SAPS    C3  694   1.379   5.772   5.817
    6SAPS    HX  695   1.465   5.841   5.830
    6SAPS    HY  696   1.289   5.815   5.865
    6SAPS   O31  697   1.364   5.757   5.677
    6SAPS   C31  698   1.280   5.665   5.646
    6SAPS   O32  699   1.198   5.611   5.718
    6SAPS   C32  700   1.284   5.651   5.505
    6SAPS   H2X  701   1.347   5.705   5.436
    6SAPS   H2Y  702   1.193   5.672   5.461
    6SAPS   C23  703   1.807   5.554   5.842
    6SAPS   H3R  704   1.906   5.509   5.871
    6SAPS   H3S  705   1.773   5.612   5.930
    6SAPS   C24  706   1.821   5.645   5.721
    6SAPS   H4R  707   1.873   5.583   5.649
    6SAPS   H4S  708   1.878   5.729   5.739
    6SAPS   C25  709   1.723   5.738   5.664
    6SAPS   H5R  710   1.684   5.813   5.734
    6SAPS   C26  711   1.677   5.722   5.541
    6SAPS   H6R  712   1.598   5.785   5.506
    6SAPS   C27  713   1.715   5.610   5.448
    6SAPS   H7R  714   1.654   5.587   5.364
    6SAPS   H7S  715   1.760   5.521   5.503
    6SAPS   C28  716   1.805   5.646   5.346
    6SAPS   H8R  717   1.886   5.597   5.407
    6SAPS   C29  718   1.826   5.723   5.229
    6SAPS   H9R  719   1.928   5.766   5.197
    6SAPS  C210  720   1.765   5.816   5.142
    6SAPS  H10R  721   1.807   5.916   5.168
    6SAPS  H10S  722   1.676   5.776   5.188
    6SAPS  C211  723   1.808   5.763   5.008
    6SAPS  H11R  724   1.913   5.750   4.985
    6SAPS  C212  725   1.721   5.730   4.919
    6SAPS  H12R  726   1.760   5.678   4.831
    6SAPS  C213  727   1.577   5.748   4.952
    6SAPS  H13R  728   1.561   5.854   4.982
    6SAPS  H13S  729   1.541   5.686   5.038
    6SAPS  C214  730   1.508   5.713   4.824
    6SAPS  H14R  731   1.507   5.605   4.805
    6SAPS  C215  732   1.448   5.796   4.738
    6SAPS  H15R  733   1.406   5.752   4.647
    6SAPS  C216  734   1.434   5.946   4.748
    6SAPS  H16R  735   1.391   5.972   4.848
    6SAPS  H16S  736   1.358   5.981   4.673
    6SAPS  C217  737   1.559   6.033   4.726
    6SAPS  H17R  738   1.638   6.015   4.802
    6SAPS  H17S  739   1.526   6.139   4.740
    6SAPS  C218  740   1.618   6.017   4.586
    6SAPS  H18R  741   1.637   5.909   4.567
    6SAPS  H18S  742   1.718   6.066   4.580
    6SAPS  C219  743   1.526   6.069   4.475
    6SAPS  H19R  744   1.507   6.176   4.501
    6SAPS  H19S  745   1.422   6.034   4.477
    6SAPS  C220  746   1.582   6.038   4.334
    6SAPS  H20R  747   1.572   5.929   4.316
    6SAPS  H20S  748   1.690   6.065   4.325
    6SAPS  H20T  749   1.529   6.095   4.255
    6SAPS   C33  750   1.220   5.532   5.476
    6SAPS   H3X  751   1.109   5.540   5.528
    6SAPS   H3Y  752   1.288   5.454   5.523
    6SAPS   C34  753   1.213   5.544   5.318
    6SAPS   H4X  754   1.114   5.554   5.263
    6SAPS   H4Y  755   1.177   5.477   5.384
    6SAPS   C35  756   1.331   5.500   5.226
    6SAPS   H5X  757   1.380   5.596   5.206
    6SAPS   H5Y  758   1.285   5.482   5.124
    6SAPS   C36  759   1.432   5.383   5.270
    6SAPS   H6X  760   1.397   5.292   5.324
    6SAPS   H6Y  761   1.501   5.419   5.348
    6SAPS   C37  762   1.496   5.303   5.155
    6SAPS   H7X  763   1.433   5.265   5.076
    6SAPS   H7Y  764   1.533   5.208   5.193
    6SAPS   C38  765   1.609   5.375   5.095
    6SAPS   H8X  766   1.661   5.415   5.184
    6SAPS   H8Y  767   1.570   5.457   5.031
    6SAPS   C39  768   1.698   5.278   5.021
    6SAPS   H9X  769   1.705   5.186   5.085
    6SAPS   H9Y  770   1.797   5.323   5.015
    6SAPS  C310  771   1.638   5.235   4.887
    6SAPS  H10X  772   1.529   5.227   4.902
    6SAPS  H10Y  773   1.679   5.134   4.864
    6SAPS  C311  774   1.648   5.330   4.766
    6SAPS  H11X  775   1.600   5.426   4.793
    6SAPS  H11Y  776   1.592   5.284   4.681
    6SAPS  C312  777   1.791   5.356   4.722
    6SAPS  H12X  778   1.837   5.257   4.703
    6SAPS  H12Y  779   1.841   5.408   4.807
    6SAPS  C313  780   1.805   5.446   4.599
    6SAPS  H13X  781   1.913   5.455   4.572
    6SAPS  H13Y  782   1.766   5.547   4.625
    6SAPS  C314  783   1.729   5.397   4.479
    6SAPS  H14X  784   1.626   5.441   4.484
    6SAPS  H14Y  785   1.719   5.286   4.479
    6SAPS  C315  786   1.795   5.437   4.347
    6SAPS  H15X  787   1.894   5.396   4.325
    6SAPS  H15Y  788   1.797   5.549   4.341
    6SAPS  C316  789   1.706   5.387   4.237
    6SAPS  H16X  790   1.619   5.433   4.290
    6SAPS  H16Y  791   1.677   5.285   4.210
    6SAPS  C317  792   1.747   5.430   4.098
    6SAPS  H17X  793   1.839   5.390   4.060
    6SAPS  H17Y  794   1.786   5.532   4.135
    6SAPS  C318  795   1.655   5.411   3.964
    6SAPS  H18X  796   1.576   5.490   3.950
    6SAPS  H18Y  797   1.619   5.324   3.938
    6SAPS  H18Z  798   1.579   5.472   3.907
    7SAPS     N  799   2.965   6.858   6.394
    7SAPS   HN1  800   3.058   6.811   6.400
    7SAPS   HN2  801   2.906   6.835   6.478
    7SAPS   HN3  802   2.919   6.841   6.303
    7SAPS   C12  803   2.996   7.004   6.396
    7SAPS  H12A  804   2.904   7.059   6.410
    7SAPS   C13  805   3.095   7.038   6.509
    7SAPS  O13A  806   3.148   6.942   6.572
    7SAPS  O13B  807   3.115   7.159   6.536
    7SAPS   C11  808   3.060   7.037   6.260
    7SAPS  H11A  809   3.151   6.974   6.244
    7SAPS  H11B  810   3.094   7.143   6.258
    7SAPS     P  811   3.005   7.044   6.007
    7SAPS   O13  812   3.147   7.010   5.988
    7SAPS   O14  813   2.905   6.975   5.924
    7SAPS   O12  814   2.964   7.010   6.157
    7SAPS   O11  815   2.983   7.201   5.999
    7SAPS    C1  816   2.883   7.268   6.074
    7SAPS    HA  817   2.817   7.196   6.130
    7SAPS    HB  818   2.928   7.336   6.150
    7SAPS    C2  819   2.786   7.351   5.986
    7SAPS    HS  820   2.697   7.345   6.039
    7SAPS   O21  821   2.772   7.308   5.850
    7SAPS   C21  822   2.691   7.206   5.831
    7SAPS   O22  823   2.643   7.134   5.917
    7SAPS   C22  824   2.629   7.224   5.691
    7SAPS   H2R  825   2.553   7.144   5.678
    7SAPS   H2S  826   2.574   7.321   5.686
    7SAPS    C3  827   2.814   7.504   5.979
    7SAPS    HX  828   2.798   7.546   6.080
    7SAPS    HY  829   2.737   7.549   5.909
    7SAPS   O31  830   2.948   7.533   5.946
    7SAPS   C31  831   2.978   7.517   5.820
    7SAPS   O32  832   2.898   7.514   5.727
    7SAPS   C32  833   3.130   7.510   5.805
    7SAPS   H2X  834   3.177   7.468   5.894
    7SAPS   H2Y  835   3.178   7.606   5.802
    7SAPS   C23  836   2.738   7.223   5.582
    7SAPS   H3R  837   2.818   7.150   5.610
    7SAPS   H3S  838   2.781   7.325   5.575
    7SAPS   C24  839   2.692   7.191   5.440
    7SAPS   H4R  840   2.778   7.187   5.371
    7SAPS   H4S  841   2.612   7.257   5.404
    7SAPS   C25  842   2.638   7.059   5.436
    7SAPS   H5R  843   2.539   7.044   5.487
    7SAPS   C26  844   2.717   6.954   5.404
    7SAPS   H6R  845   2.666   6.865   5.411
    7SAPS   C27  846   2.847   6.896   5.365
    7SAPS   H7R  847   2.892   6.896   5.465
    7SAPS   H7S  848   2.877   6.972   5.293
    7SAPS   C28  849   2.872   6.753   5.309
    7SAPS   H8R  850   2.834   6.667   5.370
    7SAPS   C29  851   2.874   6.726   5.176
    7SAPS   H9R  852   2.873   6.620   5.142
    7SAPS  C210  853   2.852   6.828   5.064
    7SAPS  H10R  854   2.904   6.924   5.083
    7SAPS  H10S  855   2.751   6.871   5.056
    7SAPS  C211  856   2.878   6.769   4.928
    7SAPS  H11R  857   2.802   6.723   4.867
    7SAPS  C212  858   2.998   6.754   4.884
    7SAPS  H12R  859   3.026   6.742   4.780
    7SAPS  C213  860   3.104   6.797   4.965
    7SAPS  H13R  861   3.091   6.796   5.077
    7SAPS  H13S  862   3.092   6.897   4.920
    7SAPS  C214  863   3.244   6.790   4.950
    7SAPS  H14R  864   3.278   6.773   5.051
    7SAPS  C215  865   3.323   6.816   4.846
    7SAPS  H15R  866   3.436   6.814   4.854
    7SAPS  C216  867   3.248   6.855   4.727
    7SAPS  H16R  868   3.296   6.932   4.749
    7SAPS  H16S  869   3.162   6.919   4.739
    7SAPS  C217  870   3.303   6.841   4.590
    7SAPS  H17R  871   3.284   6.753   4.542
    7SAPS  H17S  872   3.401   6.793   4.615
    7SAPS  C218  873   3.264   6.952   4.479
    7SAPS  H18R  874   3.160   6.974   4.506
    7SAPS  H18S  875   3.266   6.889   4.396
    7SAPS  C219  876   3.339   7.080   4.411
    7SAPS  H19R  877   3.430   7.066   4.345
    7SAPS  H19S  878   3.380   7.148   4.484
    7SAPS  C220  879   3.278   7.160   4.305
    7SAPS  H20R  880   3.280   7.264   4.343
    7SAPS  H20S  881   3.183   7.105   4.292
    7SAPS  H20T  882   3.345   7.157   4.214
    7SAPS   C33  883   3.175   7.457   5.670
    7SAPS   H3X  884   3.283   7.481   5.656
    7SAPS   H3Y  885   3.125   7.513   5.589
    7SAPS   C34  886   3.150   7.307   5.666
    7SAPS   H4X  887   3.047   7.283   5.700
    7SAPS   H4Y  888   3.220   7.258   5.737
    7SAPS   C35  889   3.160   7.252   5.525
    7SAPS   H5X  890   3.135   7.143   5.533
    7SAPS   H5Y  891   3.266   7.260   5.495
    7SAPS   C36  892   3.064   7.332   5.432
    7SAPS   H6X  893   3.116   7.425   5.400
    7SAPS   H6Y  894   2.969   7.351   5.483
    7SAPS   C37  895   3.024   7.263   5.304
    7SAPS   H7X  896   2.986   7.160   5.322
    7SAPS   H7Y  897   3.131   7.268   5.288
    7SAPS   C38  898   2.985   7.327   5.168
    7SAPS   H8X  899   3.060   7.406   5.142
    7SAPS   H8Y  900   2.886   7.369   5.190
    7SAPS   C39  901   2.968   7.227   5.049
    7SAPS   H9X  902   2.919   7.136   5.086
    7SAPS   H9Y  903   3.056   7.186   5.005
    7SAPS  C310  904   2.931   7.280   4.912
    7SAPS  H10X  905   3.014   7.339   4.865
    7SAPS  H10Y  906   2.849   7.347   4.938
    7SAPS  C311  907   2.888   7.168   4.816
    7SAPS  H11X  908   2.818   7.100   4.869
    7SAPS  H11Y  909   2.975   7.106   4.783
    7SAPS  C312  910   2.816   7.225   4.693
    7SAPS  H12X  911   2.891   7.261   4.620
    7SAPS  H12Y  912   2.757   7.313   4.724
    7SAPS  C313  913   2.725   7.128   4.618
    7SAPS  H13X  914   2.677   7.180   4.532
    7SAPS  H13Y  915   2.647   7.082   4.682
    7SAPS  C314  916   2.809   7.020   4.560
    7SAPS  H14X  917   2.839   6.948   4.639
    7SAPS  H14Y  918   2.901   7.066   4.516
    7SAPS  C315  919   2.751   6.947   4.444
    7SAPS  H15X  920   2.686   7.002   4.372
    7SAPS  H15Y  921   2.686   6.866   4.482
    7SAPS  C316  922   2.881   6.896   4.379
    7SAPS  H16X  923   2.958   6.945   4.319
    7SAPS  H16Y  924   2.829   6.891   4.281
    7SAPS  C317  925   2.944   6.779   4.470
    7SAPS  H17X  926   2.878   6.706   4.521
    7SAPS  H17Y  927   2.999   6.828   4.551
    7SAPS  C318  928   3.030   6.676   4.404
    7SAPS  H18X  929   3.100   6.759   4.409
    7SAPS  H18Y  930   3.015   6.640   4.296
    7SAPS  H18Z  931   3.100   6.603   4.436
    8SAPS     N  932   2.505  -0.006   6.113
    8SAPS   HN1  933   2.564   0.038   6.040
    8SAPS   HN2  934   2.562  -0.084   6.154
    8SAPS   HN3  935   2.418  -0.045   6.076
    8SAPS   C12  936   2.483   0.098   6.214
    8SAPS  H12A  937   2.392   0.144   6.184
    8SAPS   C13  938   2.457   0.040   6.351
    8SAPS  O13A  939   2.452  -0.085   6.357
    8SAPS  O13B  940   2.417   0.115   6.442
    8SAPS   C11  941   2.588   0.209   6.214
    8SAPS  H11A  942   2.608   0.234   6.108
    8SAPS  H11B  943   2.684   0.190   6.268
    8SAPS     P  944   2.537   0.461   6.220
    8SAPS   O13  945   2.448   0.548   6.296
    8SAPS   O14  946   2.675   0.492   6.191
    8SAPS   O12  947   2.526   0.318   6.276
    8SAPS   O11  948   2.482   0.438   6.076
    8SAPS    C1  949   2.542   0.527   5.979
    8SAPS    HA  950   2.568   0.632   6.018
    8SAPS    HB  951   2.617   0.487   5.910
    8SAPS    C2  952   2.435   0.553   5.890
    8SAPS    HS  953   2.359   0.574   5.968
    8SAPS   O21  954   2.375   0.444   5.821
    8SAPS   C21  955   2.244   0.441   5.819
    8SAPS   O22  956   2.160   0.518   5.860
    8SAPS   C22  957   2.207   0.321   5.760
    8SAPS   H2R  958   2.270   0.284   5.678
    8SAPS   H2S  959   2.171   0.257   5.843
    8SAPS    C3  960   2.515   0.669   5.795
    8SAPS    HX  961   2.529   0.775   5.831
    8SAPS    HY  962   2.458   0.745   5.749
    8SAPS   O31  963   2.596   0.628   5.687
    8SAPS   C31  964   2.559   0.571   5.573
    8SAPS   O32  965   2.456   0.540   5.521
    8SAPS   C32  966   2.669   0.530   5.501
    8SAPS   H2X  967   2.728   0.481   5.581
    8SAPS   H2Y  968   2.716   0.619   5.453
    8SAPS   C23  969   2.093   0.358   5.684
    8SAPS   H3R  970   2.019   0.403   5.757
    8SAPS   H3S  971   2.057   0.255   5.663
    8SAPS   C24  972   2.113   0.422   5.542
    8SAPS   H4R  973   2.123   0.525   5.535
    8SAPS   H4S  974   2.022   0.464   5.505
    8SAPS   C25  975   2.172   0.342   5.431
    8SAPS   H5R  976   2.224   0.256   5.469
    8SAPS   C26  977   2.154   0.344   5.299
    8SAPS   H6R  978   2.150   0.245   5.250
    8SAPS   C27  979   2.069   0.422   5.210
    8SAPS   H7R  980   1.989   0.466   5.262
    8SAPS   H7S  981   2.031   0.346   5.140
    8SAPS   C28  982   2.050   0.541   5.144
    8SAPS   H8R  983   1.988   0.625   5.189
    8SAPS   C29  984   2.090   0.529   5.024
    8SAPS   H9R  985   2.130   0.610   4.982
    8SAPS  C210  986   2.150   0.428   4.943
    8SAPS  H10R  987   2.128   0.456   4.840
    8SAPS  H10S  988   2.105   0.336   4.968
    8SAPS  C211  989   2.296   0.427   4.973
    8SAPS  H11R  990   2.320   0.394   5.075
    8SAPS  C212  991   2.392   0.463   4.889
    8SAPS  H12R  992   2.496   0.451   4.918
    8SAPS  C213  993   2.376   0.510   4.750
    8SAPS  H13R  994   2.290   0.462   4.697
    8SAPS  H13S  995   2.469   0.505   4.692
    8SAPS  C214  996   2.355   0.652   4.751
    8SAPS  H14R  997   2.340   0.709   4.845
    8SAPS  C215  998   2.333   0.709   4.634
    8SAPS  H15R  999   2.268   0.793   4.648
    8SAPS  C216 1000   2.326   0.653   4.494
    8SAPS  H16R 1001   2.322   0.544   4.495
    8SAPS  H16S 1002   2.410   0.702   4.442
    8SAPS  C217 1003   2.212   0.690   4.397
    8SAPS  H17R 1004   2.251   0.769   4.339
    8SAPS  H17S 1005   2.133   0.749   4.432
    8SAPS  C218 1006   2.172   0.603   4.284
    8SAPS  H18R 1007   2.276   0.586   4.261
    8SAPS  H18S 1008   2.105   0.663   4.219
    8SAPS  C219 1009   2.132   0.458   4.293
    8SAPS  H19R 1010   2.201   0.401   4.355
    8SAPS  H19S 1011   2.077   0.416   4.205
    8SAPS  C220 1012   2.043   0.444   4.384
    8SAPS  H20R 1013   1.952   0.462   4.330
    8SAPS  H20S 1014   2.033   0.546   4.413
    8SAPS  H20T 1015   1.987   0.357   4.409
    8SAPS   C33 1016   2.602   0.426   5.405
    8SAPS   H3X 1017   2.535   0.471   5.326
    8SAPS   H3Y 1018   2.540   0.350   5.459
    8SAPS   C34 1019   2.714   0.361   5.339
    8SAPS   H4X 1020   2.757   0.280   5.401
    8SAPS   H4Y 1021   2.780   0.449   5.340
    8SAPS   C35 1022   2.684   0.316   5.200
    8SAPS   H5X 1023   2.776   0.270   5.158
    8SAPS   H5Y 1024   2.654   0.398   5.131
    8SAPS   C36 1025   2.579   0.208   5.204
    8SAPS   H6X 1026   2.480   0.237   5.248
    8SAPS   H6Y 1027   2.615   0.119   5.260
    8SAPS   C37 1028   2.566   0.164   5.063
    8SAPS   H7X 1029   2.653   0.112   5.020
    8SAPS   H7Y 1030   2.526   0.244   4.995
    8SAPS   C38 1031   2.471   0.058   5.056
    8SAPS   H8X 1032   2.385   0.101   5.117
    8SAPS   H8Y 1033   2.497  -0.042   5.096
    8SAPS   C39 1034   2.450   0.061   4.904
    8SAPS   H9X 1035   2.384   0.147   4.886
    8SAPS   H9Y 1036   2.384  -0.009   4.865
    8SAPS  C310 1037   2.507  -0.041   4.809
    8SAPS  H10X 1038   2.503  -0.146   4.852
    8SAPS  H10Y 1039   2.606  -0.002   4.821
    8SAPS  C311 1040   2.435  -0.039   4.669
    8SAPS  H11X 1041   2.323  -0.044   4.668
    8SAPS  H11Y 1042   2.455  -0.137   4.626
    8SAPS  C312 1043   2.471   0.084   4.587
    8SAPS  H12X 1044   2.581   0.083   4.574
    8SAPS  H12Y 1045   2.447   0.179   4.642
    8SAPS  C313 1046   2.403   0.074   4.449
    8SAPS  H13X 1047   2.293   0.085   4.457
    8SAPS  H13Y 1048   2.421  -0.031   4.416
    8SAPS  C314 1049   2.453   0.171   4.343
    8SAPS  H14X 1050   2.562   0.162   4.325
    8SAPS  H14Y 1051   2.434   0.276   4.376
    8SAPS  C315 1052   2.375   0.159   4.211
    8SAPS  H15X 1053   2.402   0.252   4.157
    8SAPS  H15Y 1054   2.265   0.162   4.229
    8SAPS  C316 1055   2.415   0.038   4.125
    8SAPS  H16X 1056   2.376  -0.057   4.169
    8SAPS  H16Y 1057   2.525   0.033   4.117
    8SAPS  C317 1058   2.372   0.043   3.979
    8SAPS  H17X 1059   2.393  -0.058   3.936
    8SAPS  H17Y 1060   2.416   0.125   3.920
    8SAPS  C318 1061   2.229   0.061   3.961
    8SAPS  H18X 1062   2.190   0.157   4.002
    8SAPS  H18Y 1063   2.185  -0.018   4.020
    8SAPS  H18Z 1064   2.191   0.041   3.859
    9SAPS     N 1065   6.612   6.501   6.528
    9SAPS   HN1 1066   6.692   6.555   6.562
    9SAPS   HN2 1067   6.522   6.532   6.570
    9SAPS   HN3 1068   6.623   6.397   6.528
    9SAPS   C12 1069   6.611   6.528   6.385
    9SAPS  H12A 1070   6.682   6.606   6.362
    9SAPS   C13 1071   6.640   6.404   6.294
    9SAPS  O13A 1072   6.643   6.291   6.350
    9SAPS  O13B 1073   6.689   6.427   6.181
    9SAPS   C11 1074   6.473   6.579   6.361
    9SAPS  H11A 1075   6.454   6.677   6.411
    9SAPS  H11B 1076   6.394   6.505   6.390
    9SAPS     P 1077   6.354   6.630   6.160
    9SAPS   O13 1078   6.254   6.522   6.157
    9SAPS   O14 1079   6.310   6.745   6.242
    9SAPS   O12 1080   6.481   6.595   6.224
    9SAPS   O11 1081   6.419   6.659   6.018
    9SAPS    C1 1082   6.525   6.744   5.973
    9SAPS    HA 1083   6.501   6.852   5.957
    9SAPS    HB 1084   6.602   6.741   6.051
    9SAPS    C2 1085   6.583   6.696   5.838
    9SAPS    HS 1086   6.670   6.762   5.814
    9SAPS   O21 1087   6.493   6.691   5.726
    9SAPS   C21 1088   6.479   6.807   5.662
    9SAPS   O22 1089   6.527   6.912   5.696
    9SAPS   C22 1090   6.376   6.793   5.555
    9SAPS   H2R 1091   6.299   6.776   5.622
    9SAPS   H2S 1092   6.341   6.887   5.511
    9SAPS    C3 1093   6.636   6.556   5.862
    9SAPS    HX 1094   6.552   6.486   5.881
    9SAPS    HY 1095   6.699   6.561   5.954
    9SAPS   O31 1096   6.715   6.519   5.750
    9SAPS   C31 1097   6.653   6.454   5.657
    9SAPS   O32 1098   6.544   6.402   5.659
    9SAPS   C32 1099   6.734   6.462   5.533
    9SAPS   H2X 1100   6.827   6.409   5.562
    9SAPS   H2Y 1101   6.743   6.570   5.507
    9SAPS   C23 1102   6.416   6.683   5.459
    9SAPS   H3R 1103   6.417   6.582   5.506
    9SAPS   H3S 1104   6.517   6.715   5.432
    9SAPS   C24 1105   6.347   6.673   5.325
    9SAPS   H4R 1106   6.271   6.600   5.344
    9SAPS   H4S 1107   6.389   6.598   5.257
    9SAPS   C25 1108   6.322   6.802   5.251
    9SAPS   H5R 1109   6.405   6.871   5.267
    9SAPS   C26 1110   6.225   6.844   5.168
    9SAPS   H6R 1111   6.247   6.938   5.117
    9SAPS   C27 1112   6.101   6.776   5.116
    9SAPS   H7R 1113   6.009   6.817   5.165
    9SAPS   H7S 1114   6.106   6.669   5.136
    9SAPS   C28 1115   6.079   6.795   4.970
    9SAPS   H8R 1116   6.021   6.886   4.950
    9SAPS   C29 1117   6.119   6.720   4.868
    9SAPS   H9R 1118   6.085   6.753   4.770
    9SAPS  C210 1119   6.199   6.592   4.864
    9SAPS  H10R 1120   6.298   6.600   4.914
    9SAPS  H10S 1121   6.219   6.565   4.758
    9SAPS  C211 1122   6.127   6.472   4.912
    9SAPS  H11R 1123   6.018   6.467   4.895
    9SAPS  C212 1124   6.182   6.372   4.979
    9SAPS  H12R 1125   6.116   6.287   4.983
    9SAPS  C213 1126   6.320   6.340   5.029
    9SAPS  H13R 1127   6.312   6.308   5.136
    9SAPS  H13S 1128   6.386   6.429   5.031
    9SAPS  C214 1129   6.383   6.227   4.952
    9SAPS  H14R 1130   6.348   6.127   4.979
    9SAPS  C215 1131   6.473   6.242   4.854
    9SAPS  H15R 1132   6.523   6.153   4.813
    9SAPS  C216 1133   6.524   6.375   4.809
    9SAPS  H16R 1134   6.604   6.393   4.879
    9SAPS  H16S 1135   6.461   6.463   4.832
    9SAPS  C217 1136   6.566   6.383   4.662
    9SAPS  H17R 1137   6.639   6.304   4.633
    9SAPS  H17S 1138   6.618   6.479   4.645
    9SAPS  C218 1139   6.442   6.388   4.573
    9SAPS  H18R 1140   6.376   6.473   4.603
    9SAPS  H18S 1141   6.387   6.292   4.577
    9SAPS  C219 1142   6.473   6.418   4.432
    9SAPS  H19R 1143   6.547   6.503   4.440
    9SAPS  H19S 1144   6.385   6.454   4.374
    9SAPS  C220 1145   6.536   6.299   4.362
    9SAPS  H20R 1146   6.490   6.202   4.374
    9SAPS  H20S 1147   6.638   6.320   4.401
    9SAPS  H20T 1148   6.558   6.295   4.253
    9SAPS   C33 1149   6.657   6.402   5.417
    9SAPS   H3X 1150   6.572   6.468   5.397
    9SAPS   H3Y 1151   6.637   6.295   5.445
    9SAPS   C34 1152   6.721   6.404   5.282
    9SAPS   H4X 1153   6.694   6.333   5.203
    9SAPS   H4Y 1154   6.798   6.343   5.328
    9SAPS   C35 1155   6.762   6.543   5.224
    9SAPS   H5X 1156   6.821   6.536   5.129
    9SAPS   H5Y 1157   6.829   6.594   5.293
    9SAPS   C36 1158   6.658   6.640   5.189
    9SAPS   H6X 1159   6.635   6.696   5.281
    9SAPS   H6Y 1160   6.572   6.579   5.156
    9SAPS   C37 1161   6.712   6.726   5.075
    9SAPS   H7X 1162   6.728   6.659   4.986
    9SAPS   H7Y 1163   6.810   6.773   5.095
    9SAPS   C38 1164   6.609   6.830   5.047
    9SAPS   H8X 1165   6.591   6.894   5.136
    9SAPS   H8Y 1166   6.513   6.778   5.020
    9SAPS   C39 1167   6.653   6.920   4.939
    9SAPS   H9X 1168   6.706   6.874   4.853
    9SAPS   H9Y 1169   6.713   7.006   4.976
    9SAPS  C310 1170   6.532   6.974   4.884
    9SAPS  H10X 1171   6.482   7.038   4.961
    9SAPS  H10Y 1172   6.455   6.907   4.842
    9SAPS  C311 1173   6.594   7.054   4.783
    9SAPS  H11X 1174   6.629   7.017   4.682
    9SAPS  H11Y 1175   6.658   7.136   4.836
    9SAPS  C312 1176   6.469   7.105   4.758
    9SAPS  H12X 1177   6.542   7.173   4.716
    9SAPS  H12Y 1178   6.438   7.186   4.821
    9SAPS  C313 1179   6.353   7.048   4.668
    9SAPS  H13X 1180   6.297   7.112   4.591
    9SAPS  H13Y 1181   6.261   7.041   4.725
    9SAPS  C314 1182   6.378   6.936   4.579
    9SAPS  H14X 1183   6.463   6.879   4.608
    9SAPS  H14Y 1184   6.388   6.978   4.480
    9SAPS  C315 1185   6.253   6.859   4.575
    9SAPS  H15X 1186   6.201   6.952   4.583
    9SAPS  H15Y 1187   6.194   6.847   4.663
    9SAPS  C316 1188   6.239   6.760   4.452
    9SAPS  H16X 1189   6.300   6.677   4.490
    9SAPS  H16Y 1190   6.284   6.794   4.355
    9SAPS  C317 1191   6.098   6.710   4.404
    9SAPS  H17X 1192   6.030   6.781   4.346
    9SAPS  H17Y 1193   6.039   6.675   4.489
    9SAPS  C318 1194   6.088   6.634   4.283
    9SAPS  H18X 1195   5.982   6.623   4.249
    9SAPS  H18Y 1196   6.128   6.534   4.304
    9SAPS  H18Z 1197   6.136   6.687   4.197
   10SAPS     N 1198   0.600   7.338   6.324
   10SAPS   HN1 1199   0.620   7.381   6.231
   10SAPS   HN2 1200   0.497   7.330   6.343
   10SAPS   HN3 1201   0.650   7.391   6.396
   10SAPS   C12 1202   0.652   7.194   6.321
   10SAPS  H12A 1203   0.658   7.164   6.423
   10SAPS   C13 1204   0.555   7.094   6.275
   10SAPS  O13A 1205   0.444   7.141   6.307
   10SAPS  O13B 1206   0.581   6.971   6.256
   10SAPS   C11 1207   0.780   7.166   6.245
   10SAPS  H11A 1208   0.769   7.187   6.135
   10SAPS  H11B 1209   0.799   7.058   6.244
   10SAPS     P 1210   0.942   7.355   6.238
   10SAPS   O13 1211   0.817   7.395   6.174
   10SAPS   O14 1212   1.022   7.446   6.321
   10SAPS   O12 1213   0.887   7.232   6.318
   10SAPS   O11 1214   1.021   7.300   6.118
   10SAPS    C1 1215   1.129   7.216   6.149
   10SAPS    HA 1216   1.217   7.277   6.176
   10SAPS    HB 1217   1.102   7.144   6.231
   10SAPS    C2 1218   1.156   7.129   6.028
   10SAPS    HS 1219   1.234   7.061   6.068
   10SAPS   O21 1220   1.210   7.198   5.918
   10SAPS   C21 1221   1.319   7.161   5.863
   10SAPS   O22 1222   1.408   7.086   5.893
   10SAPS   C22 1223   1.323   7.221   5.740
   10SAPS   H2R 1224   1.223   7.240   5.695
   10SAPS   H2S 1225   1.397   7.305   5.750
   10SAPS    C3 1226   1.021   7.064   5.985
   10SAPS    HX 1227   0.977   7.002   6.069
   10SAPS    HY 1228   1.044   6.995   5.904
   10SAPS   O31 1229   0.933   7.148   5.921
   10SAPS   C31 1230   0.832   7.084   5.882
   10SAPS   O32 1231   0.792   6.975   5.915
   10SAPS   C32 1232   0.754   7.175   5.806
   10SAPS   H2X 1233   0.665   7.173   5.861
   10SAPS   H2Y 1234   0.731   7.130   5.715
   10SAPS   C23 1235   1.385   7.111   5.666
   10SAPS   H3R 1236   1.492   7.091   5.680
   10SAPS   H3S 1237   1.385   7.189   5.602
   10SAPS   C24 1238   1.316   7.048   5.551
   10SAPS   H4R 1239   1.255   6.980   5.590
   10SAPS   H4S 1240   1.387   6.971   5.511
   10SAPS   C25 1241   1.223   7.128   5.463
   10SAPS   H5R 1242   1.124   7.135   5.512
   10SAPS   C26 1243   1.225   7.149   5.330
   10SAPS   H6R 1244   1.126   7.175   5.290
   10SAPS   C27 1245   1.314   7.105   5.215
   10SAPS   H7R 1246   1.291   7.050   5.127
   10SAPS   H7S 1247   1.392   7.030   5.247
   10SAPS   C28 1248   1.311   7.254   5.190
   10SAPS   H8R 1249   1.413   7.241   5.234
   10SAPS   C29 1250   1.301   7.357   5.092
   10SAPS   H9R 1251   1.362   7.448   5.122
   10SAPS  C210 1252   1.290   7.345   4.930
   10SAPS  H10R 1253   1.194   7.387   4.903
   10SAPS  H10S 1254   1.270   7.238   4.914
   10SAPS  C211 1255   1.401   7.347   4.811
   10SAPS  H11R 1256   1.514   7.353   4.820
   10SAPS  C212 1257   1.399   7.297   4.692
   10SAPS  H12R 1258   1.497   7.291   4.638
   10SAPS  C213 1259   1.278   7.227   4.647
   10SAPS  H13R 1260   1.201   7.205   4.723
   10SAPS  H13S 1261   1.306   7.130   4.601
   10SAPS  C214 1262   1.227   7.331   4.554
   10SAPS  H14R 1263   1.279   7.430   4.547
   10SAPS  C215 1264   1.111   7.315   4.497
   10SAPS  H15R 1265   1.078   7.382   4.420
   10SAPS  C216 1266   1.017   7.205   4.513
   10SAPS  H16R 1267   0.912   7.238   4.496
   10SAPS  H16S 1268   1.023   7.170   4.617
   10SAPS  C217 1269   1.061   7.091   4.426
   10SAPS  H17R 1270   0.990   7.021   4.455
   10SAPS  H17S 1271   1.156   7.044   4.455
   10SAPS  C218 1272   1.027   7.088   4.281
   10SAPS  H18R 1273   1.087   7.168   4.237
   10SAPS  H18S 1274   0.917   7.099   4.261
   10SAPS  C219 1275   1.079   6.961   4.218
   10SAPS  H19R 1276   1.188   6.966   4.232
   10SAPS  H19S 1277   1.076   6.964   4.109
   10SAPS  C220 1278   1.009   6.827   4.243
   10SAPS  H20R 1279   1.010   6.761   4.155
   10SAPS  H20S 1280   0.901   6.827   4.240
   10SAPS  H20T 1281   1.056   6.776   4.328
   10SAPS   C33 1282   0.780   7.317   5.833
   10SAPS   H3X 1283   0.791   7.330   5.943
   10SAPS   H3Y 1284   0.691   7.374   5.798
   10SAPS   C34 1285   0.898   7.364   5.758
   10SAPS   H4X 1286   0.999   7.328   5.788
   10SAPS   H4Y 1287   0.890   7.463   5.803
   10SAPS   C35 1288   0.866   7.348   5.612
   10SAPS   H5X 1289   0.762   7.379   5.581
   10SAPS   H5Y 1290   0.924   7.275   5.553
   10SAPS   C36 1291   0.931   7.448   5.541
   10SAPS   H6X 1292   1.023   7.479   5.581
   10SAPS   H6Y 1293   0.872   7.522   5.588
   10SAPS   C37 1294   0.881   7.479   5.406
   10SAPS   H7X 1295   0.952   7.537   5.354
   10SAPS   H7Y 1296   0.794   7.546   5.414
   10SAPS   C38 1297   0.904   7.381   5.299
   10SAPS   H8X 1298   0.845   7.301   5.337
   10SAPS   H8Y 1299   1.014   7.356   5.311
   10SAPS   C39 1300   0.854   7.436   5.163
   10SAPS   H9X 1301   0.884   7.536   5.142
   10SAPS   H9Y 1302   0.747   7.459   5.161
   10SAPS  C310 1303   0.928   7.394   5.039
   10SAPS  H10X 1304   1.039   7.378   5.047
   10SAPS  H10Y 1305   0.906   7.454   4.948
   10SAPS  C311 1306   0.881   7.265   5.018
   10SAPS  H11X 1307   0.780   7.240   5.053
   10SAPS  H11Y 1308   0.940   7.216   5.101
   10SAPS  C312 1309   0.923   7.225   4.870
   10SAPS  H12X 1310   1.028   7.246   4.841
   10SAPS  H12Y 1311   0.839   7.228   4.801
   10SAPS  C313 1312   0.975   7.090   4.870
   10SAPS  H13X 1313   0.910   7.087   4.957
   10SAPS  H13Y 1314   0.999   7.100   4.974
   10SAPS  C314 1315   1.006   6.944   4.770
   10SAPS  H14X 1316   1.080   6.969   4.702
   10SAPS  H14Y 1317   0.945   6.931   4.690
   10SAPS  C315 1318   0.984   6.773   4.795
   10SAPS  H15X 1319   0.885   6.732   4.837
   10SAPS  H15Y 1320   1.053   6.732   4.868
   10SAPS  C316 1321   0.984   6.686   4.673
   10SAPS  H16X 1322   0.889   6.727   4.652
   10SAPS  H16Y 1323   0.944   6.583   4.669
   10SAPS  C317 1324   1.105   6.708   4.587
   10SAPS  H17X 1325   1.133   6.815   4.579
   10SAPS  H17Y 1326   1.094   6.669   4.484
   10SAPS  C318 1327   1.214   6.633   4.657
   10SAPS  H18X 1328   1.312   6.659   4.614
   10SAPS  H18Y 1329   1.190   6.524   4.649
   10SAPS  H18Z 1330   1.210   6.661   4.765
   11SAPS     N 1331   3.163   3.047   2.293
   11SAPS   HN1 1332   3.174   3.065   2.395
   11SAPS   HN2 1333   3.062   3.057   2.269
   11SAPS   HN3 1334   3.196   2.951   2.270
   11SAPS   C12 1335   3.251   3.145   2.219
   11SAPS  H12A 1336   3.235   3.127   2.114
   11SAPS   C13 1337   3.213   3.293   2.239
   11SAPS  O13A 1338   3.102   3.318   2.292
   11SAPS  O13B 1339   3.275   3.376   2.167
   11SAPS   C11 1340   3.401   3.125   2.256
   11SAPS  H11A 1341   3.413   3.137   2.366
   11SAPS  H11B 1342   3.460   3.207   2.207
   11SAPS     P 1343   3.600   2.954   2.251
   11SAPS   O13 1344   3.643   2.847   2.158
   11SAPS   O14 1345   3.684   3.074   2.262
   11SAPS   O12 1346   3.449   2.997   2.212
   11SAPS   O11 1347   3.579   2.893   2.396
   11SAPS    C1 1348   3.453   2.843   2.437
   11SAPS    HA 1349   3.377   2.921   2.420
   11SAPS    HB 1350   3.425   2.751   2.379
   11SAPS    C2 1351   3.445   2.805   2.589
   11SAPS    HS 1352   3.336   2.798   2.613
   11SAPS   O21 1353   3.509   2.903   2.673
   11SAPS   C21 1354   3.441   3.015   2.681
   11SAPS   O22 1355   3.330   3.035   2.632
   11SAPS   C22 1356   3.523   3.123   2.753
   11SAPS   H2R 1357   3.612   3.077   2.802
   11SAPS   H2S 1358   3.563   3.190   2.674
   11SAPS    C3 1359   3.508   2.666   2.617
   11SAPS    HX 1360   3.611   2.666   2.575
   11SAPS    HY 1361   3.447   2.592   2.559
   11SAPS   O31 1362   3.508   2.628   2.756
   11SAPS   C31 1363   3.620   2.648   2.826
   11SAPS   O32 1364   3.725   2.693   2.787
   11SAPS   C32 1365   3.602   2.607   2.970
   11SAPS   H2X 1366   3.647   2.507   2.988
   11SAPS   H2Y 1367   3.493   2.603   2.986
   11SAPS   C23 1368   3.438   3.214   2.846
   11SAPS   H3R 1369   3.422   3.164   2.943
   11SAPS   H3S 1370   3.338   3.232   2.800
   11SAPS   C24 1371   3.504   3.348   2.878
   11SAPS   H4R 1372   3.442   3.407   2.948
   11SAPS   H4S 1373   3.512   3.411   2.785
   11SAPS   C25 1374   3.639   3.313   2.936
   11SAPS   H5R 1375   3.709   3.274   2.861
   11SAPS   C26 1376   3.679   3.313   3.064
   11SAPS   H6R 1377   3.786   3.297   3.083
   11SAPS   C27 1378   3.598   3.349   3.186
   11SAPS   H7R 1379   3.508   3.286   3.186
   11SAPS   H7S 1380   3.558   3.451   3.168
   11SAPS   C28 1381   3.661   3.334   3.326
   11SAPS   H8R 1382   3.691   3.418   3.390
   11SAPS   C29 1383   3.687   3.228   3.393
   11SAPS   H9R 1384   3.738   3.236   3.491
   11SAPS  C210 1385   3.651   3.104   3.326
   11SAPS  H10R 1386   3.688   3.104   3.222
   11SAPS  H10S 1387   3.542   3.104   3.323
   11SAPS  C211 1388   3.699   2.987   3.397
   11SAPS  H11R 1389   3.770   2.920   3.353
   11SAPS  C212 1390   3.665   2.940   3.508
   11SAPS  H12R 1391   3.725   2.854   3.529
   11SAPS  C213 1392   3.565   2.987   3.602
   11SAPS  H13R 1393   3.510   3.077   3.578
   11SAPS  H13S 1394   3.630   2.997   3.692
   11SAPS  C214 1395   3.492   2.860   3.597
   11SAPS  H14R 1396   3.441   2.812   3.513
   11SAPS  C215 1397   3.453   2.815   3.706
   11SAPS  H15R 1398   3.409   2.710   3.712
   11SAPS  C216 1399   3.474   2.897   3.818
   11SAPS  H16R 1400   3.573   2.918   3.853
   11SAPS  H16S 1401   3.476   2.789   3.848
   11SAPS  C217 1402   3.380   3.025   3.864
   11SAPS  H17R 1403   3.388   3.103   3.787
   11SAPS  H17S 1404   3.416   3.074   3.956
   11SAPS  C218 1405   3.228   3.027   3.914
   11SAPS  H18R 1406   3.192   2.962   3.994
   11SAPS  H18S 1407   3.143   2.972   3.872
   11SAPS  C219 1408   3.195   3.166   3.947
   11SAPS  H19R 1409   3.098   3.155   3.926
   11SAPS  H19S 1410   3.183   3.247   3.875
   11SAPS  C220 1411   3.164   3.194   4.086
   11SAPS  H20R 1412   3.084   3.273   4.080
   11SAPS  H20S 1413   3.265   3.224   4.111
   11SAPS  H20T 1414   3.126   3.101   4.135
   11SAPS   C33 1415   3.668   2.709   3.066
   11SAPS   H3X 1416   3.773   2.728   3.036
   11SAPS   H3Y 1417   3.677   2.677   3.170
   11SAPS   C34 1418   3.589   2.838   3.072
   11SAPS   H4X 1419   3.581   2.876   2.968
   11SAPS   H4Y 1420   3.650   2.909   3.132
   11SAPS   C35 1421   3.448   2.831   3.131
   11SAPS   H5X 1422   3.455   2.805   3.239
   11SAPS   H5Y 1423   3.386   2.754   3.081
   11SAPS   C36 1424   3.382   2.967   3.101
   11SAPS   H6X 1425   3.376   2.983   2.993
   11SAPS   H6Y 1426   3.435   3.048   3.155
   11SAPS   C37 1427   3.245   3.001   3.143
   11SAPS   H7X 1428   3.174   2.925   3.134
   11SAPS   H7Y 1429   3.189   3.085   3.100
   11SAPS   C38 1430   3.234   2.982   3.280
   11SAPS   H8X 1431   3.271   2.875   3.288
   11SAPS   H8Y 1432   3.128   3.001   3.305
   11SAPS   C39 1433   3.297   3.065   3.373
   11SAPS   H9X 1434   3.391   3.018   3.398
   11SAPS   H9Y 1435   3.285   3.062   3.477
   11SAPS  C310 1436   3.240   3.202   3.360
   11SAPS  H10X 1437   3.129   3.212   3.374
   11SAPS  H10Y 1438   3.258   3.221   3.254
   11SAPS  C311 1439   3.320   3.288   3.453
   11SAPS  H11X 1440   3.331   3.386   3.405
   11SAPS  H11Y 1441   3.416   3.232   3.468
   11SAPS  C312 1442   3.263   3.311   3.591
   11SAPS  H12X 1443   3.264   3.211   3.641
   11SAPS  H12Y 1444   3.170   3.367   3.568
   11SAPS  C313 1445   3.319   3.396   3.693
   11SAPS  H13X 1446   3.286   3.374   3.796
   11SAPS  H13Y 1447   3.278   3.496   3.673
   11SAPS  C314 1448   3.462   3.362   3.671
   11SAPS  H14X 1449   3.492   3.373   3.569
   11SAPS  H14Y 1450   3.494   3.263   3.703
   11SAPS  C315 1451   3.539   3.447   3.752
   11SAPS  H15X 1452   3.497   3.409   3.838
   11SAPS  H15Y 1453   3.466   3.536   3.753
   11SAPS  C316 1454   3.706   3.437   3.731
   11SAPS  H16X 1455   3.711   3.466   3.629
   11SAPS  H16Y 1456   3.734   3.335   3.746
   11SAPS  C317 1457   3.840   3.517   3.792
   11SAPS  H17X 1458   3.862   3.634   3.795
   11SAPS  H17Y 1459   3.929   3.485   3.845
   11SAPS  C318 1460   3.777   3.514   3.898
   11SAPS  H18X 1461   3.749   3.417   3.943
   11SAPS  H18Y 1462   3.684   3.550   3.888
   11SAPS  H18Z 1463   3.799   3.614   3.944
   12SAPS     N 1464   2.812   3.314   2.159
   12SAPS   HN1 1465   2.790   3.363   2.070
   12SAPS   HN2 1466   2.908   3.337   2.191
   12SAPS   HN3 1467   2.797   3.211   2.152
   12SAPS   C12 1468   2.710   3.358   2.263
   12SAPS  H12A 1469   2.735   3.308   2.354
   12SAPS   C13 1470   2.707   3.505   2.301
   12SAPS  O13A 1471   2.783   3.575   2.233
   12SAPS  O13B 1472   2.613   3.553   2.369
   12SAPS   C11 1473   2.567   3.324   2.211
   12SAPS  H11A 1474   2.536   3.398   2.133
   12SAPS  H11B 1475   2.497   3.340   2.296
   12SAPS     P 1476   2.578   3.067   2.252
   12SAPS   O13 1477   2.491   2.965   2.194
   12SAPS   O14 1478   2.724   3.044   2.263
   12SAPS   O12 1479   2.560   3.193   2.155
   12SAPS   O11 1480   2.516   3.119   2.384
   12SAPS    C1 1481   2.434   3.042   2.471
   12SAPS    HA 1482   2.339   3.015   2.421
   12SAPS    HB 1483   2.486   2.947   2.501
   12SAPS    C2 1484   2.409   3.137   2.589
   12SAPS    HS 1485   2.366   3.232   2.554
   12SAPS   O21 1486   2.535   3.148   2.656
   12SAPS   C21 1487   2.599   3.257   2.627
   12SAPS   O22 1488   2.560   3.348   2.558
   12SAPS   C22 1489   2.722   3.264   2.710
   12SAPS   H2R 1490   2.788   3.179   2.682
   12SAPS   H2S 1491   2.775   3.360   2.691
   12SAPS    C3 1492   2.307   3.100   2.692
   12SAPS    HX 1493   2.312   2.998   2.672
   12SAPS    HY 1494   2.197   3.089   2.674
   12SAPS   O31 1495   2.363   3.128   2.827
   12SAPS   C31 1496   2.286   3.207   2.882
   12SAPS   O32 1497   2.186   3.246   2.834
   12SAPS   C32 1498   2.318   3.254   3.015
   12SAPS   H2X 1499   2.423   3.231   3.035
   12SAPS   H2Y 1500   2.240   3.220   3.086
   12SAPS   C23 1501   2.684   3.266   2.858
   12SAPS   H3R 1502   2.611   3.182   2.868
   12SAPS   H3S 1503   2.631   3.349   2.901
   12SAPS   C24 1504   2.821   3.270   2.932
   12SAPS   H4R 1505   2.883   3.351   2.901
   12SAPS   H4S 1506   2.871   3.194   2.875
   12SAPS   C25 1507   2.861   3.267   3.078
   12SAPS   H5R 1508   2.771   3.327   3.121
   12SAPS   C26 1509   2.913   3.159   3.158
   12SAPS   H6R 1510   2.843   3.197   3.245
   12SAPS   C27 1511   2.951   2.966   3.140
   12SAPS   H7R 1512   2.983   2.943   3.235
   12SAPS   H7S 1513   3.017   3.003   3.078
   12SAPS   C28 1514   2.815   2.817   3.081
   12SAPS   H8R 1515   2.811   2.769   2.985
   12SAPS   C29 1516   2.665   2.799   3.134
   12SAPS   H9R 1517   2.619   2.711   3.103
   12SAPS  C210 1518   2.567   2.868   3.281
   12SAPS  H10R 1519   2.629   2.896   3.377
   12SAPS  H10S 1520   2.545   2.794   3.361
   12SAPS  C211 1521   2.500   3.013   3.313
   12SAPS  H11R 1522   2.489   3.070   3.221
   12SAPS  C212 1523   2.493   3.089   3.424
   12SAPS  H12R 1524   2.436   3.183   3.418
   12SAPS  C213 1525   2.549   3.055   3.558
   12SAPS  H13R 1526   2.589   3.143   3.609
   12SAPS  H13S 1527   2.628   2.978   3.556
   12SAPS  C214 1528   2.449   2.995   3.644
   12SAPS  H14R 1529   2.466   2.888   3.635
   12SAPS  C215 1530   2.346   3.046   3.712
   12SAPS  H15R 1531   2.271   2.978   3.756
   12SAPS  C216 1532   2.309   3.189   3.709
   12SAPS  H16R 1533   2.198   3.201   3.706
   12SAPS  H16S 1534   2.346   3.231   3.613
   12SAPS  C217 1535   2.355   3.278   3.819
   12SAPS  H17R 1536   2.318   3.244   3.919
   12SAPS  H17S 1537   2.305   3.375   3.793
   12SAPS  C218 1538   2.505   3.300   3.814
   12SAPS  H18R 1539   2.530   3.356   3.721
   12SAPS  H18S 1540   2.564   3.207   3.813
   12SAPS  C219 1541   2.545   3.386   3.931
   12SAPS  H19R 1542   2.464   3.460   3.941
   12SAPS  H19S 1543   2.642   3.434   3.904
   12SAPS  C220 1544   2.549   3.322   4.068
   12SAPS  H20R 1545   2.445   3.305   4.105
   12SAPS  H20S 1546   2.595   3.393   4.139
   12SAPS  H20T 1547   2.605   3.227   4.066
   12SAPS   C33 1548   2.309   3.402   3.017
   12SAPS   H3X 1549   2.215   3.447   2.985
   12SAPS   H3Y 1550   2.389   3.428   2.941
   12SAPS   C34 1551   2.312   3.459   3.159
   12SAPS   H4X 1552   2.214   3.456   3.210
   12SAPS   H4Y 1553   2.317   3.566   3.171
   12SAPS   C35 1554   2.448   3.441   3.221
   12SAPS   H5X 1555   2.529   3.488   3.157
   12SAPS   H5Y 1556   2.464   3.334   3.222
   12SAPS   C36 1557   2.451   3.502   3.359
   12SAPS   H6X 1558   2.353   3.496   3.409
   12SAPS   H6Y 1559   2.474   3.606   3.351
   12SAPS   C37 1560   2.575   3.486   3.442
   12SAPS   H7X 1561   2.594   3.382   3.461
   12SAPS   H7Y 1562   2.558   3.536   3.540
   12SAPS   C38 1563   2.695   3.553   3.378
   12SAPS   H8X 1564   2.671   3.660   3.367
   12SAPS   H8Y 1565   2.725   3.522   3.278
   12SAPS   C39 1566   2.813   3.550   3.470
   12SAPS   H9X 1567   2.769   3.608   3.552
   12SAPS   H9Y 1568   2.904   3.581   3.412
   12SAPS  C310 1569   2.856   3.444   3.562
   12SAPS  H10X 1570   2.778   3.434   3.641
   12SAPS  H10Y 1571   2.951   3.479   3.610
   12SAPS  C311 1572   2.875   3.330   3.469
   12SAPS  H11X 1573   2.957   3.352   3.397
   12SAPS  H11Y 1574   2.780   3.310   3.417
   12SAPS  C312 1575   2.898   3.205   3.539
   12SAPS  H12X 1576   2.929   3.133   3.460
   12SAPS  H12Y 1577   2.818   3.170   3.605
   12SAPS  C313 1578   3.003   3.226   3.631
   12SAPS  H13X 1579   3.024   3.319   3.689
   12SAPS  H13Y 1580   3.081   3.203   3.557
   12SAPS  C314 1581   3.009   3.131   3.735
   12SAPS  H14X 1582   3.118   3.140   3.737
   12SAPS  H14Y 1583   3.040   3.036   3.740
   12SAPS  C315 1584   2.900   3.083   3.828
   12SAPS  H15X 1585   2.862   2.991   3.776
   12SAPS  H15Y 1586   2.846   3.179   3.821
   12SAPS  C316 1587   2.923   3.052   3.979
   12SAPS  H16X 1588   2.933   3.151   4.030
   12SAPS  H16Y 1589   3.005   2.986   4.013
   12SAPS  C317 1590   2.811   2.990   4.041
   12SAPS  H17X 1591   2.821   2.896   3.982
   12SAPS  H17Y 1592   2.741   3.071   4.010
   12SAPS  C318 1593   2.837   2.978   4.190
   12SAPS  H18X 1594   2.743   2.939   4.234
   12SAPS  H18Y 1595   2.859   3.078   4.233
   12SAPS  H18Z 1596   2.923   2.910   4.213
   13SAPS     N 1597   5.302   3.501   2.148
   13SAPS   HN1 1598   5.377   3.452   2.094
   13SAPS   HN2 1599   5.219   3.440   2.157
   13SAPS   HN3 1600   5.282   3.594   2.109
   13SAPS   C12 1601   5.357   3.522   2.283
   13SAPS  H12A 1602   5.309   3.606   2.329
   13SAPS   C13 1603   5.327   3.410   2.377
   13SAPS  O13A 1604   5.272   3.310   2.325
   13SAPS  O13B 1605   5.405   3.410   2.475
   13SAPS   C11 1606   5.509   3.534   2.273
   13SAPS  H11A 1607   5.555   3.441   2.231
   13SAPS  H11B 1608   5.555   3.549   2.374
   13SAPS     P 1609   5.685   3.677   2.155
   13SAPS   O13 1610   5.714   3.604   2.030
   13SAPS   O14 1611   5.711   3.821   2.163
   13SAPS   O12 1612   5.535   3.647   2.190
   13SAPS   O11 1613   5.762   3.606   2.269
   13SAPS    C1 1614   5.853   3.678   2.351
   13SAPS    HA 1615   5.950   3.624   2.342
   13SAPS    HB 1616   5.881   3.779   2.317
   13SAPS    C2 1617   5.816   3.673   2.505
   13SAPS    HS 1618   5.914   3.682   2.558
   13SAPS   O21 1619   5.741   3.560   2.558
   13SAPS   C21 1620   5.801   3.451   2.530
   13SAPS   O22 1621   5.889   3.445   2.447
   13SAPS   C22 1622   5.738   3.329   2.596
   13SAPS   H2R 1623   5.631   3.354   2.587
   13SAPS   H2S 1624   5.760   3.243   2.530
   13SAPS    C3 1625   5.733   3.788   2.554
   13SAPS    HX 1626   5.646   3.803   2.486
   13SAPS    HY 1627   5.796   3.878   2.550
   13SAPS   O31 1628   5.696   3.753   2.690
   13SAPS   C31 1629   5.780   3.789   2.791
   13SAPS   O32 1630   5.887   3.841   2.769
   13SAPS   C32 1631   5.729   3.766   2.937
   13SAPS   H2X 1632   5.628   3.788   2.963
   13SAPS   H2Y 1633   5.753   3.848   3.006
   13SAPS   C23 1634   5.779   3.280   2.738
   13SAPS   H3R 1635   5.777   3.361   2.812
   13SAPS   H3S 1636   5.886   3.249   2.735
   13SAPS   C24 1637   5.699   3.154   2.780
   13SAPS   H4R 1638   5.754   3.104   2.863
   13SAPS   H4S 1639   5.704   3.081   2.696
   13SAPS   C25 1640   5.555   3.189   2.810
   13SAPS   H5R 1641   5.510   3.260   2.737
   13SAPS   C26 1642   5.475   3.154   2.912
   13SAPS   H6R 1643   5.373   3.194   2.910
   13SAPS   C27 1644   5.506   3.066   3.029
   13SAPS   H7R 1645   5.591   3.002   3.005
   13SAPS   H7S 1646   5.422   2.995   3.047
   13SAPS   C28 1647   5.539   3.149   3.151
   13SAPS   H8R 1648   5.629   3.210   3.151
   13SAPS   C29 1649   5.484   3.142   3.268
   13SAPS   H9R 1650   5.527   3.197   3.354
   13SAPS  C210 1651   5.375   3.049   3.297
   13SAPS  H10R 1652   5.365   2.957   3.364
   13SAPS  H10S 1653   5.306   3.014   3.216
   13SAPS  C211 1654   5.314   3.105   3.400
   13SAPS  H11R 1655   5.231   3.050   3.395
   13SAPS  C212 1656   5.344   3.152   3.521
   13SAPS  H12R 1657   5.255   3.196   3.530
   13SAPS  C213 1658   5.453   3.147   3.620
   13SAPS  H13R 1659   5.516   3.074   3.592
   13SAPS  H13S 1660   5.410   3.116   3.719
   13SAPS  C214 1661   5.508   3.286   3.632
   13SAPS  H14R 1662   5.544   3.323   3.536
   13SAPS  C215 1663   5.485   3.373   3.732
   13SAPS  H15R 1664   5.522   3.476   3.719
   13SAPS  C216 1665   5.400   3.349   3.853
   13SAPS  H16R 1666   5.339   3.258   3.852
   13SAPS  H16S 1667   5.331   3.433   3.879
   13SAPS  C217 1668   5.485   3.311   3.966
   13SAPS  H17R 1669   5.405   3.298   4.044
   13SAPS  H17S 1670   5.555   3.390   3.998
   13SAPS  C218 1671   5.574   3.192   3.934
   13SAPS  H18R 1672   5.644   3.199   3.849
   13SAPS  H18S 1673   5.507   3.104   3.913
   13SAPS  C219 1674   5.655   3.184   4.058
   13SAPS  H19R 1675   5.708   3.265   4.109
   13SAPS  H19S 1676   5.745   3.127   4.033
   13SAPS  C220 1677   5.538   3.167   4.151
   13SAPS  H20R 1678   5.617   3.157   4.232
   13SAPS  H20S 1679   5.473   3.085   4.107
   13SAPS  H20T 1680   5.496   3.151   4.250
   13SAPS   C33 1681   5.701   3.625   2.985
   13SAPS   H3X 1682   5.668   3.636   3.091
   13SAPS   H3Y 1683   5.801   3.586   2.990
   13SAPS   C34 1684   5.615   3.534   2.892
   13SAPS   H4X 1685   5.625   3.431   2.932
   13SAPS   H4Y 1686   5.632   3.540   2.784
   13SAPS   C35 1687   5.471   3.543   2.909
   13SAPS   H5X 1688   5.405   3.473   2.852
   13SAPS   H5Y 1689   5.437   3.636   2.881
   13SAPS   C36 1690   5.463   3.572   3.051
   13SAPS   H6X 1691   5.374   3.604   3.078
   13SAPS   H6Y 1692   5.469   3.678   3.085
   13SAPS   C37 1693   5.459   3.455   3.134
   13SAPS   H7X 1694   5.544   3.392   3.126
   13SAPS   H7Y 1695   5.392   3.369   3.110
   13SAPS   C38 1696   5.434   3.525   3.263
   13SAPS   H8X 1697   5.511   3.556   3.328
   13SAPS   H8Y 1698   5.431   3.419   3.303
   13SAPS   C39 1699   5.317   3.644   3.293
   13SAPS   H9X 1700   5.222   3.650   3.235
   13SAPS   H9Y 1701   5.369   3.728   3.254
   13SAPS  C310 1702   5.256   3.671   3.442
   13SAPS  H10X 1703   5.173   3.628   3.502
   13SAPS  H10Y 1704   5.147   3.693   3.428
   13SAPS  C311 1705   5.370   3.711   3.526
   13SAPS  H11X 1706   5.422   3.798   3.481
   13SAPS  H11Y 1707   5.449   3.637   3.535
   13SAPS  C312 1708   5.328   3.738   3.660
   13SAPS  H12X 1709   5.251   3.679   3.713
   13SAPS  H12Y 1710   5.300   3.841   3.622
   13SAPS  C313 1711   5.437   3.756   3.742
   13SAPS  H13X 1712   5.434   3.864   3.726
   13SAPS  H13Y 1713   5.533   3.752   3.688
   13SAPS  C314 1714   5.437   3.689   3.882
   13SAPS  H14X 1715   5.545   3.698   3.891
   13SAPS  H14Y 1716   5.440   3.584   3.870
   13SAPS  C315 1717   5.345   3.725   4.008
   13SAPS  H15X 1718   5.239   3.716   3.979
   13SAPS  H15Y 1719   5.357   3.827   4.052
   13SAPS  C316 1720   5.366   3.680   4.149
   13SAPS  H16X 1721   5.364   3.571   4.144
   13SAPS  H16Y 1722   5.291   3.729   4.216
   13SAPS  C317 1723   5.495   3.720   4.200
   13SAPS  H17X 1724   5.533   3.824   4.196
   13SAPS  H17Y 1725   5.565   3.648   4.148
   13SAPS  C318 1726   5.510   3.723   4.338
   13SAPS  H18X 1727   5.613   3.700   4.336
   13SAPS  H18Y 1728   5.485   3.633   4.391
   13SAPS  H18Z 1729   5.516   3.824   4.390
   14SAPS     N 1730   3.118   1.903   2.175
   14SAPS   HN1 1731   3.177   1.851   2.108
   14SAPS   HN2 1732   3.037   1.949   2.130
   14SAPS   HN3 1733   3.167   1.973   2.233
   14SAPS   C12 1734   3.066   1.803   2.276
   14SAPS  H12A 1735   3.148   1.784   2.343
   14SAPS   C13 1736   2.954   1.859   2.359
   14SAPS  O13A 1737   2.939   1.980   2.334
   14SAPS  O13B 1738   2.898   1.799   2.452
   14SAPS   C11 1739   3.012   1.678   2.204
   14SAPS  H11A 1740   2.925   1.704   2.140
   14SAPS  H11B 1741   2.973   1.606   2.280
   14SAPS     P 1742   3.228   1.541   2.181
   14SAPS   O13 1743   3.276   1.453   2.074
   14SAPS   O14 1744   3.322   1.636   2.245
   14SAPS   O12 1745   3.113   1.626   2.118
   14SAPS   O11 1746   3.147   1.464   2.292
   14SAPS    C1 1747   3.064   1.351   2.267
   14SAPS    HA 1748   2.986   1.375   2.192
   14SAPS    HB 1749   3.124   1.265   2.228
   14SAPS    C2 1750   2.993   1.297   2.393
   14SAPS    HS 1751   2.946   1.202   2.355
   14SAPS   O21 1752   2.907   1.399   2.449
   14SAPS   C21 1753   2.839   1.362   2.556
   14SAPS   O22 1754   2.827   1.242   2.584
   14SAPS   C22 1755   2.737   1.477   2.564
   14SAPS   H2R 1756   2.777   1.573   2.535
   14SAPS   H2S 1757   2.635   1.463   2.518
   14SAPS    C3 1758   3.072   1.247   2.503
   14SAPS    HX 1759   3.122   1.157   2.461
   14SAPS    HY 1760   3.027   1.197   2.591
   14SAPS   O31 1761   3.145   1.364   2.540
   14SAPS   C31 1762   3.138   1.408   2.662
   14SAPS   O32 1763   3.062   1.368   2.747
   14SAPS   C32 1764   3.249   1.509   2.681
   14SAPS   H2X 1765   3.267   1.558   2.583
   14SAPS   H2Y 1766   3.344   1.465   2.718
   14SAPS   C23 1767   2.719   1.514   2.704
   14SAPS   H3R 1768   2.789   1.460   2.773
   14SAPS   H3S 1769   2.618   1.473   2.704
   14SAPS   C24 1770   2.641   1.628   2.742
   14SAPS   H4R 1771   2.628   1.635   2.847
   14SAPS   H4S 1772   2.530   1.633   2.709
   14SAPS   C25 1773   2.730   1.732   2.765
   14SAPS   H5R 1774   2.698   1.790   2.680
   14SAPS   C26 1775   2.827   1.755   2.860
   14SAPS   H6R 1776   2.867   1.851   2.836
   14SAPS   C27 1777   2.893   1.688   2.988
   14SAPS   H7R 1778   2.997   1.663   2.972
   14SAPS   H7S 1779   2.864   1.579   2.993
   14SAPS   C28 1780   2.880   1.765   3.129
   14SAPS   H8R 1781   2.888   1.871   3.105
   14SAPS   C29 1782   2.819   1.744   3.257
   14SAPS   H9R 1783   2.779   1.833   3.308
   14SAPS  C210 1784   2.734   1.639   3.328
   14SAPS  H10R 1785   2.759   1.566   3.251
   14SAPS  H10S 1786   2.619   1.652   3.324
   14SAPS  C211 1787   2.769   1.516   3.393
   14SAPS  H11R 1788   2.871   1.491   3.372
   14SAPS  C212 1789   2.696   1.428   3.455
   14SAPS  H12R 1790   2.753   1.366   3.523
   14SAPS  C213 1791   2.552   1.428   3.480
   14SAPS  H13R 1792   2.486   1.361   3.427
   14SAPS  H13S 1793   2.517   1.531   3.480
   14SAPS  C214 1794   2.538   1.361   3.601
   14SAPS  H14R 1795   2.453   1.286   3.604
   14SAPS  C215 1796   2.577   1.438   3.706
   14SAPS  H15R 1797   2.527   1.436   3.795
   14SAPS  C216 1798   2.628   1.563   3.757
   14SAPS  H16R 1799   2.560   1.605   3.839
   14SAPS  H16S 1800   2.625   1.636   3.681
   14SAPS  C217 1801   2.721   1.546   3.867
   14SAPS  H17R 1802   2.679   1.544   3.968
   14SAPS  H17S 1803   2.751   1.647   3.890
   14SAPS  C218 1804   2.827   1.453   3.817
   14SAPS  H18R 1805   2.912   1.477   3.879
   14SAPS  H18S 1806   2.838   1.490   3.713
   14SAPS  C219 1807   2.818   1.302   3.804
   14SAPS  H19R 1808   2.918   1.258   3.824
   14SAPS  H19S 1809   2.766   1.261   3.714
   14SAPS  C220 1810   2.750   1.226   3.900
   14SAPS  H20R 1811   2.753   1.127   3.867
   14SAPS  H20S 1812   2.645   1.237   3.913
   14SAPS  H20T 1813   2.798   1.224   3.995
   14SAPS   C33 1814   3.199   1.603   2.786
   14SAPS   H3X 1815   3.199   1.555   2.887
   14SAPS   H3Y 1816   3.094   1.634   2.761
   14SAPS   C34 1817   3.284   1.726   2.787
   14SAPS   H4X 1818   3.280   1.772   2.685
   14SAPS   H4Y 1819   3.392   1.705   2.807
   14SAPS   C35 1820   3.214   1.823   2.878
   14SAPS   H5X 1821   3.107   1.811   2.890
   14SAPS   H5Y 1822   3.209   1.912   2.811
   14SAPS   C36 1823   3.275   1.836   3.020
   14SAPS   H6X 1824   3.235   1.930   3.066
   14SAPS   H6Y 1825   3.387   1.836   3.016
   14SAPS   C37 1826   3.251   1.731   3.121
   14SAPS   H7X 1827   3.284   1.638   3.070
   14SAPS   H7Y 1828   3.142   1.735   3.138
   14SAPS   C38 1829   3.336   1.752   3.247
   14SAPS   H8X 1830   3.385   1.852   3.253
   14SAPS   H8Y 1831   3.417   1.676   3.246
   14SAPS   C39 1832   3.254   1.734   3.374
   14SAPS   H9X 1833   3.325   1.718   3.457
   14SAPS   H9Y 1834   3.185   1.647   3.366
   14SAPS  C310 1835   3.170   1.858   3.400
   14SAPS  H10X 1836   3.103   1.875   3.313
   14SAPS  H10Y 1837   3.238   1.946   3.410
   14SAPS  C311 1838   3.094   1.848   3.531
   14SAPS  H11X 1839   3.172   1.848   3.612
   14SAPS  H11Y 1840   3.035   1.753   3.536
   14SAPS  C312 1841   2.998   1.965   3.545
   14SAPS  H12X 1842   2.937   1.965   3.452
   14SAPS  H12Y 1843   3.055   2.061   3.553
   14SAPS  C313 1844   2.899   1.953   3.660
   14SAPS  H13X 1845   2.844   1.857   3.647
   14SAPS  H13Y 1846   2.829   2.040   3.653
   14SAPS  C314 1847   2.960   1.966   3.798
   14SAPS  H14X 1848   2.894   2.030   3.860
   14SAPS  H14Y 1849   3.061   2.014   3.789
   14SAPS  C315 1850   2.977   1.834   3.867
   14SAPS  H15X 1851   3.038   1.766   3.804
   14SAPS  H15Y 1852   2.881   1.781   3.884
   14SAPS  C316 1853   3.049   1.859   3.996
   14SAPS  H16X 1854   2.998   1.931   4.065
   14SAPS  H16Y 1855   3.155   1.886   3.987
   14SAPS  C317 1856   3.075   1.731   4.050
   14SAPS  H17X 1857   2.968   1.694   4.068
   14SAPS  H17Y 1858   3.138   1.753   4.139
   14SAPS  C318 1859   3.163   1.634   3.978
   14SAPS  H18X 1860   3.264   1.652   3.966
   14SAPS  H18Y 1861   3.101   1.556   3.925
   14SAPS  H18Z 1862   3.222   1.573   4.052
   15SAPS     N 1863   4.600   5.811   2.111
   15SAPS   HN1 1864   4.524   5.803   2.041
   15SAPS   HN2 1865   4.565   5.832   2.207
   15SAPS   HN3 1866   4.665   5.885   2.079
   15SAPS   C12 1867   4.685   5.688   2.121
   15SAPS  H12A 1868   4.621   5.603   2.131
   15SAPS   C13 1869   4.766   5.662   1.992
   15SAPS  O13A 1870   4.771   5.755   1.907
   15SAPS  O13B 1871   4.842   5.563   1.989
   15SAPS   C11 1872   4.781   5.711   2.244
   15SAPS  H11A 1873   4.822   5.815   2.245
   15SAPS  H11B 1874   4.873   5.648   2.234
   15SAPS     P 1875   4.650   5.771   2.474
   15SAPS   O13 1876   4.606   5.893   2.401
   15SAPS   O14 1877   4.552   5.698   2.556
   15SAPS   O12 1878   4.716   5.677   2.366
   15SAPS   O11 1879   4.772   5.803   2.560
   15SAPS    C1 1880   4.882   5.868   2.504
   15SAPS    HA 1881   4.959   5.796   2.470
   15SAPS    HB 1882   4.860   5.949   2.430
   15SAPS    C2 1883   4.935   5.946   2.613
   15SAPS    HS 1884   5.041   5.957   2.582
   15SAPS   O21 1885   4.941   5.868   2.730
   15SAPS   C21 1886   5.007   5.760   2.731
   15SAPS   O22 1887   5.096   5.728   2.653
   15SAPS   C22 1888   4.983   5.699   2.864
   15SAPS   H2R 1889   5.086   5.705   2.905
   15SAPS   H2S 1890   4.905   5.756   2.922
   15SAPS    C3 1891   4.837   6.080   2.626
   15SAPS    HX 1892   4.861   6.150   2.545
   15SAPS    HY 1893   4.853   6.147   2.708
   15SAPS   O31 1894   4.698   6.061   2.638
   15SAPS   C31 1895   4.638   6.096   2.752
   15SAPS   O32 1896   4.671   6.176   2.835
   15SAPS   C32 1897   4.536   6.002   2.785
   15SAPS   H2X 1898   4.508   5.966   2.685
   15SAPS   H2Y 1899   4.468   6.074   2.831
   15SAPS   C23 1900   4.932   5.563   2.884
   15SAPS   H3R 1901   4.981   5.503   2.806
   15SAPS   H3S 1902   4.823   5.579   2.873
   15SAPS   C24 1903   4.945   5.516   3.024
   15SAPS   H4R 1904   4.882   5.431   3.048
   15SAPS   H4S 1905   4.920   5.601   3.097
   15SAPS   C25 1906   5.077   5.461   3.011
   15SAPS   H5R 1907   5.124   5.370   2.975
   15SAPS   C26 1908   5.108   5.491   3.123
   15SAPS   H6R 1909   5.236   5.467   3.106
   15SAPS   C27 1910   5.033   5.588   3.290
   15SAPS   H7R 1911   4.974   5.674   3.287
   15SAPS   H7S 1912   5.110   5.666   3.348
   15SAPS   C28 1913   5.015   5.581   3.456
   15SAPS   H8R 1914   5.046   5.497   3.519
   15SAPS   C29 1915   5.013   5.663   3.568
   15SAPS   H9R 1916   5.056   5.619   3.665
   15SAPS  C210 1917   5.026   5.805   3.575
   15SAPS  H10R 1918   4.972   5.836   3.486
   15SAPS  H10S 1919   5.131   5.840   3.582
   15SAPS  C211 1920   4.943   5.822   3.696
   15SAPS  H11R 1921   4.882   5.741   3.739
   15SAPS  C212 1922   4.922   5.939   3.743
   15SAPS  H12R 1923   4.866   5.950   3.834
   15SAPS  C213 1924   4.978   6.057   3.682
   15SAPS  H13R 1925   4.955   6.072   3.575
   15SAPS  H13S 1926   5.081   6.046   3.687
   15SAPS  C214 1927   4.941   6.169   3.766
   15SAPS  H14R 1928   4.877   6.233   3.711
   15SAPS  C215 1929   4.983   6.215   3.885
   15SAPS  H15R 1930   4.954   6.314   3.907
   15SAPS  C216 1931   5.082   6.179   3.985
   15SAPS  H16R 1932   5.161   6.255   4.013
   15SAPS  H16S 1933   5.111   6.118   3.901
   15SAPS  C217 1934   5.091   6.063   4.076
   15SAPS  H17R 1935   5.065   5.976   4.010
   15SAPS  H17S 1936   5.019   6.110   4.142
   15SAPS  C218 1937   5.213   6.031   4.162
   15SAPS  H18R 1938   5.264   6.118   4.207
   15SAPS  H18S 1939   5.284   5.975   4.103
   15SAPS  C219 1940   5.189   5.913   4.248
   15SAPS  H19R 1941   5.091   5.937   4.291
   15SAPS  H19S 1942   5.268   5.902   4.323
   15SAPS  C220 1943   5.188   5.787   4.161
   15SAPS  H20R 1944   5.289   5.758   4.127
   15SAPS  H20S 1945   5.125   5.801   4.071
   15SAPS  H20T 1946   5.147   5.705   4.217
   15SAPS   C33 1947   4.574   5.883   2.879
   15SAPS   H3X 1948   4.665   5.834   2.839
   15SAPS   H3Y 1949   4.492   5.810   2.862
   15SAPS   C34 1950   4.589   5.910   3.032
   15SAPS   H4X 1951   4.492   5.929   3.081
   15SAPS   H4Y 1952   4.646   6.003   3.047
   15SAPS   C35 1953   4.656   5.793   3.108
   15SAPS   H5X 1954   4.747   5.767   3.050
   15SAPS   H5Y 1955   4.590   5.703   3.107
   15SAPS   C36 1956   4.700   5.821   3.253
   15SAPS   H6X 1957   4.740   5.924   3.262
   15SAPS   H6Y 1958   4.786   5.753   3.274
   15SAPS   C37 1959   4.592   5.793   3.358
   15SAPS   H7X 1960   4.499   5.847   3.330
   15SAPS   H7Y 1961   4.626   5.833   3.457
   15SAPS   C38 1962   4.560   5.645   3.380
   15SAPS   H8X 1963   4.578   5.589   3.286
   15SAPS   H8Y 1964   4.453   5.631   3.408
   15SAPS   C39 1965   4.641   5.587   3.495
   15SAPS   H9X 1966   4.611   5.634   3.591
   15SAPS   H9Y 1967   4.747   5.614   3.476
   15SAPS  C310 1968   4.628   5.435   3.504
   15SAPS  H10X 1969   4.681   5.389   3.417
   15SAPS  H10Y 1970   4.524   5.399   3.512
   15SAPS  C311 1971   4.691   5.377   3.624
   15SAPS  H11X 1972   4.686   5.265   3.626
   15SAPS  H11Y 1973   4.650   5.418   3.720
   15SAPS  C312 1974   4.830   5.415   3.620
   15SAPS  H12X 1975   4.850   5.520   3.619
   15SAPS  H12Y 1976   4.890   5.356   3.542
   15SAPS  C313 1977   4.867   5.401   3.761
   15SAPS  H13X 1978   4.966   5.397   3.711
   15SAPS  H13Y 1979   4.820   5.304   3.785
   15SAPS  C314 1980   4.890   5.492   3.892
   15SAPS  H14X 1981   4.786   5.499   3.923
   15SAPS  H14Y 1982   4.963   5.574   3.873
   15SAPS  C315 1983   4.944   5.440   4.033
   15SAPS  H15X 1984   5.048   5.457   4.011
   15SAPS  H15Y 1985   4.926   5.337   4.073
   15SAPS  C316 1986   4.980   5.510   4.154
   15SAPS  H16X 1987   5.019   5.607   4.119
   15SAPS  H16Y 1988   5.063   5.447   4.203
   15SAPS  C317 1989   4.848   5.500   4.220
   15SAPS  H17X 1990   4.767   5.515   4.144
   15SAPS  H17Y 1991   4.847   5.585   4.288
   15SAPS  C318 1992   4.824   5.367   4.292
   15SAPS  H18X 1993   4.796   5.283   4.223
   15SAPS  H18Y 1994   4.740   5.384   4.363
   15SAPS  H18Z 1995   4.913   5.331   4.344
   16SAPS     N 1996   5.840   4.543   2.134
   16SAPS   HN1 1997   5.842   4.441   2.156
   16SAPS   HN2 1998   5.773   4.564   2.059
   16SAPS   HN3 1999   5.936   4.572   2.109
   16SAPS   C12 2000   5.799   4.609   2.265
   16SAPS  H12A 2001   5.708   4.563   2.299
   16SAPS   C13 2002   5.900   4.586   2.377
   16SAPS  O13A 2003   6.005   4.524   2.348
   16SAPS  O13B 2004   5.880   4.640   2.489
   16SAPS   C11 2005   5.770   4.760   2.249
   16SAPS  H11A 2006   5.860   4.809   2.205
   16SAPS  H11B 2007   5.755   4.806   2.350
   16SAPS     P 2008   5.566   4.909   2.172
   16SAPS   O13 2009   5.656   5.023   2.149
   16SAPS   O14 2010   5.447   4.891   2.084
   16SAPS   O12 2011   5.653   4.775   2.166
   16SAPS   O11 2012   5.509   4.912   2.322
   16SAPS    C1 2013   5.453   4.793   2.378
   16SAPS    HA 2014   5.350   4.777   2.342
   16SAPS    HB 2015   5.511   4.703   2.350
   16SAPS    C2 2016   5.451   4.793   2.533
   16SAPS    HS 2017   5.385   4.879   2.563
   16SAPS   O21 2018   5.584   4.807   2.576
   16SAPS   C21 2019   5.598   4.888   2.674
   16SAPS   O22 2020   5.509   4.954   2.727
   16SAPS   C22 2021   5.742   4.886   2.713
   16SAPS   H2R 2022   5.792   4.790   2.704
   16SAPS   H2S 2023   5.797   4.951   2.640
   16SAPS    C3 2024   5.397   4.661   2.593
   16SAPS    HX 2025   5.456   4.577   2.552
   16SAPS    HY 2026   5.292   4.649   2.559
   16SAPS   O31 2027   5.418   4.650   2.736
   16SAPS   C31 2028   5.313   4.697   2.801
   16SAPS   O32 2029   5.211   4.729   2.743
   16SAPS   C32 2030   5.329   4.654   2.946
   16SAPS   H2X 2031   5.431   4.618   2.965
   16SAPS   H2Y 2032   5.259   4.570   2.962
   16SAPS   C23 2033   5.752   4.922   2.860
   16SAPS   H3R 2034   5.698   4.882   2.945
   16SAPS   H3S 2035   5.682   5.009   2.864
   16SAPS   C24 2036   5.901   4.931   2.899
   16SAPS   H4R 2037   5.909   4.977   3.001
   16SAPS   H4S 2038   5.957   4.994   2.826
   16SAPS   C25 2039   5.994   4.823   2.897
   16SAPS   H5R 2040   6.057   4.823   2.805
   16SAPS   C26 2041   6.005   4.751   3.008
   16SAPS   H6R 2042   6.068   4.664   2.997
   16SAPS   C27 2043   5.927   4.774   3.138
   16SAPS   H7R 2044   5.918   4.882   3.168
   16SAPS   H7S 2045   5.987   4.734   3.221
   16SAPS   C28 2046   5.788   4.711   3.142
   16SAPS   H8R 2047   5.760   4.658   3.051
   16SAPS   C29 2048   5.698   4.709   3.243
   16SAPS   H9R 2049   5.597   4.668   3.228
   16SAPS  C210 2050   5.717   4.771   3.376
   16SAPS  H10R 2051   5.821   4.763   3.412
   16SAPS  H10S 2052   5.645   4.742   3.457
   16SAPS  C211 2053   5.695   4.910   3.353
   16SAPS  H11R 2054   5.647   4.955   3.262
   16SAPS  C212 2055   5.730   4.987   3.446
   16SAPS  H12R 2056   5.667   5.066   3.412
   16SAPS  C213 2057   5.792   4.984   3.587
   16SAPS  H13R 2058   5.743   4.906   3.646
   16SAPS  H13S 2059   5.767   5.066   3.655
   16SAPS  C214 2060   5.942   4.996   3.587
   16SAPS  H14R 2061   5.987   5.040   3.497
   16SAPS  C215 2062   6.022   4.979   3.692
   16SAPS  H15R 2063   6.130   4.981   3.672
   16SAPS  C216 2064   5.982   4.942   3.832
   16SAPS  H16R 2065   5.872   4.936   3.851
   16SAPS  H16S 2066   6.025   5.014   3.904
   16SAPS  C217 2067   6.039   4.807   3.861
   16SAPS  H17R 2068   6.031   4.786   3.970
   16SAPS  H17S 2069   6.147   4.798   3.832
   16SAPS  C218 2070   5.965   4.706   3.778
   16SAPS  H18R 2071   5.949   4.716   3.671
   16SAPS  H18S 2072   5.863   4.687   3.826
   16SAPS  C219 2073   6.062   4.596   3.753
   16SAPS  H19R 2074   6.174   4.588   3.764
   16SAPS  H19S 2075   6.011   4.514   3.697
   16SAPS  C220 2076   6.069   4.549   3.875
   16SAPS  H20R 2077   6.125   4.583   3.965
   16SAPS  H20S 2078   6.092   4.444   3.840
   16SAPS  H20T 2079   5.967   4.558   3.909
   16SAPS   C33 2080   5.305   4.752   3.057
   16SAPS   H3X 2081   5.205   4.793   3.038
   16SAPS   H3Y 2082   5.370   4.841   3.058
   16SAPS   C34 2083   5.319   4.671   3.188
   16SAPS   H4X 2084   5.379   4.584   3.184
   16SAPS   H4Y 2085   5.240   4.605   3.211
   16SAPS   C35 2086   5.333   4.762   3.303
   16SAPS   H5X 2087   5.240   4.820   3.296
   16SAPS   H5Y 2088   5.417   4.814   3.260
   16SAPS   C36 2089   5.367   4.715   3.445
   16SAPS   H6X 2090   5.448   4.645   3.442
   16SAPS   H6Y 2091   5.321   4.623   3.464
   16SAPS   C37 2092   5.334   4.804   3.568
   16SAPS   H7X 2093   5.222   4.838   3.573
   16SAPS   H7Y 2094   5.399   4.889   3.554
   16SAPS   C38 2095   5.379   4.755   3.701
   16SAPS   H8X 2096   5.411   4.650   3.708
   16SAPS   H8Y 2097   5.272   4.768   3.733
   16SAPS   C39 2098   5.414   4.824   3.820
   16SAPS   H9X 2099   5.342   4.912   3.812
   16SAPS   H9Y 2100   5.509   4.865   3.805
   16SAPS  C310 2101   5.425   4.721   3.940
   16SAPS  H10X 2102   5.460   4.618   3.928
   16SAPS  H10Y 2103   5.339   4.677   3.984
   16SAPS  C311 2104   5.453   4.790   4.069
   16SAPS  H11X 2105   5.409   4.892   4.068
   16SAPS  H11Y 2106   5.562   4.792   4.054
   16SAPS  C312 2107   5.397   4.718   4.192
   16SAPS  H12X 2108   5.288   4.734   4.207
   16SAPS  H12Y 2109   5.448   4.770   4.276
   16SAPS  C313 2110   5.416   4.564   4.187
   16SAPS  H13X 2111   5.359   4.508   4.115
   16SAPS  H13Y 2112   5.372   4.512   4.272
   16SAPS  C314 2113   5.561   4.523   4.166
   16SAPS  H14X 2114   5.633   4.607   4.175
   16SAPS  H14Y 2115   5.555   4.500   4.061
   16SAPS  C315 2116   5.600   4.390   4.231
   16SAPS  H15X 2117   5.563   4.290   4.211
   16SAPS  H15Y 2118   5.535   4.390   4.312
   16SAPS  C316 2119   5.749   4.376   4.265
   16SAPS  H16X 2120   5.817   4.366   4.190
   16SAPS  H16Y 2121   5.778   4.269   4.282
   16SAPS  C317 2122   5.798   4.508   4.324
   16SAPS  H17X 2123   5.776   4.610   4.302
   16SAPS  H17Y 2124   5.888   4.546   4.318
   16SAPS  C318 2125   5.900   4.503   4.410
   16SAPS  H18X 2126   5.942   4.539   4.497
   16SAPS  H18Y 2127   5.972   4.411   4.406
   16SAPS  H18Z 2128   5.848   4.536   4.497
   17SAPS     N 2129   2.089   5.703   2.244
   17SAPS   HN1 2130   2.161   5.771   2.210
   17SAPS   HN2 2131   2.072   5.704   2.346
   17SAPS   HN3 2132   2.111   5.608   2.209
   17SAPS   C12 2133   1.964   5.745   2.177
   17SAPS  H12A 2134   1.944   5.847   2.207
   17SAPS   C13 2135   1.977   5.739   2.022
   17SAPS  O13A 2136   2.077   5.678   1.972
   17SAPS  O13B 2137   1.886   5.791   1.953
   17SAPS   C11 2138   1.845   5.658   2.226
   17SAPS  H11A 2139   1.851   5.558   2.178
   17SAPS  H11B 2140   1.755   5.711   2.188
   17SAPS     P 2141   1.740   5.532   2.428
   17SAPS   O13 2142   1.668   5.590   2.543
   17SAPS   O14 2143   1.659   5.474   2.318
   17SAPS   O12 2144   1.841   5.644   2.370
   17SAPS   O11 2145   1.839   5.425   2.485
   17SAPS    C1 2146   1.976   5.436   2.487
   17SAPS    HA 2147   2.020   5.423   2.386
   17SAPS    HB 2148   2.000   5.537   2.525
   17SAPS    C2 2149   2.041   5.336   2.582
   17SAPS    HS 2150   2.048   5.232   2.540
   17SAPS   O21 2151   1.987   5.337   2.716
   17SAPS   C21 2152   1.885   5.262   2.735
   17SAPS   O22 2153   1.860   5.163   2.670
   17SAPS   C22 2154   1.802   5.300   2.856
   17SAPS   H2R 2155   1.699   5.317   2.820
   17SAPS   H2S 2156   1.797   5.213   2.925
   17SAPS    C3 2157   2.176   5.389   2.586
   17SAPS    HX 2158   2.230   5.411   2.492
   17SAPS    HY 2159   2.234   5.302   2.625
   17SAPS   O31 2160   2.164   5.502   2.679
   17SAPS   C31 2161   2.213   5.614   2.646
   17SAPS   O32 2162   2.269   5.637   2.539
   17SAPS   C32 2163   2.157   5.720   2.741
   17SAPS   H2X 2164   2.212   5.815   2.742
   17SAPS   H2Y 2165   2.158   5.686   2.846
   17SAPS   C23 2166   1.862   5.421   2.928
   17SAPS   H3R 2167   1.901   5.496   2.855
   17SAPS   H3S 2168   1.947   5.378   2.987
   17SAPS   C24 2169   1.764   5.495   3.019
   17SAPS   H4R 2170   1.688   5.422   3.052
   17SAPS   H4S 2171   1.710   5.572   2.958
   17SAPS   C25 2172   1.837   5.563   3.132
   17SAPS   H5R 2173   1.909   5.641   3.105
   17SAPS   C26 2174   1.826   5.535   3.262
   17SAPS   H6R 2175   1.887   5.594   3.332
   17SAPS   C27 2176   1.737   5.429   3.322
   17SAPS   H7R 2177   1.663   5.393   3.248
   17SAPS   H7S 2178   1.672   5.469   3.403
   17SAPS   C28 2179   1.830   5.319   3.368
   17SAPS   H8R 2180   1.896   5.281   3.289
   17SAPS   C29 2181   1.843   5.266   3.491
   17SAPS   H9R 2182   1.915   5.184   3.510
   17SAPS  C210 2183   1.768   5.302   3.614
   17SAPS  H10R 2184   1.704   5.391   3.596
   17SAPS  H10S 2185   1.834   5.322   3.702
   17SAPS  C211 2186   1.693   5.173   3.626
   17SAPS  H11R 2187   1.608   5.164   3.561
   17SAPS  C212 2188   1.675   5.101   3.738
   17SAPS  H12R 2189   1.577   5.051   3.754
   17SAPS  C213 2190   1.723   5.129   3.879
   17SAPS  H13R 2191   1.658   5.115   3.970
   17SAPS  H13S 2192   1.798   5.206   3.897
   17SAPS  C214 2193   1.799   5.024   3.829
   17SAPS  H14R 2194   1.720   4.944   3.867
   17SAPS  C215 2195   1.909   4.992   3.889
   17SAPS  H15R 2196   1.963   4.899   3.854
   17SAPS  C216 2197   1.979   5.034   4.016
   17SAPS  H16R 2198   1.963   5.126   3.971
   17SAPS  H16S 2199   2.037   4.939   4.002
   17SAPS  C217 2200   2.007   5.045   4.170
   17SAPS  H17R 2201   1.926   5.102   4.213
   17SAPS  H17S 2202   2.090   5.120   4.177
   17SAPS  C218 2203   2.056   4.913   4.242
   17SAPS  H18R 2204   2.127   4.845   4.190
   17SAPS  H18S 2205   1.975   4.842   4.259
   17SAPS  C219 2206   2.134   4.950   4.367
   17SAPS  H19R 2207   2.061   4.989   4.440
   17SAPS  H19S 2208   2.198   5.037   4.338
   17SAPS  C220 2209   2.217   4.836   4.426
   17SAPS  H20R 2210   2.295   4.798   4.355
   17SAPS  H20S 2211   2.150   4.751   4.450
   17SAPS  H20T 2212   2.268   4.868   4.519
   17SAPS   C33 2213   2.017   5.744   2.683
   17SAPS   H3X 2214   1.957   5.652   2.701
   17SAPS   H3Y 2215   2.021   5.759   2.573
   17SAPS   C34 2216   1.945   5.863   2.743
   17SAPS   H4X 2217   1.849   5.879   2.688
   17SAPS   H4Y 2218   2.005   5.955   2.729
   17SAPS   C35 2219   1.915   5.843   2.893
   17SAPS   H5X 2220   2.004   5.811   2.951
   17SAPS   H5Y 2221   1.844   5.757   2.897
   17SAPS   C36 2222   1.853   5.972   2.947
   17SAPS   H6X 2223   1.781   6.002   2.868
   17SAPS   H6Y 2224   1.926   6.055   2.954
   17SAPS   C37 2225   1.766   5.960   3.073
   17SAPS   H7X 2226   1.697   5.875   3.056
   17SAPS   H7Y 2227   1.705   6.053   3.083
   17SAPS   C38 2228   1.838   5.939   3.206
   17SAPS   H8X 2229   1.886   6.032   3.235
   17SAPS   H8Y 2230   1.919   5.863   3.196
   17SAPS   C39 2231   1.739   5.905   3.317
   17SAPS   H9X 2232   1.678   5.819   3.284
   17SAPS   H9Y 2233   1.670   5.991   3.334
   17SAPS  C310 2234   1.806   5.879   3.451
   17SAPS  H10X 2235   1.875   5.963   3.473
   17SAPS  H10Y 2236   1.864   5.783   3.447
   17SAPS  C311 2237   1.705   5.856   3.562
   17SAPS  H11X 2238   1.618   5.925   3.553
   17SAPS  H11Y 2239   1.756   5.875   3.659
   17SAPS  C312 2240   1.659   5.710   3.551
   17SAPS  H12X 2241   1.751   5.650   3.570
   17SAPS  H12Y 2242   1.631   5.686   3.447
   17SAPS  C313 2243   1.542   5.679   3.641
   17SAPS  H13X 2244   1.499   5.575   3.632
   17SAPS  H13Y 2245   1.459   5.751   3.629
   17SAPS  C314 2246   1.588   5.698   3.780
   17SAPS  H14X 2247   1.500   5.681   3.846
   17SAPS  H14Y 2248   1.632   5.794   3.813
   17SAPS  C315 2249   1.708   5.619   3.809
   17SAPS  H15X 2250   1.803   5.604   3.752
   17SAPS  H15Y 2251   1.677   5.517   3.764
   17SAPS  C316 2252   1.715   5.661   3.970
   17SAPS  H16X 2253   1.781   5.741   3.998
   17SAPS  H16Y 2254   1.807   5.595   3.962
   17SAPS  C317 2255   1.585   5.633   4.104
   17SAPS  H17X 2256   1.521   5.718   4.089
   17SAPS  H17Y 2257   1.626   5.634   4.207
   17SAPS  C318 2258   1.475   5.501   4.140
   17SAPS  H18X 2259   1.431   5.486   4.049
   17SAPS  H18Y 2260   1.413   5.474   4.227
   17SAPS  H18Z 2261   1.502   5.389   4.127
   18SAPS     N 2262   7.005   4.025   2.107
   18SAPS   HN1 2263   7.075   4.056   2.177
   18SAPS   HN2 2264   7.050   3.968   2.032
   18SAPS   HN3 2265   6.947   4.103   2.071
   18SAPS   C12 2266   6.914   3.933   2.182
   18SAPS  H12A 2267   6.838   3.899   2.113
   18SAPS   C13 2268   6.980   3.805   2.239
   18SAPS  O13A 2269   7.102   3.786   2.212
   18SAPS  O13B 2270   6.906   3.714   2.283
   18SAPS   C11 2271   6.851   4.016   2.296
   18SAPS  H11A 2272   6.821   4.116   2.258
   18SAPS  H11B 2273   6.923   4.034   2.378
   18SAPS     P 2274   6.604   3.934   2.274
   18SAPS   O13 2275   6.604   4.028   2.161
   18SAPS   O14 2276   6.569   3.794   2.243
   18SAPS   O12 2277   6.741   3.945   2.352
   18SAPS   O11 2278   6.506   3.995   2.380
   18SAPS    C1 2279   6.442   3.916   2.478
   18SAPS    HA 2280   6.339   3.955   2.484
   18SAPS    HB 2281   6.435   3.807   2.451
   18SAPS    C2 2282   6.513   3.930   2.615
   18SAPS    HS 2283   6.515   4.039   2.641
   18SAPS   O21 2284   6.647   3.877   2.606
   18SAPS   C21 2285   6.736   3.931   2.687
   18SAPS   O22 2286   6.713   4.012   2.775
   18SAPS   C22 2287   6.876   3.878   2.656
   18SAPS   H2R 2288   6.872   3.816   2.563
   18SAPS   H2S 2289   6.936   3.968   2.635
   18SAPS    C3 2290   6.430   3.853   2.718
   18SAPS    HX 2291   6.403   3.755   2.673
   18SAPS    HY 2292   6.336   3.911   2.735
   18SAPS   O31 2293   6.500   3.837   2.842
   18SAPS   C31 2294   6.560   3.720   2.860
   18SAPS   O32 2295   6.557   3.622   2.788
   18SAPS   C32 2296   6.601   3.716   3.006
   18SAPS   H2X 2297   6.511   3.749   3.062
   18SAPS   H2Y 2298   6.660   3.803   3.031
   18SAPS   C23 2299   6.942   3.796   2.769
   18SAPS   H3R 2300   6.906   3.691   2.758
   18SAPS   H3S 2301   6.912   3.833   2.869
   18SAPS   C24 2302   7.097   3.799   2.758
   18SAPS   H4R 2303   7.134   3.902   2.737
   18SAPS   H4S 2304   7.119   3.743   2.664
   18SAPS   C25 2305   7.180   3.731   2.863
   18SAPS   H5R 2306   7.231   3.643   2.826
   18SAPS   C26 2307   7.196   3.749   2.994
   18SAPS   H6R 2308   7.271   3.694   3.051
   18SAPS   C27 2309   7.133   3.846   3.081
   18SAPS   H7R 2310   7.097   3.803   3.178
   18SAPS   H7S 2311   7.046   3.899   3.032
   18SAPS   C28 2312   7.249   3.929   3.114
   18SAPS   H8R 2313   7.359   3.934   3.094
   18SAPS   C29 2314   7.201   4.018   3.186
   18SAPS   H9R 2315   7.283   4.095   3.191
   18SAPS  C210 2316   7.046   4.040   3.232
   18SAPS  H10R 2317   6.951   4.002   3.184
   18SAPS  H10S 2318   7.058   4.086   3.118
   18SAPS  C211 2319   6.996   4.134   3.375
   18SAPS  H11R 2320   7.044   4.225   3.415
   18SAPS  C212 2321   6.907   4.155   3.465
   18SAPS  H12R 2322   6.941   4.201   3.564
   18SAPS  C213 2323   6.810   4.055   3.432
   18SAPS  H13R 2324   6.758   4.092   3.340
   18SAPS  H13S 2325   6.756   4.071   3.523
   18SAPS  C214 2326   6.861   3.911   3.414
   18SAPS  H14R 2327   6.886   3.882   3.310
   18SAPS  C215 2328   6.906   3.836   3.511
   18SAPS  H15R 2329   6.926   3.732   3.487
   18SAPS  C216 2330   6.916   3.870   3.656
   18SAPS  H16R 2331   6.834   3.815   3.706
   18SAPS  H16S 2332   6.911   3.977   3.688
   18SAPS  C217 2333   7.052   3.823   3.698
   18SAPS  H17R 2334   7.129   3.899   3.671
   18SAPS  H17S 2335   7.078   3.723   3.656
   18SAPS  C218 2336   7.057   3.813   3.845
   18SAPS  H18R 2337   6.957   3.789   3.891
   18SAPS  H18S 2338   7.087   3.910   3.892
   18SAPS  C219 2339   7.166   3.709   3.882
   18SAPS  H19R 2340   7.260   3.708   3.829
   18SAPS  H19S 2341   7.126   3.604   3.892
   18SAPS  C220 2342   7.229   3.748   4.007
   18SAPS  H20R 2343   7.266   3.666   4.073
   18SAPS  H20S 2344   7.123   3.755   4.016
   18SAPS  H20T 2345   7.239   3.846   4.057
   18SAPS   C33 2346   6.663   3.577   3.046
   18SAPS   H3X 2347   6.759   3.568   2.992
   18SAPS   H3Y 2348   6.599   3.490   3.013
   18SAPS   C34 2349   6.694   3.562   3.197
   18SAPS   H4X 2350   6.688   3.664   3.242
   18SAPS   H4Y 2351   6.787   3.510   3.220
   18SAPS   C35 2352   6.616   3.462   3.279
   18SAPS   H5X 2353   6.575   3.369   3.234
   18SAPS   H5Y 2354   6.530   3.485   3.227
   18SAPS   C36 2355   6.603   3.493   3.435
   18SAPS   H6X 2356   6.662   3.429   3.497
   18SAPS   H6Y 2357   6.524   3.416   3.456
   18SAPS   C37 2358   6.575   3.649   3.490
   18SAPS   H7X 2359   6.491   3.719   3.453
   18SAPS   H7Y 2360   6.654   3.709   3.448
   18SAPS   C38 2361   6.535   3.665   3.638
   18SAPS   H8X 2362   6.584   3.581   3.686
   18SAPS   H8Y 2363   6.432   3.645   3.676
   18SAPS   C39 2364   6.532   3.805   3.686
   18SAPS   H9X 2365   6.484   3.871   3.610
   18SAPS   H9Y 2366   6.639   3.824   3.701
   18SAPS  C310 2367   6.450   3.810   3.812
   18SAPS  H10X 2368   6.484   3.731   3.882
   18SAPS  H10Y 2369   6.344   3.790   3.787
   18SAPS  C311 2370   6.446   3.948   3.867
   18SAPS  H11X 2371   6.387   3.933   3.956
   18SAPS  H11Y 2372   6.388   4.011   3.797
   18SAPS  C312 2373   6.582   4.010   3.894
   18SAPS  H12X 2374   6.570   4.108   3.946
   18SAPS  H12Y 2375   6.630   4.028   3.796
   18SAPS  C313 2376   6.678   3.927   3.976
   18SAPS  H13X 2377   6.768   3.989   4.000
   18SAPS  H13Y 2378   6.712   3.836   3.924
   18SAPS  C314 2379   6.627   3.886   4.110
   18SAPS  H14X 2380   6.532   3.829   4.115
   18SAPS  H14Y 2381   6.618   3.982   4.166
   18SAPS  C315 2382   6.745   3.816   4.174
   18SAPS  H15X 2383   6.716   3.861   4.274
   18SAPS  H15Y 2384   6.836   3.875   4.165
   18SAPS  C316 2385   6.761   3.655   4.134
   18SAPS  H16X 2386   6.762   3.646   4.026
   18SAPS  H16Y 2387   6.672   3.595   4.151
   18SAPS  C317 2388   6.852   3.543   4.212
   18SAPS  H17X 2389   6.877   3.633   4.269
   18SAPS  H17Y 2390   6.930   3.495   4.155
   18SAPS  C318 2391   6.856   3.481   4.351
   18SAPS  H18X 2392   6.852   3.561   4.432
   18SAPS  H18Y 2393   6.919   3.414   4.408
   18SAPS  H18Z 2394   6.763   3.425   4.339
   19SAPS     N 2395   2.455   0.264   2.342
   19SAPS   HN1 2396   2.471   0.168   2.377
   19SAPS   HN2 2397   2.402   0.315   2.415
   19SAPS   HN3 2398   2.402   0.258   2.254
   19SAPS   C12 2399   2.587   0.336   2.321
   19SAPS  H12A 2400   2.566   0.430   2.271
   19SAPS   C13 2401   2.660   0.366   2.455
   19SAPS  O13A 2402   2.600   0.332   2.560
   19SAPS  O13B 2403   2.769   0.426   2.456
   19SAPS   C11 2404   2.679   0.253   2.228
   19SAPS  H11A 2405   2.618   0.208   2.147
   19SAPS  H11B 2406   2.726   0.174   2.291
   19SAPS     P 2407   2.889   0.295   2.064
   19SAPS   O13 2408   2.837   0.191   1.975
   19SAPS   O14 2409   2.946   0.418   2.004
   19SAPS   O12 2410   2.775   0.335   2.167
   19SAPS   O11 2411   3.003   0.232   2.150
   19SAPS    C1 2412   3.057   0.306   2.256
   19SAPS    HA 2413   3.166   0.326   2.238
   19SAPS    HB 2414   3.005   0.399   2.290
   19SAPS    C2 2415   3.050   0.214   2.370
   19SAPS    HS 2416   3.123   0.135   2.338
   19SAPS   O21 2417   2.927   0.141   2.402
   19SAPS   C21 2418   2.923   0.016   2.454
   19SAPS   O22 2419   3.011  -0.055   2.493
   19SAPS   C22 2420   2.782  -0.031   2.467
   19SAPS   H2R 2421   2.717   0.057   2.468
   19SAPS   H2S 2422   2.773  -0.092   2.375
   19SAPS    C3 2423   3.094   0.319   2.484
   19SAPS    HX 2424   3.201   0.354   2.489
   19SAPS    HY 2425   3.059   0.234   2.540
   19SAPS   O31 2426   3.021   0.410   2.555
   19SAPS   C31 2427   3.038   0.422   2.685
   19SAPS   O32 2428   3.130   0.392   2.760
   19SAPS   C32 2429   2.930   0.507   2.723
   19SAPS   H2X 2430   2.835   0.449   2.719
   19SAPS   H2Y 2431   2.936   0.587   2.645
   19SAPS   C23 2432   2.750  -0.125   2.584
   19SAPS   H3R 2433   2.805  -0.222   2.575
   19SAPS   H3S 2434   2.642  -0.141   2.598
   19SAPS   C24 2435   2.779  -0.066   2.715
   19SAPS   H4R 2436   2.859   0.004   2.701
   19SAPS   H4S 2437   2.823  -0.152   2.771
   19SAPS   C25 2438   2.688   0.023   2.794
   19SAPS   H5R 2439   2.690   0.130   2.766
   19SAPS   C26 2440   2.621  -0.023   2.900
   19SAPS   H6R 2441   2.559   0.048   2.955
   19SAPS   C27 2442   2.626  -0.167   2.952
   19SAPS   H7R 2443   2.685  -0.233   2.885
   19SAPS   H7S 2444   2.524  -0.205   2.945
   19SAPS   C28 2445   2.668  -0.206   3.092
   19SAPS   H8R 2446   2.771  -0.247   3.094
   19SAPS   C29 2447   2.617  -0.160   3.208
   19SAPS   H9R 2448   2.673  -0.173   3.302
   19SAPS  C210 2449   2.510  -0.062   3.236
   19SAPS  H10R 2450   2.465  -0.105   3.327
   19SAPS  H10S 2451   2.442  -0.073   3.150
   19SAPS  C211 2452   2.544   0.085   3.257
   19SAPS  H11R 2453   2.603   0.135   3.179
   19SAPS  C212 2454   2.511   0.163   3.361
   19SAPS  H12R 2455   2.543   0.268   3.356
   19SAPS  C213 2456   2.433   0.127   3.485
   19SAPS  H13R 2457   2.366   0.041   3.464
   19SAPS  H13S 2458   2.365   0.212   3.511
   19SAPS  C214 2459   2.516   0.097   3.607
   19SAPS  H14R 2460   2.497   0.002   3.658
   19SAPS  C215 2461   2.589   0.186   3.674
   19SAPS  H15R 2462   2.642   0.153   3.764
   19SAPS  C216 2463   2.602   0.332   3.645
   19SAPS  H16R 2464   2.529   0.370   3.568
   19SAPS  H16S 2465   2.703   0.356   3.610
   19SAPS  C217 2466   2.573   0.405   3.777
   19SAPS  H17R 2467   2.465   0.407   3.798
   19SAPS  H17S 2468   2.611   0.506   3.763
   19SAPS  C218 2469   2.661   0.401   3.899
   19SAPS  H18R 2470   2.647   0.304   3.946
   19SAPS  H18S 2471   2.624   0.479   3.971
   19SAPS  C219 2472   2.806   0.440   3.866
   19SAPS  H19R 2473   2.810   0.531   3.802
   19SAPS  H19S 2474   2.856   0.359   3.809
   19SAPS  C220 2475   2.881   0.470   3.993
   19SAPS  H20R 2476   2.829   0.548   4.054
   19SAPS  H20S 2477   2.981   0.509   3.967
   19SAPS  H20T 2478   2.896   0.377   4.051
   19SAPS   C33 2479   2.973   0.559   2.856
   19SAPS   H3X 2480   3.081   0.586   2.859
   19SAPS   H3Y 2481   2.955   0.482   2.936
   19SAPS   C34 2482   2.901   0.683   2.892
   19SAPS   H4X 2483   2.794   0.663   2.869
   19SAPS   H4Y 2484   2.927   0.776   2.838
   19SAPS   C35 2485   2.919   0.695   3.041
   19SAPS   H5X 2486   2.863   0.603   3.074
   19SAPS   H5Y 2487   2.881   0.796   3.065
   19SAPS   C36 2488   3.040   0.668   3.126
   19SAPS   H6X 2489   3.111   0.750   3.103
   19SAPS   H6Y 2490   3.080   0.569   3.103
   19SAPS   C37 2491   3.016   0.656   3.279
   19SAPS   H7X 2492   3.010   0.752   3.332
   19SAPS   H7Y 2493   3.115   0.635   3.312
   19SAPS   C38 2494   2.942   0.541   3.351
   19SAPS   H8X 2495   2.836   0.523   3.325
   19SAPS   H8Y 2496   2.946   0.556   3.463
   19SAPS   C39 2497   2.987   0.407   3.325
   19SAPS   H9X 2498   3.086   0.403   3.372
   19SAPS   H9Y 2499   2.988   0.397   3.214
   19SAPS  C310 2500   2.885   0.314   3.387
   19SAPS  H10X 2501   2.778   0.337   3.371
   19SAPS  H10Y 2502   2.894   0.303   3.498
   19SAPS  C311 2503   2.907   0.190   3.311
   19SAPS  H11X 2504   2.896   0.192   3.203
   19SAPS  H11Y 2505   2.828   0.124   3.356
   19SAPS  C312 2506   3.045   0.140   3.329
   19SAPS  H12X 2507   3.137   0.198   3.306
   19SAPS  H12Y 2508   3.074   0.054   3.267
   19SAPS  C313 2509   3.020   0.104   3.475
   19SAPS  H13X 2510   3.039   0.176   3.552
   19SAPS  H13Y 2511   3.125   0.108   3.457
   19SAPS  C314 2512   2.932  -0.012   3.551
   19SAPS  H14X 2513   2.979  -0.099   3.529
   19SAPS  H14Y 2514   2.829  -0.009   3.526
   19SAPS  C315 2515   2.948  -0.137   3.652
   19SAPS  H15X 2516   2.869  -0.210   3.678
   19SAPS  H15Y 2517   2.957  -0.058   3.722
   19SAPS  C316 2518   3.056  -0.243   3.650
   19SAPS  H16X 2519   3.143  -0.215   3.596
   19SAPS  H16Y 2520   3.055  -0.336   3.601
   19SAPS  C317 2521   3.087  -0.293   3.772
   19SAPS  H17X 2522   3.011  -0.357   3.809
   19SAPS  H17Y 2523   3.110  -0.223   3.849
   19SAPS  C318 2524   3.217  -0.329   3.721
   19SAPS  H18X 2525   3.286  -0.256   3.749
   19SAPS  H18Y 2526   3.258  -0.412   3.749
   19SAPS  H18Z 2527   3.285  -0.378   3.775
   20SAPS     N 2528   3.428   0.082   2.136
   20SAPS   HN1 2529   3.381   0.030   2.059
   20SAPS   HN2 2530   3.452   0.000   2.193
   20SAPS   HN3 2531   3.365   0.126   2.207
   20SAPS   C12 2532   3.554   0.154   2.122
   20SAPS  H12A 2533   3.623   0.084   2.077
   20SAPS   C13 2534   3.509   0.268   2.033
   20SAPS  O13A 2535   3.385   0.293   2.012
   20SAPS  O13B 2536   3.600   0.341   1.989
   20SAPS   C11 2537   3.626   0.205   2.255
   20SAPS  H11A 2538   3.558   0.271   2.312
   20SAPS  H11B 2539   3.713   0.268   2.226
   20SAPS     P 2540   3.805   0.082   2.422
   20SAPS   O13 2541   3.806  -0.054   2.480
   20SAPS   O14 2542   3.923   0.126   2.348
   20SAPS   O12 2543   3.675   0.099   2.334
   20SAPS   O11 2544   3.771   0.183   2.539
   20SAPS    C1 2545   3.835   0.310   2.547
   20SAPS    HA 2546   3.941   0.302   2.512
   20SAPS    HB 2547   3.789   0.380   2.475
   20SAPS    C2 2548   3.823   0.372   2.692
   20SAPS    HS 2549   3.871   0.474   2.692
   20SAPS   O21 2550   3.880   0.294   2.796
   20SAPS   C21 2551   4.000   0.282   2.772
   20SAPS   O22 2552   4.062   0.356   2.694
   20SAPS   C22 2553   4.037   0.168   2.869
   20SAPS   H2R 2554   4.037   0.068   2.825
   20SAPS   H2S 2555   4.131   0.129   2.852
   20SAPS    C3 2556   3.681   0.390   2.745
   20SAPS    HX 2557   3.630   0.443   2.663
   20SAPS    HY 2558   3.688   0.454   2.836
   20SAPS   O31 2559   3.617   0.265   2.774
   20SAPS   C31 2560   3.529   0.264   2.871
   20SAPS   O32 2561   3.498   0.357   2.943
   20SAPS   C32 2562   3.471   0.133   2.889
   20SAPS   H2X 2563   3.423   0.092   2.800
   20SAPS   H2Y 2564   3.393   0.132   2.968
   20SAPS   C23 2565   4.032   0.199   3.025
   20SAPS   H3R 2566   4.076   0.112   3.080
   20SAPS   H3S 2567   3.924   0.195   3.042
   20SAPS   C24 2568   4.087   0.337   3.084
   20SAPS   H4R 2569   4.054   0.415   3.014
   20SAPS   H4S 2570   4.194   0.371   3.091
   20SAPS   C25 2571   4.081   0.360   3.229
   20SAPS   H5R 2572   4.113   0.284   3.299
   20SAPS   C26 2573   4.025   0.464   3.279
   20SAPS   H6R 2574   4.022   0.468   3.387
   20SAPS   C27 2575   3.958   0.569   3.197
   20SAPS   H7R 2576   4.009   0.596   3.101
   20SAPS   H7S 2577   3.959   0.660   3.259
   20SAPS   C28 2578   3.822   0.508   3.169
   20SAPS   H8R 2579   3.795   0.495   3.063
   20SAPS   C29 2580   3.725   0.492   3.259
   20SAPS   H9R 2581   3.627   0.461   3.220
   20SAPS  C210 2582   3.729   0.532   3.404
   20SAPS  H10R 2583   3.824   0.584   3.428
   20SAPS  H10S 2584   3.722   0.440   3.461
   20SAPS  C211 2585   3.622   0.618   3.461
   20SAPS  H11R 2586   3.647   0.725   3.463
   20SAPS  C212 2587   3.500   0.577   3.498
   20SAPS  H12R 2588   3.435   0.647   3.552
   20SAPS  C213 2589   3.436   0.443   3.495
   20SAPS  H13R 2590   3.518   0.373   3.486
   20SAPS  H13S 2591   3.367   0.432   3.408
   20SAPS  C214 2592   3.359   0.430   3.625
   20SAPS  H14R 2593   3.250   0.435   3.615
   20SAPS  C215 2594   3.410   0.416   3.749
   20SAPS  H15R 2595   3.342   0.421   3.834
   20SAPS  C216 2596   3.556   0.410   3.785
   20SAPS  H16R 2597   3.568   0.436   3.892
   20SAPS  H16S 2598   3.615   0.485   3.728
   20SAPS  C217 2599   3.617   0.272   3.757
   20SAPS  H17R 2600   3.726   0.276   3.778
   20SAPS  H17S 2601   3.605   0.245   3.650
   20SAPS  C218 2602   3.561   0.159   3.841
   20SAPS  H18R 2603   3.614   0.066   3.809
   20SAPS  H18S 2604   3.457   0.155   3.814
   20SAPS  C219 2605   3.578   0.176   3.991
   20SAPS  H19R 2606   3.502   0.239   4.043
   20SAPS  H19S 2607   3.676   0.226   4.005
   20SAPS  C220 2608   3.584   0.041   4.060
   20SAPS  H20R 2609   3.642   0.068   4.148
   20SAPS  H20S 2610   3.647  -0.033   4.008
   20SAPS  H20T 2611   3.485  -0.002   4.088
   20SAPS   C33 2612   3.589   0.047   2.918
   20SAPS   H3X 2613   3.647   0.010   2.830
   20SAPS   H3Y 2614   3.510  -0.017   2.951
   20SAPS   C34 2615   3.662   0.039   3.050
   20SAPS   H4X 2616   3.726   0.126   3.040
   20SAPS   H4Y 2617   3.725  -0.055   3.048
   20SAPS   C35 2618   3.578   0.034   3.179
   20SAPS   H5X 2619   3.509  -0.051   3.191
   20SAPS   H5Y 2620   3.517   0.126   3.186
   20SAPS   C36 2621   3.682   0.022   3.289
   20SAPS   H6X 2622   3.732   0.121   3.283
   20SAPS   H6Y 2623   3.755  -0.057   3.259
   20SAPS   C37 2624   3.636  -0.006   3.432
   20SAPS   H7X 2625   3.582  -0.102   3.446
   20SAPS   H7Y 2626   3.570   0.078   3.465
   20SAPS   C38 2627   3.754  -0.014   3.530
   20SAPS   H8X 2628   3.798  -0.116   3.526
   20SAPS   H8Y 2629   3.708   0.002   3.630
   20SAPS   C39 2630   3.868   0.083   3.498
   20SAPS   H9X 2631   3.823   0.175   3.454
   20SAPS   H9Y 2632   3.931   0.036   3.419
   20SAPS  C310 2633   3.959   0.128   3.614
   20SAPS  H10X 2634   4.053   0.069   3.615
   20SAPS  H10Y 2635   3.911   0.116   3.714
   20SAPS  C311 2636   3.995   0.275   3.588
   20SAPS  H11X 2637   3.900   0.331   3.574
   20SAPS  H11Y 2638   4.048   0.274   3.490
   20SAPS  C312 2639   4.083   0.347   3.691
   20SAPS  H12X 2640   4.091   0.452   3.653
   20SAPS  H12Y 2641   4.184   0.302   3.694
   20SAPS  C313 2642   4.030   0.351   3.835
   20SAPS  H13X 2643   4.023   0.249   3.880
   20SAPS  H13Y 2644   3.927   0.389   3.829
   20SAPS  C314 2645   4.111   0.442   3.931
   20SAPS  H14X 2646   4.127   0.542   3.884
   20SAPS  H14Y 2647   4.211   0.397   3.951
   20SAPS  C315 2648   4.034   0.462   4.063
   20SAPS  H15X 2649   4.089   0.530   4.132
   20SAPS  H15Y 2650   4.035   0.363   4.113
   20SAPS  C316 2651   3.885   0.506   4.033
   20SAPS  H16X 2652   3.827   0.425   3.988
   20SAPS  H16Y 2653   3.884   0.604   3.981
   20SAPS  C317 2654   3.790   0.519   4.149
   20SAPS  H17X 2655   3.876   0.554   4.188
   20SAPS  H17Y 2656   3.773   0.442   4.221
   20SAPS  C318 2657   3.682   0.620   4.167
   20SAPS  H18X 2658   3.708   0.718   4.122
   20SAPS  H18Y 2659   3.659   0.634   4.276
   20SAPS  H18Z 2660   3.597   0.567   4.121
   21CHL1    C3 2661   3.194   3.870   5.984
   21CHL1    H3 2662   3.083   3.874   5.987
   21CHL1    O3 2663   3.240   3.866   6.117
   21CHL1   H3' 2664   3.217   3.951   6.154
   21CHL1    C4 2665   3.238   3.742   5.909
   21CHL1   H4A 2666   3.348   3.725   5.920
   21CHL1   H4B 2667   3.190   3.657   5.961
   21CHL1    C5 2668   3.200   3.750   5.763
   21CHL1    C6 2669   3.123   3.658   5.702
   21CHL1    H6 2670   3.089   3.571   5.759
   21CHL1    C7 2671   3.091   3.659   5.556
   21CHL1   H7A 2672   3.097   3.556   5.515
   21CHL1   H7B 2673   2.988   3.697   5.538
   21CHL1    C8 2674   3.185   3.753   5.477
   21CHL1    H8 2675   3.285   3.703   5.470
   21CHL1   C14 2676   3.131   3.777   5.338
   21CHL1   H14 2677   3.032   3.829   5.353
   21CHL1   C15 2678   3.094   3.655   5.254
   21CHL1  H15A 2679   3.158   3.567   5.271
   21CHL1  H15B 2680   2.994   3.626   5.284
   21CHL1   C16 2681   3.099   3.708   5.110
   21CHL1  H16A 2682   3.183   3.655   5.061
   21CHL1  H16B 2683   3.006   3.688   5.054
   21CHL1   C17 2684   3.132   3.861   5.121
   21CHL1   H17 2685   3.035   3.913   5.138
   21CHL1   C13 2686   3.211   3.872   5.252
   21CHL1   C18 2687   3.354   3.820   5.226
   21CHL1  H18A 2688   3.355   3.726   5.168
   21CHL1  H18B 2689   3.408   3.897   5.167
   21CHL1  H18C 2690   3.408   3.803   5.321
   21CHL1   C12 2691   3.214   4.010   5.321
   21CHL1  H12A 2692   3.283   4.079   5.269
   21CHL1  H12B 2693   3.112   4.054   5.319
   21CHL1   C11 2694   3.265   4.000   5.465
   21CHL1  H11A 2695   3.374   3.982   5.460
   21CHL1  H11B 2696   3.248   4.099   5.512
   21CHL1    C9 2697   3.196   3.888   5.548
   21CHL1    H9 2698   3.091   3.925   5.560
   21CHL1   C10 2699   3.254   3.874   5.690
   21CHL1   C19 2700   3.406   3.856   5.682
   21CHL1  H19A 2701   3.433   3.765   5.623
   21CHL1  H19B 2702   3.453   3.946   5.638
   21CHL1  H19C 2703   3.449   3.846   5.783
   21CHL1    C1 2704   3.221   4.004   5.770
   21CHL1   H1A 2705   3.276   4.087   5.720
   21CHL1   H1B 2706   3.112   4.023   5.760
   21CHL1    C2 2707   3.251   3.998   5.921
   21CHL1   H2A 2708   3.209   4.088   5.972
   21CHL1   H2B 2709   3.361   4.000   5.939
   21CHL1   C20 2710   3.189   3.927   4.993
   21CHL1   H20 2711   3.285   3.879   4.963
   21CHL1   C21 2712   3.213   4.079   5.013
   21CHL1  H21A 2713   3.232   4.131   4.917
   21CHL1  H21B 2714   3.302   4.101   5.075
   21CHL1  H21C 2715   3.123   4.123   5.059
   21CHL1   C22 2716   3.088   3.907   4.877
   21CHL1  H22A 2717   3.063   3.798   4.870
   21CHL1  H22B 2718   2.994   3.960   4.903
   21CHL1   C23 2719   3.140   3.952   4.739
   21CHL1  H23A 2720   3.174   4.057   4.741
   21CHL1  H23B 2721   3.229   3.889   4.717
   21CHL1   C24 2722   3.039   3.941   4.624
   21CHL1  H24A 2723   3.008   3.835   4.612
   21CHL1  H24B 2724   2.947   3.998   4.650
   21CHL1   C25 2725   3.092   3.992   4.488
   21CHL1   H25 2726   3.125   4.099   4.499
   21CHL1   C26 2727   3.210   3.904   4.440
   21CHL1  H26A 2728   3.265   3.939   4.353
   21CHL1  H26B 2729   3.285   3.889   4.519
   21CHL1  H26C 2730   3.174   3.810   4.397
   21CHL1   C27 2731   2.975   3.984   4.389
   21CHL1  H27A 2732   2.957   3.876   4.367
   21CHL1  H27B 2733   2.883   4.024   4.437
   21CHL1  H27C 2734   2.991   4.038   4.294
   22CHL1    C3 2735   3.267   3.072   5.977
   22CHL1    H3 2736   3.358   3.009   5.962
   22CHL1    O3 2737   3.240   3.084   6.116
   22CHL1   H3' 2738   3.297   3.154   6.150
   22CHL1    C4 2739   3.285   3.211   5.914
   22CHL1   H4A 2740   3.192   3.266   5.937
   22CHL1   H4B 2741   3.367   3.269   5.960
   22CHL1    C5 2742   3.299   3.205   5.765
   22CHL1    C6 2743   3.407   3.254   5.702
   22CHL1    H6 2744   3.487   3.303   5.758
   22CHL1    C7 2745   3.419   3.257   5.554
   22CHL1   H7A 2746   3.469   3.350   5.521
   22CHL1   H7B 2747   3.482   3.171   5.522
   22CHL1    C8 2748   3.282   3.242   5.484
   22CHL1    H8 2749   3.222   3.334   5.502
   22CHL1   C14 2750   3.306   3.214   5.335
   22CHL1   H14 2751   3.363   3.118   5.331
   22CHL1   C15 2752   3.392   3.312   5.255
   22CHL1  H15A 2753   3.361   3.413   5.288
   22CHL1  H15B 2754   3.500   3.297   5.272
   22CHL1   C16 2755   3.356   3.281   5.108
   22CHL1  H16A 2756   3.319   3.373   5.059
   22CHL1  H16B 2757   3.443   3.247   5.049
   22CHL1   C17 2758   3.239   3.176   5.110
   22CHL1   H17 2759   3.281   3.073   5.107
   22CHL1   C13 2760   3.181   3.188   5.253
   22CHL1   C18 2761   3.089   3.310   5.259
   22CHL1  H18A 2762   3.085   3.355   5.360
   22CHL1  H18B 2763   3.124   3.387   5.188
   22CHL1  H18C 2764   2.987   3.280   5.231
   22CHL1   C12 2765   3.119   3.063   5.313
   22CHL1  H12A 2766   3.039   3.028   5.249
   22CHL1  H12B 2767   3.192   2.979   5.316
   22CHL1   C11 2768   3.079   3.090   5.458
   22CHL1  H11A 2769   2.999   3.167   5.465
   22CHL1  H11B 2770   3.038   2.997   5.496
   22CHL1    C9 2771   3.204   3.125   5.543
   22CHL1    H9 2772   3.272   3.037   5.533
   22CHL1   C10 2773   3.179   3.138   5.695
   22CHL1   C19 2774   3.050   3.222   5.718
   22CHL1  H19A 2775   2.963   3.176   5.666
   22CHL1  H19B 2776   3.022   3.227   5.824
   22CHL1  H19C 2777   3.064   3.327   5.684
   22CHL1    C1 2778   3.165   2.996   5.757
   22CHL1   H1A 2779   3.082   2.940   5.710
   22CHL1   H1B 2780   3.257   2.938   5.733
   22CHL1    C2 2781   3.148   3.000   5.910
   22CHL1   H2A 2782   3.141   2.897   5.950
   22CHL1   H2B 2783   3.054   3.054   5.934
   22CHL1   C20 2784   3.148   3.190   4.987
   22CHL1   H20 2785   3.092   3.287   4.994
   22CHL1   C21 2786   3.046   3.077   4.983
   22CHL1  H21A 2787   2.962   3.111   5.046
   22CHL1  H21B 2788   3.087   2.983   5.024
   22CHL1  H21C 2789   3.006   3.057   4.881
   22CHL1   C22 2790   3.227   3.188   4.853
   22CHL1  H22A 2791   3.320   3.248   4.860
   22CHL1  H22B 2792   3.261   3.084   4.836
   22CHL1   C23 2793   3.145   3.237   4.733
   22CHL1  H23A 2794   3.053   3.177   4.722
   22CHL1  H23B 2795   3.111   3.341   4.753
   22CHL1   C24 2796   3.221   3.233   4.599
   22CHL1  H24A 2797   3.173   3.297   4.523
   22CHL1  H24B 2798   3.322   3.271   4.617
   22CHL1   C25 2799   3.234   3.094   4.534
   22CHL1   H25 2800   3.287   3.028   4.607
   22CHL1   C26 2801   3.095   3.040   4.501
   22CHL1  H26A 2802   3.046   3.112   4.432
   22CHL1  H26B 2803   3.102   2.941   4.452
   22CHL1  H26C 2804   3.034   3.029   4.592
   22CHL1   C27 2805   3.314   3.100   4.404
   22CHL1  H27A 2806   3.292   3.189   4.342
   22CHL1  H27B 2807   3.421   3.096   4.429
   22CHL1  H27C 2808   3.292   3.011   4.341
   23CHL1    C3 2809   2.545   3.482   5.981
   23CHL1    H3 2810   2.517   3.377   5.958
   23CHL1    O3 2811   2.561   3.497   6.120
   23CHL1   H3' 2812   2.591   3.410   6.153
   23CHL1    C4 2813   2.679   3.515   5.914
   23CHL1   H4A 2814   2.701   3.622   5.937
   23CHL1   H4B 2815   2.761   3.457   5.961
   23CHL1    C5 2816   2.671   3.493   5.765
   23CHL1    C6 2817   2.758   3.418   5.695
   23CHL1    H6 2818   2.836   3.367   5.752
   23CHL1    C7 2819   2.755   3.402   5.545
   23CHL1   H7A 2820   2.857   3.418   5.499
   23CHL1   H7B 2821   2.717   3.303   5.516
   23CHL1    C8 2822   2.663   3.506   5.474
   23CHL1    H8 2823   2.734   3.588   5.485
   23CHL1   C14 2824   2.646   3.474   5.326
   23CHL1   H14 2825   2.587   3.381   5.330
   23CHL1   C15 2826   2.771   3.448   5.240
   23CHL1  H15A 2827   2.845   3.524   5.265
   23CHL1  H15B 2828   2.814   3.352   5.265
   23CHL1   C16 2829   2.725   3.467   5.093
   23CHL1  H16A 2830   2.786   3.547   5.042
   23CHL1  H16B 2831   2.733   3.377   5.032
   23CHL1   C17 2832   2.571   3.499   5.103
   23CHL1   H17 2833   2.508   3.411   5.115
   23CHL1   C13 2834   2.560   3.563   5.238
   23CHL1   C18 2835   2.657   3.680   5.188
   23CHL1  H18A 2836   2.659   3.689   5.284
   23CHL1  H18B 2837   2.765   3.689   5.201
   23CHL1  H18C 2838   2.627   3.784   5.189
   23CHL1   C12 2839   2.413   3.563   5.314
   23CHL1  H12A 2840   2.351   3.639   5.266
   23CHL1  H12B 2841   2.364   3.469   5.284
   23CHL1   C11 2842   2.402   3.584   5.474
   23CHL1  H11A 2843   2.382   3.687   5.513
   23CHL1  H11B 2844   2.304   3.578   5.522
   23CHL1    C9 2845   2.527   3.522   5.551
   23CHL1    H9 2846   2.486   3.420   5.557
   23CHL1   C10 2847   2.549   3.557   5.702
   23CHL1   C19 2848   2.579   3.698   5.717
   23CHL1  H19A 2849   2.661   3.708   5.644
   23CHL1  H19B 2850   2.490   3.757   5.684
   23CHL1  H19C 2851   2.608   3.747   5.812
   23CHL1    C1 2852   2.419   3.543   5.778
   23CHL1   H1A 2853   2.347   3.612   5.730
   23CHL1   H1B 2854   2.385   3.439   5.763
   23CHL1    C2 2855   2.435   3.575   5.927
   23CHL1   H2A 2856   2.338   3.562   5.978
   23CHL1   H2B 2857   2.466   3.680   5.946
   23CHL1   C20 2858   2.523   3.571   4.978
   23CHL1   H20 2859   2.598   3.651   4.971
   23CHL1   C21 2860   2.370   3.607   4.976
   23CHL1  H21A 2861   2.319   3.597   4.881
   23CHL1  H21B 2862   2.338   3.711   4.971
   23CHL1  H21C 2863   2.319   3.564   5.064
   23CHL1   C22 2864   2.547   3.501   4.846
   23CHL1  H22A 2865   2.602   3.408   4.866
   23CHL1  H22B 2866   2.445   3.475   4.811
   23CHL1   C23 2867   2.621   3.577   4.736
   23CHL1  H23A 2868   2.604   3.682   4.724
   23CHL1  H23B 2869   2.729   3.576   4.756
   23CHL1   C24 2870   2.572   3.535   4.599
   23CHL1  H24A 2871   2.613   3.436   4.577
   23CHL1  H24B 2872   2.460   3.528   4.602
   23CHL1   C25 2873   2.605   3.633   4.488
   23CHL1   H25 2874   2.671   3.718   4.517
   23CHL1   C26 2875   2.657   3.570   4.360
   23CHL1  H26A 2876   2.762   3.545   4.378
   23CHL1  H26B 2877   2.593   3.480   4.341
   23CHL1  H26C 2878   2.647   3.636   4.270
   23CHL1   C27 2879   2.475   3.682   4.442
   23CHL1  H27A 2880   2.410   3.740   4.510
   23CHL1  H27B 2881   2.506   3.744   4.354
   23CHL1  H27C 2882   2.408   3.603   4.407
   24CHL1    C3 2883   3.154   4.651   5.979
   24CHL1    H3 2884   3.165   4.757   5.947
   24CHL1    O3 2885   3.155   4.646   6.120
   24CHL1   H3' 2886   3.219   4.711   6.150
   24CHL1    C4 2887   3.020   4.599   5.923
   24CHL1   H4A 2888   3.002   4.496   5.960
   24CHL1   H4B 2889   2.936   4.658   5.963
   24CHL1    C5 2890   3.023   4.604   5.771
   24CHL1    C6 2891   2.940   4.682   5.700
   24CHL1    H6 2892   2.862   4.741   5.749
   24CHL1    C7 2893   2.943   4.691   5.550
   24CHL1   H7A 2894   2.843   4.679   5.511
   24CHL1   H7B 2895   2.985   4.788   5.515
   24CHL1    C8 2896   3.017   4.576   5.485
   24CHL1    H8 2897   2.955   4.484   5.499
   24CHL1   C14 2898   3.035   4.605   5.337
   24CHL1   H14 2899   3.094   4.700   5.332
   24CHL1   C15 2900   2.911   4.632   5.251
   24CHL1  H15A 2901   2.820   4.575   5.274
   24CHL1  H15B 2902   2.885   4.734   5.273
   24CHL1   C16 2903   2.960   4.609   5.108
   24CHL1  H16A 2904   2.892   4.533   5.065
   24CHL1  H16B 2905   2.964   4.698   5.043
   24CHL1   C17 2906   3.106   4.558   5.117
   24CHL1   H17 2907   3.170   4.650   5.111
   24CHL1   C13 2908   3.116   4.503   5.261
   24CHL1   C18 2909   3.047   4.364   5.276
   24CHL1  H18A 2910   2.943   4.360   5.239
   24CHL1  H18B 2911   3.107   4.286   5.225
   24CHL1  H18C 2912   3.041   4.336   5.383
   24CHL1   C12 2913   3.256   4.506   5.324
   24CHL1  H12A 2914   3.321   4.429   5.278
   24CHL1  H12B 2915   3.302   4.606   5.305
   24CHL1   C11 2916   3.249   4.476   5.474
   24CHL1  H11A 2917   3.226   4.369   5.487
   24CHL1  H11B 2918   3.348   4.492   5.518
   24CHL1    C9 2919   3.150   4.563   5.555
   24CHL1    H9 2920   3.192   4.668   5.551
   24CHL1   C10 2921   3.140   4.527   5.706
   24CHL1   C19 2922   3.116   4.373   5.720
   24CHL1  H19A 2923   3.089   4.341   5.822
   24CHL1  H19B 2924   3.033   4.338   5.654
   24CHL1  H19C 2925   3.207   4.316   5.691
   24CHL1    C1 2926   3.274   4.568   5.776
   24CHL1   H1A 2927   3.354   4.504   5.734
   24CHL1   H1B 2928   3.300   4.673   5.748
   24CHL1    C2 2929   3.274   4.569   5.929
   24CHL1   H2A 2930   3.367   4.616   5.970
   24CHL1   H2B 2931   3.273   4.465   5.968
   24CHL1   C20 2932   3.145   4.470   5.000
   24CHL1   H20 2933   3.085   4.377   5.005
   24CHL1   C21 2934   3.296   4.432   4.998
   24CHL1  H21A 2935   3.364   4.517   5.018
   24CHL1  H21B 2936   3.325   4.392   4.898
   24CHL1  H21C 2937   3.315   4.352   5.073
   24CHL1   C22 2938   3.104   4.527   4.863
   24CHL1  H22A 2939   3.134   4.443   4.797
   24CHL1  H22B 2940   2.994   4.539   4.852
   24CHL1   C23 2941   3.164   4.663   4.828
   24CHL1  H23A 2942   3.116   4.746   4.883
   24CHL1  H23B 2943   3.274   4.667   4.842
   24CHL1   C24 2944   3.134   4.691   4.689
   24CHL1  H24A 2945   3.024   4.707   4.667
   24CHL1  H24B 2946   3.189   4.779   4.651
   24CHL1   C25 2947   3.182   4.578   4.608
   24CHL1   H25 2948   3.123   4.481   4.614
   24CHL1   C26 2949   3.135   4.650   4.502
   24CHL1  H26A 2950   3.153   4.551   4.457
   24CHL1  H26B 2951   3.029   4.666   4.474
   24CHL1  H26C 2952   3.201   4.728   4.452
   24CHL1   C27 2953   3.333   4.558   4.581
   24CHL1  H27A 2954   3.378   4.648   4.535
   24CHL1  H27B 2955   3.379   4.537   4.678
   24CHL1  H27C 2956   3.349   4.473   4.510
   25CHL1    C3 2957   3.812   5.035   5.983
   25CHL1    H3 2958   3.845   4.930   5.964
   25CHL1    O3 2959   3.819   5.069   6.120
   25CHL1   H3' 2960   3.799   5.163   6.120
   25CHL1    C4 2961   3.895   5.136   5.907
   25CHL1   H4A 2962   3.859   5.237   5.937
   25CHL1   H4B 2963   4.001   5.129   5.941
   25CHL1    C5 2964   3.883   5.116   5.757
   25CHL1    C6 2965   3.993   5.106   5.685
   25CHL1    H6 2966   4.089   5.117   5.733
   25CHL1    C7 2967   3.990   5.075   5.539
   25CHL1   H7A 2968   4.064   5.134   5.483
   25CHL1   H7B 2969   4.011   4.967   5.530
   25CHL1    C8 2970   3.854   5.096   5.473
   25CHL1    H8 2971   3.846   5.208   5.472
   25CHL1   C14 2972   3.853   5.028   5.334
   25CHL1   H14 2973   3.872   4.924   5.342
   25CHL1   C15 2974   3.960   5.073   5.235
   25CHL1  H15A 2975   3.968   5.185   5.252
   25CHL1  H15B 2976   4.059   5.035   5.250
   25CHL1   C16 2977   3.903   5.009   5.103
   25CHL1  H16A 2978   3.940   5.078   5.032
   25CHL1  H16B 2979   3.957   4.939   5.040
   25CHL1   C17 2980   3.745   4.983   5.109
   25CHL1   H17 2981   3.739   4.875   5.105
   25CHL1   C13 2982   3.720   5.007   5.258
   25CHL1   C18 2983   3.677   5.122   5.253
   25CHL1  H18A 2984   3.758   5.181   5.233
   25CHL1  H18B 2985   3.593   5.164   5.193
   25CHL1  H18C 2986   3.687   5.169   5.353
   25CHL1   C12 2987   3.605   4.960   5.343
   25CHL1  H12A 2988   3.509   4.973   5.290
   25CHL1  H12B 2989   3.635   4.858   5.340
   25CHL1   C11 2990   3.600   5.021   5.487
   25CHL1  H11A 2991   3.554   5.120   5.490
   25CHL1  H11B 2992   3.525   4.967   5.544
   25CHL1    C9 2993   3.741   5.033   5.556
   25CHL1    H9 2994   3.764   4.927   5.567
   25CHL1   C10 2995   3.742   5.089   5.698
   25CHL1   C19 2996   3.679   5.218   5.691
   25CHL1  H19A 2997   3.672   5.242   5.798
   25CHL1  H19B 2998   3.740   5.294   5.635
   25CHL1  H19C 2999   3.572   5.231   5.670
   25CHL1    C1 3000   3.651   5.011   5.792
   25CHL1   H1A 3001   3.544   5.033   5.766
   25CHL1   H1B 3002   3.675   4.906   5.772
   25CHL1    C2 3003   3.666   5.045   5.941
   25CHL1   H2A 3004   3.611   4.969   5.998
   25CHL1   H2B 3005   3.625   5.147   5.964
   25CHL1   C20 3006   3.648   5.029   4.987
   25CHL1   H20 3007   3.631   5.141   4.969
   25CHL1   C21 3008   3.502   5.015   5.000
   25CHL1  H21A 3009   3.455   5.075   4.917
   25CHL1  H21B 3010   3.482   5.066   5.094
   25CHL1  H21C 3011   3.470   4.911   5.002
   25CHL1   C22 3012   3.695   4.975   4.855
   25CHL1  H22A 3013   3.786   4.915   4.870
   25CHL1  H22B 3014   3.610   4.915   4.820
   25CHL1   C23 3015   3.724   5.071   4.743
   25CHL1  H23A 3016   3.646   5.152   4.734
   25CHL1  H23B 3017   3.828   5.112   4.747
   25CHL1   C24 3018   3.745   5.006   4.615
   25CHL1  H24A 3019   3.839   4.947   4.610
   25CHL1  H24B 3020   3.658   4.936   4.604
   25CHL1   C25 3021   3.762   5.126   4.519
   25CHL1   H25 3022   3.867   5.153   4.488
   25CHL1   C26 3023   3.756   5.066   4.410
   25CHL1  H26A 3024   3.740   5.122   4.314
   25CHL1  H26B 3025   3.839   4.992   4.390
   25CHL1  H26C 3026   3.656   5.008   4.429
   25CHL1   C27 3027   3.642   5.215   4.486
   25CHL1  H27A 3028   3.665   5.297   4.551
   25CHL1  H27B 3029   3.627   5.249   4.380
   25CHL1  H27C 3030   3.545   5.173   4.514
   26CHL1    C3 3031   3.217   2.279   5.985
   26CHL1    H3 3032   3.109   2.304   5.995
   26CHL1    O3 3033   3.269   2.249   6.113
   26CHL1   H3' 3034   3.280   2.334   6.160
   26CHL1    C4 3035   3.234   2.157   5.892
   26CHL1   H4A 3036   3.339   2.128   5.892
   26CHL1   H4B 3037   3.177   2.073   5.936
   26CHL1    C5 3038   3.196   2.179   5.748
   26CHL1    C6 3039   3.111   2.094   5.689
   26CHL1    H6 3040   3.076   2.008   5.747
   26CHL1    C7 3041   3.066   2.103   5.546
   26CHL1   H7A 3042   3.072   2.004   5.496
   26CHL1   H7B 3043   2.959   2.134   5.540
   26CHL1    C8 3044   3.146   2.213   5.471
   26CHL1    H8 3045   3.246   2.172   5.444
   26CHL1   C14 3046   3.074   2.248   5.345
   26CHL1   H14 3047   2.968   2.277   5.369
   26CHL1   C15 3048   3.062   2.133   5.248
   26CHL1  H15A 3049   3.147   2.062   5.241
   26CHL1  H15B 3050   2.984   2.071   5.290
   26CHL1   C16 3051   3.038   2.202   5.112
   26CHL1  H16A 3052   3.120   2.166   5.047
   26CHL1  H16B 3053   2.945   2.182   5.057
   26CHL1   C17 3054   3.044   2.354   5.139
   26CHL1   H17 3055   2.942   2.387   5.171
   26CHL1   C13 3056   3.133   2.363   5.265
   26CHL1   C18 3057   3.279   2.329   5.224
   26CHL1  H18A 3058   3.287   2.238   5.163
   26CHL1  H18B 3059   3.322   2.413   5.166
   26CHL1  H18C 3060   3.344   2.314   5.313
   26CHL1   C12 3061   3.124   2.489   5.354
   26CHL1  H12A 3062   3.170   2.576   5.305
   26CHL1  H12B 3063   3.018   2.513   5.377
   26CHL1   C11 3064   3.203   2.469   5.485
   26CHL1  H11A 3065   3.310   2.470   5.457
   26CHL1  H11B 3066   3.188   2.557   5.550
   26CHL1    C9 3067   3.164   2.338   5.560
   26CHL1    H9 3068   3.060   2.358   5.598
   26CHL1   C10 3069   3.249   2.310   5.685
   26CHL1   C19 3070   3.399   2.298   5.644
   26CHL1  H19A 3071   3.418   2.206   5.585
   26CHL1  H19B 3072   3.434   2.383   5.583
   26CHL1  H19C 3073   3.463   2.293   5.734
   26CHL1    C1 3074   3.230   2.428   5.787
   26CHL1   H1A 3075   3.271   2.521   5.743
   26CHL1   H1B 3076   3.122   2.445   5.805
   26CHL1    C2 3077   3.286   2.403   5.928
   26CHL1   H2A 3078   3.261   2.489   5.994
   26CHL1   H2B 3079   3.397   2.389   5.929
   26CHL1   C20 3080   3.088   2.430   5.013
   26CHL1   H20 3081   3.192   2.397   4.994
   26CHL1   C21 3082   3.083   2.582   5.038
   26CHL1  H21A 3083   3.151   2.618   5.117
   26CHL1  H21B 3084   2.978   2.612   5.061
   26CHL1  H21C 3085   3.120   2.636   4.949
   26CHL1   C22 3086   3.011   2.393   4.881
   26CHL1  H22A 3087   2.984   2.287   4.879
   26CHL1  H22B 3088   2.914   2.449   4.883
   26CHL1   C23 3089   3.095   2.411   4.749
   26CHL1  H23A 3090   3.160   2.501   4.767
   26CHL1  H23B 3091   3.163   2.328   4.735
   26CHL1   C24 3092   3.018   2.425   4.613
   26CHL1  H24A 3093   2.918   2.384   4.584
   26CHL1  H24B 3094   2.938   2.456   4.672
   26CHL1   C25 3095   3.096   2.533   4.516
   26CHL1   H25 3096   3.155   2.605   4.571
   26CHL1   C26 3097   3.217   2.477   4.462
   26CHL1  H26A 3098   3.134   2.415   4.449
   26CHL1  H26B 3099   3.237   2.483   4.353
   26CHL1  H26C 3100   3.268   2.404   4.526
   26CHL1   C27 3101   3.031   2.619   4.408
   26CHL1  H27A 3102   3.041   2.625   4.299
   26CHL1  H27B 3103   2.949   2.553   4.380
   26CHL1  H27C 3104   2.994   2.712   4.456
   27CHL1    C3 3105   2.595   2.684   5.981
   27CHL1    H3 3106   2.661   2.598   5.951
   27CHL1    O3 3107   2.568   2.684   6.120
   27CHL1   H3' 3108   2.656   2.685   6.158
   27CHL1    C4 3109   2.664   2.813   5.938
   27CHL1   H4A 3110   2.603   2.899   5.975
   27CHL1   H4B 3111   2.761   2.820   5.989
   27CHL1    C5 3112   2.684   2.819   5.788
   27CHL1    C6 3113   2.803   2.825   5.732
   27CHL1    H6 3114   2.890   2.831   5.798
   27CHL1    C7 3115   2.823   2.850   5.586
   27CHL1   H7A 3116   2.890   2.935   5.584
   27CHL1   H7B 3117   2.873   2.766   5.532
   27CHL1    C8 3118   2.693   2.889   5.509
   27CHL1    H8 3119   2.668   2.995   5.534
   27CHL1   C14 3120   2.711   2.869   5.361
   27CHL1   H14 3121   2.735   2.760   5.352
   27CHL1   C15 3122   2.828   2.936   5.296
   27CHL1  H15A 3123   2.832   3.047   5.312
   27CHL1  H15B 3124   2.922   2.889   5.329
   27CHL1   C16 3125   2.805   2.905   5.149
   27CHL1  H16A 3126   2.817   3.001   5.096
   27CHL1  H16B 3127   2.878   2.830   5.113
   27CHL1   C17 3128   2.661   2.848   5.133
   27CHL1   H17 3129   2.674   2.737   5.130
   27CHL1   C13 3130   2.593   2.886   5.265
   27CHL1   C18 3131   2.546   3.033   5.254
   27CHL1  H18A 3132   2.621   3.093   5.198
   27CHL1  H18B 3133   2.449   3.038   5.200
   27CHL1  H18C 3134   2.534   3.082   5.353
   27CHL1   C12 3135   2.480   2.795   5.312
   27CHL1  H12A 3136   2.390   2.818   5.251
   27CHL1  H12B 3137   2.505   2.687   5.299
   27CHL1   C11 3138   2.455   2.821   5.461
   27CHL1  H11A 3139   2.429   2.928   5.468
   27CHL1  H11B 3140   2.368   2.759   5.491
   27CHL1    C9 3141   2.581   2.799   5.551
   27CHL1    H9 3142   2.617   2.694   5.533
   27CHL1   C10 3143   2.560   2.814   5.704
   27CHL1   C19 3144   2.470   2.936   5.734
   27CHL1  H19A 3145   2.376   2.936   5.676
   27CHL1  H19B 3146   2.439   2.937   5.840
   27CHL1  H19C 3147   2.523   3.031   5.713
   27CHL1    C1 3148   2.494   2.688   5.755
   27CHL1   H1A 3149   2.403   2.716   5.699
   27CHL1   H1B 3150   2.532   2.592   5.714
   27CHL1    C2 3151   2.467   2.671   5.907
   27CHL1   H2A 3152   2.425   2.570   5.932
   27CHL1   H2B 3153   2.390   2.744   5.942
   27CHL1   C20 3154   2.597   2.896   5.003
   27CHL1   H20 3155   2.575   3.004   5.016
   27CHL1   C21 3156   2.465   2.829   4.960
   27CHL1  H21A 3157   2.380   2.893   4.993
   27CHL1  H21B 3158   2.460   2.726   4.999
   27CHL1  H21C 3159   2.459   2.821   4.849
   27CHL1   C22 3160   2.692   2.890   4.885
   27CHL1  H22A 3161   2.643   2.949   4.805
   27CHL1  H22B 3162   2.789   2.940   4.904
   27CHL1   C23 3163   2.720   2.751   4.834
   27CHL1  H23A 3164   2.801   2.710   4.899
   27CHL1  H23B 3165   2.640   2.675   4.842
   27CHL1   C24 3166   2.742   2.762   4.685
   27CHL1  H24A 3167   2.650   2.764   4.626
   27CHL1  H24B 3168   2.813   2.843   4.652
   27CHL1   C25 3169   2.808   2.643   4.644
   27CHL1   H25 3170   2.767   2.548   4.687
   27CHL1   C26 3171   2.769   2.613   4.495
   27CHL1  H26A 3172   2.795   2.506   4.473
   27CHL1  H26B 3173   2.672   2.627   4.448
   27CHL1  H26C 3174   2.812   2.685   4.424
   27CHL1   C27 3175   2.948   2.684   4.713
   27CHL1  H27A 3176   2.993   2.679   4.813
   27CHL1  H27B 3177   3.032   2.705   4.652
   27CHL1  H27C 3178   2.950   2.595   4.773
   28CHL1    C3 3179   4.603   2.240   5.983
   28CHL1    H3 3180   4.579   2.343   5.944
   28CHL1    O3 3181   4.566   2.229   6.119
   28CHL1   H3' 3182   4.625   2.285   6.168
   28CHL1    C4 3183   4.522   2.138   5.903
   28CHL1   H4A 3184   4.542   2.035   5.938
   28CHL1   H4B 3185   4.414   2.156   5.922
   28CHL1    C5 3186   4.556   2.148   5.756
   28CHL1    C6 3187   4.460   2.173   5.667
   28CHL1    H6 3188   4.357   2.183   5.702
   28CHL1    C7 3189   4.484   2.183   5.520
   28CHL1   H7A 3190   4.408   2.126   5.463
   28CHL1   H7B 3191   4.481   2.290   5.493
   28CHL1    C8 3192   4.621   2.129   5.476
   28CHL1    H8 3193   4.623   2.019   5.487
   28CHL1   C14 3194   4.647   2.170   5.331
   28CHL1   H14 3195   4.649   2.282   5.332
   28CHL1   C15 3196   4.545   2.135   5.220
   28CHL1  H15A 3197   4.510   2.029   5.224
   28CHL1  H15B 3198   4.458   2.204   5.224
   28CHL1   C16 3199   4.624   2.155   5.090
   28CHL1  H16A 3200   4.616   2.068   5.021
   28CHL1  H16B 3201   4.593   2.247   5.036
   28CHL1   C17 3202   4.771   2.176   5.129
   28CHL1   H17 3203   4.787   2.286   5.138
   28CHL1   C13 3204   4.780   2.125   5.276
   28CHL1   C18 3205   4.787   1.970   5.278
   28CHL1  H18A 3206   4.727   1.920   5.201
   28CHL1  H18B 3207   4.890   1.944   5.258
   28CHL1  H18C 3208   4.765   1.924   5.376
   28CHL1   C12 3209   4.887   2.190   5.367
   28CHL1  H12A 3210   4.985   2.157   5.334
   28CHL1  H12B 3211   4.888   2.301   5.360
   28CHL1   C11 3212   4.869   2.151   5.515
   28CHL1  H11A 3213   4.885   2.042   5.522
   28CHL1  H11B 3214   4.949   2.201   5.574
   28CHL1    C9 3215   4.729   2.184   5.571
   28CHL1    H9 3216   4.715   2.295   5.564
   28CHL1   C10 3217   4.705   2.140   5.719
   28CHL1   C19 3218   4.755   1.995   5.746
   28CHL1  H19A 3219   4.725   1.960   5.846
   28CHL1  H19B 3220   4.722   1.921   5.672
   28CHL1  H19C 3221   4.866   1.997   5.748
   28CHL1    C1 3222   4.785   2.231   5.816
   28CHL1   H1A 3223   4.893   2.209   5.802
   28CHL1   H1B 3224   4.767   2.337   5.785
   28CHL1    C2 3225   4.752   2.211   5.965
   28CHL1   H2A 3226   4.819   2.273   6.027
   28CHL1   H2B 3227   4.767   2.106   5.999
   28CHL1   C20 3228   4.861   2.127   5.014
   28CHL1   H20 3229   4.845   2.017   5.000
   28CHL1   C21 3230   5.004   2.161   5.040
   28CHL1  H21A 3231   5.046   2.256   5.012
   28CHL1  H21B 3232   5.054   2.091   4.969
   28CHL1  H21C 3233   5.039   2.140   5.143
   28CHL1   C22 3234   4.836   2.187   4.874
   28CHL1  H22A 3235   4.730   2.175   4.848
   28CHL1  H22B 3236   4.862   2.294   4.888
   28CHL1   C23 3237   4.917   2.132   4.753
   28CHL1  H23A 3238   5.027   2.124   4.775
   28CHL1  H23B 3239   4.887   2.031   4.721
   28CHL1   C24 3240   4.900   2.221   4.630
   28CHL1  H24A 3241   4.795   2.256   4.627
   28CHL1  H24B 3242   4.952   2.317   4.639
   28CHL1   C25 3243   4.946   2.157   4.499
   28CHL1   H25 3244   5.038   2.096   4.518
   28CHL1   C26 3245   4.836   2.069   4.437
   28CHL1  H26A 3246   4.865   2.037   4.335
   28CHL1  H26B 3247   4.814   1.977   4.495
   28CHL1  H26C 3248   4.742   2.129   4.430
   28CHL1   C27 3249   4.982   2.266   4.397
   28CHL1  H27A 3250   5.045   2.221   4.318
   28CHL1  H27B 3251   4.890   2.303   4.350
   28CHL1  H27C 3252   5.037   2.350   4.445
   29CHL1    C3 3253   1.838   3.907   5.985
   29CHL1    H3 3254   1.944   3.887   5.956
   29CHL1    O3 3255   1.827   3.919   6.125
   29CHL1   H3' 3256   1.737   3.949   6.133
   29CHL1    C4 3257   1.790   4.038   5.925
   29CHL1   H4A 3258   1.690   4.069   5.960
   29CHL1   H4B 3259   1.859   4.120   5.956
   29CHL1    C5 3260   1.784   4.012   5.778
   29CHL1    C6 3261   1.863   4.071   5.701
   29CHL1    H6 3262   1.931   4.133   5.748
   29CHL1    C7 3263   1.865   4.061   5.556
   29CHL1   H7A 3264   1.827   4.151   5.527
   29CHL1   H7B 3265   1.968   4.050   5.521
   29CHL1    C8 3266   1.755   3.996   5.481
   29CHL1    H8 3267   1.660   4.054   5.487
   29CHL1   C14 3268   1.794   3.973   5.338
   29CHL1   H14 3269   1.897   3.928   5.339
   29CHL1   C15 3270   1.802   4.086   5.243
   29CHL1  H15A 3271   1.730   4.170   5.244
   29CHL1  H15B 3272   1.908   4.115   5.230
   29CHL1   C16 3273   1.783   4.025   5.114
   29CHL1  H16A 3274   1.729   4.093   5.046
   29CHL1  H16B 3275   1.882   4.005   5.089
   29CHL1   C17 3276   1.759   3.882   5.125
   29CHL1   H17 3277   1.855   3.822   5.125
   29CHL1   C13 3278   1.704   3.878   5.267
   29CHL1   C18 3279   1.562   3.939   5.267
   29CHL1  H18A 3280   1.560   4.045   5.238
   29CHL1  H18B 3281   1.501   3.884   5.195
   29CHL1  H18C 3282   1.515   3.931   5.366
   29CHL1   C12 3283   1.720   3.748   5.342
   29CHL1  H12A 3284   1.657   3.672   5.296
   29CHL1  H12B 3285   1.827   3.718   5.336
   29CHL1   C11 3286   1.682   3.765   5.490
   29CHL1  H11A 3287   1.575   3.792   5.498
   29CHL1  H11B 3288   1.703   3.672   5.544
   29CHL1    C9 3289   1.758   3.873   5.561
   29CHL1    H9 3290   1.867   3.843   5.563
   29CHL1   C10 3291   1.716   3.901   5.710
   29CHL1   C19 3292   1.574   3.954   5.723
   29CHL1  H19A 3293   1.541   4.030   5.649
   29CHL1  H19B 3294   1.522   3.865   5.703
   29CHL1  H19C 3295   1.540   3.985   5.824
   29CHL1    C1 3296   1.745   3.772   5.788
   29CHL1   H1A 3297   1.672   3.696   5.756
   29CHL1   H1B 3298   1.844   3.728   5.761
   29CHL1    C2 3299   1.747   3.792   5.940
   29CHL1   H2A 3300   1.781   3.697   5.986
   29CHL1   H2B 3301   1.643   3.816   5.973
   29CHL1   C20 3302   1.679   3.861   5.000
   29CHL1   H20 3303   1.590   3.925   4.993
   29CHL1   C21 3304   1.635   3.734   5.016
   29CHL1  H21A 3305   1.576   3.701   4.930
   29CHL1  H21B 3306   1.567   3.711   5.093
   29CHL1  H21C 3307   1.733   3.679   5.031
   29CHL1   C22 3308   1.754   3.847   4.867
   29CHL1  H22A 3309   1.782   3.949   4.849
   29CHL1  H22B 3310   1.839   3.773   4.868
   29CHL1   C23 3311   1.675   3.838   4.738
   29CHL1  H23A 3312   1.593   3.765   4.747
   29CHL1  H23B 3313   1.634   3.939   4.714
   29CHL1   C24 3314   1.766   3.794   4.629
   29CHL1  H24A 3315   1.861   3.853   4.618
   29CHL1  H24B 3316   1.796   3.688   4.651
   29CHL1   C25 3317   1.702   3.793   4.495
   29CHL1   H25 3318   1.604   3.740   4.497
   29CHL1   C26 3319   1.671   3.939   4.445
   29CHL1  H26A 3320   1.764   3.996   4.435
   29CHL1  H26B 3321   1.617   3.955   4.350
   29CHL1  H26C 3322   1.602   3.986   4.515
   29CHL1   C27 3323   1.821   3.710   4.442
   29CHL1  H27A 3324   1.787   3.665   4.362
   29CHL1  H27B 3325   1.900   3.763   4.385
   29CHL1  H27C 3326   1.822   3.601   4.450
   30CHL1    C3 3327   3.051   5.405   5.987
   30CHL1    H3 3328   2.979   5.321   5.999
   30CHL1    O3 3329   3.070   5.465   6.114
   30CHL1   H3' 3330   2.992   5.521   6.126
   30CHL1    C4 3331   3.186   5.357   5.931
   30CHL1   H4A 3332   3.255   5.444   5.931
   30CHL1   H4B 3333   3.230   5.285   6.003
   30CHL1    C5 3334   3.184   5.302   5.791
   30CHL1    C6 3335   3.229   5.180   5.754
   30CHL1    H6 3336   3.264   5.108   5.829
   30CHL1    C7 3337   3.236   5.131   5.612
   30CHL1   H7A 3338   3.331   5.078   5.588
   30CHL1   H7B 3339   3.153   5.058   5.601
   30CHL1    C8 3340   3.202   5.238   5.506
   30CHL1    H8 3341   3.285   5.291   5.471
   30CHL1   C14 3342   3.178   5.180   5.371
   30CHL1   H14 3343   3.089   5.115   5.387
   30CHL1   C15 3344   3.291   5.093   5.319
   30CHL1  H15A 3345   3.384   5.155   5.314
   30CHL1  H15B 3346   3.312   5.002   5.378
   30CHL1   C16 3347   3.238   5.066   5.180
   30CHL1  H16A 3348   3.310   5.096   5.107
   30CHL1  H16B 3349   3.215   4.959   5.163
   30CHL1   C17 3350   3.130   5.172   5.144
   30CHL1   H17 3351   3.035   5.120   5.161
   30CHL1   C13 3352   3.141   5.276   5.257
   30CHL1   C18 3353   3.245   5.380   5.212
   30CHL1  H18A 3354   3.203   5.463   5.151
   30CHL1  H18B 3355   3.283   5.433   5.296
   30CHL1  H18C 3356   3.331   5.335   5.159
   30CHL1   C12 3357   3.019   5.352   5.306
   30CHL1  H12A 3358   2.979   5.421   5.230
   30CHL1  H12B 3359   2.944   5.273   5.324
   30CHL1   C11 3360   3.050   5.429   5.437
   30CHL1  H11A 3361   3.123   5.512   5.418
   30CHL1  H11B 3362   2.957   5.477   5.472
   30CHL1    C9 3363   3.098   5.337   5.554
   30CHL1    H9 3364   3.012   5.270   5.576
   30CHL1   C10 3365   3.125   5.404   5.693
   30CHL1   C19 3366   3.219   5.525   5.691
   30CHL1  H19A 3367   3.227   5.594   5.775
   30CHL1  H19B 3368   3.316   5.484   5.722
   30CHL1  H19C 3369   3.225   5.578   5.593
   30CHL1    C1 3370   2.993   5.462   5.747
   30CHL1   H1A 3371   2.966   5.546   5.680
   30CHL1   H1B 3372   2.916   5.383   5.738
   30CHL1    C2 3373   2.997   5.512   5.893
   30CHL1   H2A 3374   2.897   5.545   5.925
   30CHL1   H2B 3375   3.067   5.598   5.903
   30CHL1   C20 3376   3.142   5.219   4.997
   30CHL1   H20 3377   3.235   5.279   4.984
   30CHL1   C21 3378   3.024   5.312   4.960
   30CHL1  H21A 3379   2.929   5.256   4.953
   30CHL1  H21B 3380   3.045   5.358   4.861
   30CHL1  H21C 3381   3.008   5.396   5.030
   30CHL1   C22 3382   3.165   5.102   4.895
   30CHL1  H22A 3383   3.269   5.068   4.902
   30CHL1  H22B 3384   3.104   5.014   4.924
   30CHL1   C23 3385   3.144   5.134   4.744
   30CHL1  H23A 3386   3.037   5.112   4.728
   30CHL1  H23B 3387   3.163   5.241   4.720
   30CHL1   C24 3388   3.235   5.054   4.648
   30CHL1  H24A 3389   3.340   5.044   4.684
   30CHL1  H24B 3390   3.194   4.954   4.649
   30CHL1   C25 3391   3.244   5.093   4.498
   30CHL1   H25 3392   3.271   5.201   4.487
   30CHL1   C26 3393   3.352   5.009   4.428
   30CHL1  H26A 3394   3.449   5.023   4.477
   30CHL1  H26B 3395   3.333   4.901   4.435
   30CHL1  H26C 3396   3.362   5.037   4.321
   30CHL1   C27 3397   3.112   5.063   4.431
   30CHL1  H27A 3398   3.121   5.068   4.320
   30CHL1  H27B 3399   3.082   4.960   4.459
   30CHL1  H27C 3400   3.034   5.132   4.468
   31CHL1    C3 3401   1.600   4.670   5.977
   31CHL1    H3 3402   1.576   4.565   5.951
   31CHL1    O3 3403   1.623   4.673   6.118
   31CHL1   H3' 3404   1.534   4.680   6.158
   31CHL1    C4 3405   1.725   4.713   5.897
   31CHL1   H4A 3406   1.756   4.814   5.928
   31CHL1   H4B 3407   1.804   4.640   5.928
   31CHL1    C5 3408   1.698   4.716   5.747
   31CHL1    C6 3409   1.769   4.645   5.660
   31CHL1    H6 3410   1.857   4.594   5.693
   31CHL1    C7 3411   1.747   4.643   5.513
   31CHL1   H7A 3412   1.844   4.646   5.459
   31CHL1   H7B 3413   1.696   4.546   5.489
   31CHL1    C8 3414   1.659   4.758   5.461
   31CHL1    H8 3415   1.718   4.851   5.464
   31CHL1   C14 3416   1.619   4.732   5.317
   31CHL1   H14 3417   1.568   4.631   5.318
   31CHL1   C15 3418   1.729   4.720   5.212
   31CHL1  H15A 3419   1.798   4.806   5.225
   31CHL1  H15B 3420   1.785   4.625   5.218
   31CHL1   C16 3421   1.654   4.733   5.078
   31CHL1  H16A 3422   1.710   4.801   5.011
   31CHL1  H16B 3423   1.640   4.633   5.031
   31CHL1   C17 3424   1.512   4.787   5.111
   31CHL1   H17 3425   1.443   4.700   5.112
   31CHL1   C13 3426   1.524   4.836   5.259
   31CHL1   C18 3427   1.590   4.975   5.254
   31CHL1  H18A 3428   1.636   5.016   5.347
   31CHL1  H18B 3429   1.664   4.984   5.173
   31CHL1  H18C 3430   1.502   5.036   5.232
   31CHL1   C12 3431   1.396   4.840   5.342
   31CHL1  H12A 3432   1.331   4.922   5.303
   31CHL1  H12B 3433   1.346   4.743   5.326
   31CHL1   C11 3434   1.426   4.863   5.492
   31CHL1  H11A 3435   1.461   4.968   5.499
   31CHL1  H11B 3436   1.333   4.855   5.553
   31CHL1    C9 3437   1.537   4.769   5.551
   31CHL1    H9 3438   1.495   4.665   5.552
   31CHL1   C10 3439   1.579   4.801   5.698
   31CHL1   C19 3440   1.629   4.948   5.708
   31CHL1  H19A 3441   1.719   4.968   5.646
   31CHL1  H19B 3442   1.554   5.024   5.681
   31CHL1  H19C 3443   1.655   4.968   5.814
   31CHL1    C1 3444   1.458   4.775   5.791
   31CHL1   H1A 3445   1.387   4.858   5.774
   31CHL1   H1B 3446   1.408   4.681   5.758
   31CHL1    C2 3447   1.486   4.765   5.942
   31CHL1   H2A 3448   1.392   4.727   5.988
   31CHL1   H2B 3449   1.508   4.866   5.984
   31CHL1   C20 3450   1.455   4.874   4.998
   31CHL1   H20 3451   1.512   4.970   4.992
   31CHL1   C21 3452   1.309   4.901   5.033
   31CHL1  H21A 3453   1.252   4.943   4.951
   31CHL1  H21B 3454   1.312   4.984   5.104
   31CHL1  H21C 3455   1.245   4.817   5.060
   31CHL1   C22 3456   1.458   4.811   4.857
   31CHL1  H22A 3457   1.513   4.715   4.858
   31CHL1  H22B 3458   1.353   4.782   4.829
   31CHL1   C23 3459   1.518   4.902   4.747
   31CHL1  H23A 3460   1.470   5.002   4.739
   31CHL1  H23B 3461   1.620   4.929   4.776
   31CHL1   C24 3462   1.514   4.831   4.611
   31CHL1  H24A 3463   1.594   4.754   4.609
   31CHL1  H24B 3464   1.419   4.774   4.603
   31CHL1   C25 3465   1.534   4.924   4.488
   31CHL1   H25 3466   1.469   5.013   4.483
   31CHL1   C26 3467   1.670   4.987   4.486
   31CHL1  H26A 3468   1.671   5.065   4.407
   31CHL1  H26B 3469   1.695   5.030   4.585
   31CHL1  H26C 3470   1.738   4.904   4.459
   31CHL1   C27 3471   1.509   4.854   4.357
   31CHL1  H27A 3472   1.403   4.820   4.350
   31CHL1  H27B 3473   1.527   4.927   4.275
   31CHL1  H27C 3474   1.580   4.769   4.349
   32CHL1    C3 3475   4.506   1.368   5.982
   32CHL1    H3 3476   4.413   1.307   5.978
   32CHL1    O3 3477   4.541   1.379   6.118
   32CHL1   H3' 3478   4.548   1.286   6.146
   32CHL1    C4 3479   4.616   1.292   5.906
   32CHL1   H4A 3480   4.713   1.344   5.918
   32CHL1   H4B 3481   4.630   1.194   5.957
   32CHL1    C5 3482   4.579   1.279   5.760
   32CHL1    C6 3483   4.562   1.161   5.697
   32CHL1    H6 3484   4.576   1.064   5.749
   32CHL1    C7 3485   4.534   1.154   5.551
   32CHL1   H7A 3486   4.592   1.070   5.507
   32CHL1   H7B 3487   4.425   1.136   5.531
   32CHL1    C8 3488   4.569   1.285   5.475
   32CHL1    H8 3489   4.680   1.297   5.473
   32CHL1   C14 3490   4.515   1.275   5.334
   32CHL1   H14 3491   4.405   1.266   5.349
   32CHL1   C15 3492   4.557   1.153   5.250
   32CHL1  H15A 3493   4.668   1.144   5.252
   32CHL1  H15B 3494   4.514   1.056   5.282
   32CHL1   C16 3495   4.514   1.190   5.108
   32CHL1  H16A 3496   4.600   1.176   5.039
   32CHL1  H16B 3497   4.429   1.129   5.073
   32CHL1   C17 3498   4.471   1.340   5.114
   32CHL1   H17 3499   4.361   1.335   5.135
   32CHL1   C13 3500   4.534   1.397   5.244
   32CHL1   C18 3501   4.683   1.427   5.216
   32CHL1  H18A 3502   4.731   1.342   5.163
   32CHL1  H18B 3503   4.694   1.516   5.150
   32CHL1  H18C 3504   4.738   1.445   5.310
   32CHL1   C12 3505   4.461   1.514   5.315
   32CHL1  H12A 3506   4.481   1.609   5.261
   32CHL1  H12B 3507   4.352   1.492   5.317
   32CHL1   C11 3508   4.511   1.533   5.459
   32CHL1  H11A 3509   4.617   1.564   5.450
   32CHL1  H11B 3510   4.453   1.617   5.505
   32CHL1    C9 3511   4.504   1.404   5.545
   32CHL1    H9 3512   4.394   1.383   5.550
   32CHL1   C10 3513   4.552   1.415   5.692
   32CHL1   C19 3514   4.680   1.503   5.694
   32CHL1  H19A 3515   4.753   1.470   5.617
   32CHL1  H19B 3516   4.649   1.607   5.674
   32CHL1  H19C 3517   4.728   1.505   5.793
   32CHL1    C1 3518   4.441   1.487   5.772
   32CHL1   H1A 3519   4.419   1.586   5.726
   32CHL1   H1B 3520   4.348   1.426   5.768
   32CHL1    C2 3521   4.478   1.506   5.920
   32CHL1   H2A 3522   4.395   1.558   5.971
   32CHL1   H2B 3523   4.568   1.570   5.931
   32CHL1   C20 3524   4.490   1.412   4.980
   32CHL1   H20 3525   4.598   1.425   4.957
   32CHL1   C21 3526   4.418   1.549   4.981
   32CHL1  H21A 3527   4.377   1.573   4.881
   32CHL1  H21B 3528   4.489   1.629   5.010
   32CHL1  H21C 3529   4.332   1.548   5.051
   32CHL1   C22 3530   4.443   1.333   4.858
   32CHL1  H22A 3531   4.463   1.225   4.860
   32CHL1  H22B 3532   4.335   1.345   4.864
   32CHL1   C23 3533   4.501   1.389   4.727
   32CHL1  H23A 3534   4.441   1.480   4.704
   32CHL1  H23B 3535   4.602   1.427   4.743
   32CHL1   C24 3536   4.497   1.288   4.609
   32CHL1  H24A 3537   4.421   1.210   4.631
   32CHL1  H24B 3538   4.467   1.338   4.513
   32CHL1   C25 3539   4.611   1.198   4.585
   32CHL1   H25 3540   4.640   1.153   4.682
   32CHL1   C26 3541   4.565   1.084   4.500
   32CHL1  H26A 3542   4.489   1.017   4.544
   32CHL1  H26B 3543   4.530   1.121   4.400
   32CHL1  H26C 3544   4.660   1.028   4.489
   32CHL1   C27 3545   4.721   1.273   4.513
   32CHL1  H27A 3546   4.681   1.330   4.425
   32CHL1  H27B 3547   4.766   1.345   4.583
   32CHL1  H27C 3548   4.797   1.201   4.478
   33CHL1    C3 3549   1.174   3.564   5.982
   33CHL1    H3 3550   1.080   3.506   5.972
   33CHL1    O3 3551   1.203   3.567   6.120
   33CHL1   H3' 3552   1.220   3.659   6.143
   33CHL1    C4 3553   1.283   3.488   5.910
   33CHL1   H4A 3554   1.386   3.523   5.935
   33CHL1   H4B 3555   1.278   3.385   5.951
   33CHL1    C5 3556   1.244   3.491   5.762
   33CHL1    C6 3557   1.203   3.382   5.699
   33CHL1    H6 3558   1.211   3.288   5.755
   33CHL1    C7 3559   1.199   3.368   5.548
   33CHL1   H7A 3560   1.258   3.285   5.503
   33CHL1   H7B 3561   1.102   3.333   5.522
   33CHL1    C8 3562   1.258   3.490   5.474
   33CHL1    H8 3563   1.370   3.495   5.481
   33CHL1   C14 3564   1.211   3.483   5.331
   33CHL1   H14 3565   1.101   3.475   5.336
   33CHL1   C15 3566   1.239   3.360   5.249
   33CHL1  H15A 3567   1.337   3.374   5.286
   33CHL1  H15B 3568   1.199   3.262   5.278
   33CHL1   C16 3569   1.241   3.395   5.102
   33CHL1  H16A 3570   1.339   3.392   5.050
   33CHL1  H16B 3571   1.175   3.326   5.046
   33CHL1   C17 3572   1.202   3.543   5.108
   33CHL1   H17 3573   1.092   3.536   5.119
   33CHL1   C13 3574   1.255   3.597   5.244
   33CHL1   C18 3575   1.408   3.616   5.240
   33CHL1  H18A 3576   1.464   3.543   5.179
   33CHL1  H18B 3577   1.420   3.715   5.195
   33CHL1  H18C 3578   1.459   3.625   5.337
   33CHL1   C12 3579   1.190   3.719   5.308
   33CHL1  H12A 3580   1.209   3.813   5.255
   33CHL1  H12B 3581   1.082   3.695   5.310
   33CHL1   C11 3582   1.232   3.740   5.454
   33CHL1  H11A 3583   1.339   3.768   5.451
   33CHL1  H11B 3584   1.174   3.823   5.498
   33CHL1    C9 3585   1.205   3.615   5.540
   33CHL1    H9 3586   1.094   3.603   5.537
   33CHL1   C10 3587   1.246   3.623   5.690
   33CHL1   C19 3588   1.384   3.685   5.694
   33CHL1  H19A 3589   1.368   3.789   5.658
   33CHL1  H19B 3590   1.428   3.691   5.795
   33CHL1  H19C 3591   1.460   3.638   5.627
   33CHL1    C1 3592   1.140   3.703   5.772
   33CHL1   H1A 3593   1.135   3.807   5.735
   33CHL1   H1B 3594   1.041   3.655   5.753
   33CHL1    C2 3595   1.159   3.706   5.926
   33CHL1   H2A 3596   1.073   3.758   5.972
   33CHL1   H2B 3597   1.250   3.764   5.952
   33CHL1   C20 3598   1.237   3.610   4.977
   33CHL1   H20 3599   1.344   3.595   4.955
   33CHL1   C21 3600   1.207   3.758   4.975
   33CHL1  H21A 3601   1.248   3.810   4.886
   33CHL1  H21B 3602   1.236   3.814   5.064
   33CHL1  H21C 3603   1.098   3.763   4.965
   33CHL1   C22 3604   1.155   3.544   4.864
   33CHL1  H22A 3605   1.175   3.435   4.861
   33CHL1  H22B 3606   1.046   3.558   4.885
   33CHL1   C23 3607   1.187   3.603   4.727
   33CHL1  H23A 3608   1.177   3.714   4.724
   33CHL1  H23B 3609   1.294   3.583   4.703
   33CHL1   C24 3610   1.092   3.544   4.624
   33CHL1  H24A 3611   1.101   3.435   4.619
   33CHL1  H24B 3612   0.987   3.568   4.657
   33CHL1   C25 3613   1.124   3.590   4.484
   33CHL1   H25 3614   1.174   3.691   4.494
   33CHL1   C26 3615   1.226   3.514   4.412
   33CHL1  H26A 3616   1.322   3.515   4.468
   33CHL1  H26B 3617   1.183   3.414   4.401
   33CHL1  H26C 3618   1.235   3.561   4.312
   33CHL1   C27 3619   1.000   3.579   4.392
   33CHL1  H27A 3620   0.915   3.630   4.443
   33CHL1  H27B 3621   1.021   3.632   4.294
   33CHL1  H27C 3622   0.967   3.479   4.368
   34CHL1    C3 3623   2.371   5.841   5.985
   34CHL1    H3 3624   2.469   5.844   5.932
   34CHL1    O3 3625   2.390   5.881   6.120
   34CHL1   H3' 3626   2.309   5.856   6.169
   34CHL1    C4 3627   2.277   5.941   5.919
   34CHL1   H4A 3628   2.181   5.937   5.976
   34CHL1   H4B 3629   2.312   6.045   5.929
   34CHL1    C5 3630   2.265   5.902   5.775
   34CHL1    C6 3631   2.302   5.984   5.676
   34CHL1    H6 3632   2.340   6.083   5.700
   34CHL1    C7 3633   2.284   5.955   5.532
   34CHL1   H7A 3634   2.245   6.043   5.477
   34CHL1   H7B 3635   2.378   5.920   5.484
   34CHL1    C8 3636   2.187   5.844   5.512
   34CHL1    H8 3637   2.089   5.895   5.542
   34CHL1   C14 3638   2.211   5.797   5.363
   34CHL1   H14 3639   2.312   5.762   5.348
   34CHL1   C15 3640   2.187   5.896   5.244
   34CHL1  H15A 3641   2.097   5.962   5.255
   34CHL1  H15B 3642   2.274   5.962   5.238
   34CHL1   C16 3643   2.173   5.806   5.119
   34CHL1  H16A 3644   2.091   5.837   5.052
   34CHL1  H16B 3645   2.269   5.810   5.062
   34CHL1   C17 3646   2.150   5.659   5.167
   34CHL1   H17 3647   2.243   5.606   5.162
   34CHL1   C13 3648   2.146   5.671   5.327
   34CHL1   C18 3649   2.042   5.749   5.380
   34CHL1  H18A 3650   1.986   5.742   5.474
   34CHL1  H18B 3651   1.988   5.841   5.351
   34CHL1  H18C 3652   2.017   5.659   5.318
   34CHL1   C12 3653   2.149   5.544   5.419
   34CHL1  H12A 3654   2.063   5.474   5.397
   34CHL1  H12B 3655   2.241   5.496   5.388
   34CHL1   C11 3656   2.137   5.587   5.568
   34CHL1  H11A 3657   2.037   5.611   5.590
   34CHL1  H11B 3658   2.154   5.505   5.639
   34CHL1    C9 3659   2.205   5.723   5.605
   34CHL1    H9 3660   2.301   5.694   5.571
   34CHL1   C10 3661   2.210   5.764   5.754
   34CHL1   C19 3662   2.075   5.777   5.815
   34CHL1  H19A 3663   2.061   5.802   5.921
   34CHL1  H19B 3664   2.013   5.849   5.756
   34CHL1  H19C 3665   2.037   5.673   5.819
   34CHL1    C1 3666   2.272   5.655   5.839
   34CHL1   H1A 3667   2.210   5.564   5.837
   34CHL1   H1B 3668   2.360   5.620   5.792
   34CHL1    C2 3669   2.313   5.697   5.981
   34CHL1   H2A 3670   2.389   5.624   6.016
   34CHL1   H2B 3671   2.223   5.688   6.044
   34CHL1   C20 3672   2.059   5.572   5.073
   34CHL1   H20 3673   1.953   5.592   5.085
   34CHL1   C21 3674   2.041   5.424   5.110
   34CHL1  H21A 3675   1.984   5.371   5.032
   34CHL1  H21B 3676   1.988   5.414   5.207
   34CHL1  H21C 3677   2.133   5.372   5.117
   34CHL1   C22 3678   2.077   5.596   4.921
   34CHL1  H22A 3679   2.004   5.531   4.868
   34CHL1  H22B 3680   2.057   5.701   4.889
   34CHL1   C23 3681   2.215   5.587   4.866
   34CHL1  H23A 3682   2.287   5.627   4.942
   34CHL1  H23B 3683   2.229   5.480   4.847
   34CHL1   C24 3684   2.225   5.657   4.731
   34CHL1  H24A 3685   2.141   5.618   4.669
   34CHL1  H24B 3686   2.230   5.766   4.745
   34CHL1   C25 3687   2.356   5.633   4.663
   34CHL1   H25 3688   2.347   5.526   4.665
   34CHL1   C26 3689   2.369   5.646   4.508
   34CHL1  H26A 3690   2.393   5.751   4.487
   34CHL1  H26B 3691   2.451   5.588   4.459
   34CHL1  H26C 3692   2.280   5.604   4.459
   34CHL1   C27 3693   2.471   5.690   4.751
   34CHL1  H27A 3694   2.507   5.784   4.711
   34CHL1  H27B 3695   2.466   5.664   4.858
   34CHL1  H27C 3696   2.574   5.656   4.740
   35CHL1    C3 3697   3.080   6.248   5.988
   35CHL1    H3 3698   3.020   6.341   5.997
   35CHL1    O3 3699   3.100   6.195   6.117
   35CHL1   H3' 3700   3.128   6.273   6.170
   35CHL1    C4 3701   3.010   6.143   5.900
   35CHL1   H4A 3702   3.071   6.050   5.904
   35CHL1   H4B 3703   2.912   6.112   5.941
   35CHL1    C5 3704   2.995   6.188   5.758
   35CHL1    C6 3705   2.876   6.193   5.697
   35CHL1    H6 3706   2.784   6.165   5.751
   35CHL1    C7 3707   2.857   6.226   5.553
   35CHL1   H7A 3708   2.780   6.161   5.505
   35CHL1   H7B 3709   2.825   6.331   5.544
   35CHL1    C8 3710   2.991   6.215   5.478
   35CHL1    H8 3711   3.019   6.108   5.467
   35CHL1   C14 3712   2.973   6.277   5.342
   35CHL1   H14 3713   2.952   6.386   5.360
   35CHL1   C15 3714   2.857   6.231   5.253
   35CHL1  H15A 3715   2.858   6.120   5.259
   35CHL1  H15B 3716   2.759   6.273   5.283
   35CHL1   C16 3717   2.900   6.270   5.114
   35CHL1  H16A 3718   2.902   6.180   5.047
   35CHL1  H16B 3719   2.840   6.351   5.066
   35CHL1   C17 3720   3.044   6.321   5.126
   35CHL1   H17 3721   3.034   6.431   5.142
   35CHL1   C13 3722   3.098   6.269   5.258
   35CHL1   C18 3723   3.155   6.130   5.233
   35CHL1  H18A 3724   3.082   6.075   5.171
   35CHL1  H18B 3725   3.253   6.135   5.180
   35CHL1  H18C 3726   3.173   6.078   5.329
   35CHL1   C12 3727   3.196   6.352   5.335
   35CHL1  H12A 3728   3.294   6.354   5.282
   35CHL1  H12B 3729   3.144   6.451   5.346
   35CHL1   C11 3730   3.229   6.310   5.476
   35CHL1  H11A 3731   3.291   6.219   5.465
   35CHL1  H11B 3732   3.291   6.387   5.529
   35CHL1    C9 3733   3.101   6.290   5.556
   35CHL1    H9 3734   3.062   6.395   5.569
   35CHL1   C10 3735   3.128   6.230   5.696
   35CHL1   C19 3736   3.218   6.105   5.681
   35CHL1  H19A 3737   3.226   6.043   5.772
   35CHL1  H19B 3738   3.177   6.039   5.602
   35CHL1  H19C 3739   3.321   6.137   5.655
   35CHL1    C1 3740   3.198   6.336   5.788
   35CHL1   H1A 3741   3.299   6.364   5.749
   35CHL1   H1B 3742   3.133   6.426   5.787
   35CHL1    C2 3743   3.216   6.291   5.933
   35CHL1   H2A 3744   3.254   6.375   5.995
   35CHL1   H2B 3745   3.291   6.209   5.943
   35CHL1   C20 3746   3.113   6.287   4.993
   35CHL1   H20 3747   3.134   6.183   4.966
   35CHL1   C21 3748   3.255   6.327   4.991
   35CHL1  H21A 3749   3.223   6.403   5.058
   35CHL1  H21B 3750   3.294   6.366   4.899
   35CHL1  H21C 3751   3.335   6.274   5.043
   35CHL1   C22 3752   3.025   6.350   4.887
   35CHL1  H22A 3753   2.932   6.294   4.880
   35CHL1  H22B 3754   3.004   6.460   4.897
   35CHL1   C23 3755   3.074   6.310   4.754
   35CHL1  H23A 3756   3.130   6.396   4.768
   35CHL1  H23B 3757   3.160   6.240   4.745
   35CHL1   C24 3758   2.975   6.331   4.636
   35CHL1  H24A 3759   2.912   6.242   4.641
   35CHL1  H24B 3760   2.924   6.429   4.649
   35CHL1   C25 3761   3.023   6.333   4.490
   35CHL1   H25 3762   3.067   6.434   4.476
   35CHL1   C26 3763   3.114   6.216   4.462
   35CHL1  H26A 3764   3.174   6.228   4.366
   35CHL1  H26B 3765   3.177   6.234   4.549
   35CHL1  H26C 3766   3.119   6.121   4.510
   35CHL1   C27 3767   2.928   6.326   4.380
   35CHL1  H27A 3768   2.852   6.403   4.399
   35CHL1  H27B 3769   2.986   6.343   4.285
   35CHL1  H27C 3770   2.894   6.222   4.391
   36CHL1    C3 3771   0.899   4.242   5.985
   36CHL1    H3 3772   0.971   4.308   5.931
   36CHL1    O3 3773   0.888   4.288   6.119
   36CHL1   H3' 3774   0.846   4.216   6.170
   36CHL1    C4 3775   0.762   4.253   5.918
   36CHL1   H4A 3776   0.692   4.187   5.975
   36CHL1   H4B 3777   0.721   4.355   5.928
   36CHL1    C5 3778   0.775   4.212   5.773
   36CHL1    C6 3779   0.751   4.299   5.674
   36CHL1    H6 3780   0.719   4.401   5.699
   36CHL1    C7 3781   0.756   4.262   5.530
   36CHL1   H7A 3782   0.671   4.309   5.476
   36CHL1   H7B 3783   0.849   4.301   5.484
   36CHL1    C8 3784   0.753   4.109   5.504
   36CHL1    H8 3785   0.650   4.071   5.523
   36CHL1   C14 3786   0.794   4.083   5.360
   36CHL1   H14 3787   0.898   4.124   5.349
   36CHL1   C15 3788   0.718   4.155   5.246
   36CHL1  H15A 3789   0.608   4.147   5.258
   36CHL1  H15B 3790   0.745   4.262   5.241
   36CHL1   C16 3791   0.766   4.079   5.122
   36CHL1  H16A 3792   0.683   4.050   5.055
   36CHL1  H16B 3793   0.836   4.145   5.066
   36CHL1   C17 3794   0.840   3.951   5.172
   36CHL1   H17 3795   0.949   3.979   5.171
   36CHL1   C13 3796   0.803   3.936   5.322
   36CHL1   C18 3797   0.665   3.868   5.340
   36CHL1  H18A 3798   0.643   3.854   5.448
   36CHL1  H18B 3799   0.582   3.926   5.295
   36CHL1  H18C 3800   0.669   3.766   5.299
   36CHL1   C12 3801   0.902   3.863   5.416
   36CHL1  H12A 3802   0.896   3.754   5.397
   36CHL1  H12B 3803   1.003   3.898   5.389
   36CHL1   C11 3804   0.869   3.887   5.566
   36CHL1  H11A 3805   0.777   3.831   5.592
   36CHL1  H11B 3806   0.945   3.844   5.633
   36CHL1    C9 3807   0.849   4.037   5.600
   36CHL1    H9 3808   0.948   4.082   5.577
   36CHL1   C10 3809   0.820   4.068   5.750
   36CHL1   C19 3810   0.706   3.977   5.804
   36CHL1  H19A 3811   0.687   3.999   5.911
   36CHL1  H19B 3812   0.612   3.991   5.747
   36CHL1  H19C 3813   0.734   3.870   5.803
   36CHL1    C1 3814   0.949   4.041   5.831
   36CHL1   H1A 3815   0.962   3.931   5.832
   36CHL1   H1B 3816   1.034   4.085   5.776
   36CHL1    C2 3817   0.951   4.096   5.976
   36CHL1   H2A 3818   1.056   4.092   6.013
   36CHL1   H2B 3819   0.888   4.030   6.040
   36CHL1   C20 3820   0.819   3.832   5.076
   36CHL1   H20 3821   0.716   3.792   5.088
   36CHL1   C21 3822   0.910   3.715   5.114
   36CHL1  H21A 3823   0.911   3.636   5.035
   36CHL1  H21B 3824   0.883   3.668   5.209
   36CHL1  H21C 3825   1.013   3.751   5.129
   36CHL1   C22 3826   0.832   3.866   4.925
   36CHL1  H22A 3827   0.824   3.769   4.870
   36CHL1  H22B 3828   0.745   3.927   4.893
   36CHL1   C23 3829   0.954   3.952   4.882
   36CHL1  H23A 3830   0.978   4.030   4.955
   36CHL1  H23B 3831   1.044   3.895   4.858
   36CHL1   C24 3832   0.935   4.018   4.748
   36CHL1  H24A 3833   0.881   3.928   4.711
   36CHL1  H24B 3834   0.861   4.098   4.747
   36CHL1   C25 3835   1.068   4.060   4.672
   36CHL1   H25 3836   1.136   3.970   4.669
   36CHL1   C26 3837   1.061   4.132   4.534
   36CHL1  H26A 3838   0.983   4.206   4.512
   36CHL1  H26B 3839   1.157   4.145   4.481
   36CHL1  H26C 3840   1.017   4.071   4.464
   36CHL1   C27 3841   1.132   4.173   4.746
   36CHL1  H27A 3842   1.089   4.267   4.702
   36CHL1  H27B 3843   1.103   4.165   4.851
   36CHL1  H27C 3844   1.242   4.173   4.732
   37CHL1    C3 3845   1.037   1.807   5.980
   37CHL1    H3 3846   1.059   1.697   5.992
   37CHL1    O3 3847   1.047   1.860   6.113
   37CHL1   H3' 3848   0.981   1.816   6.166
   37CHL1    C4 3849   1.148   1.860   5.891
   37CHL1   H4A 3850   1.141   1.967   5.912
   37CHL1   H4B 3851   1.245   1.820   5.929
   37CHL1    C5 3852   1.137   1.847   5.741
   37CHL1    C6 3853   1.238   1.807   5.660
   37CHL1    H6 3854   1.335   1.777   5.703
   37CHL1    C7 3855   1.218   1.782   5.512
   37CHL1   H7A 3856   1.305   1.807   5.451
   37CHL1   H7B 3857   1.204   1.674   5.490
   37CHL1    C8 3858   1.091   1.850   5.457
   37CHL1    H8 3859   1.110   1.959   5.462
   37CHL1   C14 3860   1.059   1.798   5.317
   37CHL1   H14 3861   1.031   1.691   5.333
   37CHL1   C15 3862   1.168   1.788   5.211
   37CHL1  H15A 3863   1.229   1.874   5.194
   37CHL1  H15B 3864   1.239   1.710   5.238
   37CHL1   C16 3865   1.095   1.774   5.078
   37CHL1  H16A 3866   1.126   1.857   5.010
   37CHL1  H16B 3867   1.118   1.677   5.031
   37CHL1   C17 3868   0.945   1.790   5.110
   37CHL1   H17 3869   0.908   1.687   5.130
   37CHL1   C13 3870   0.942   1.859   5.247
   37CHL1   C18 3871   0.952   2.000   5.226
   37CHL1  H18A 3872   0.856   2.047   5.195
   37CHL1  H18B 3873   0.982   2.049   5.321
   37CHL1  H18C 3874   1.026   2.015   5.146
   37CHL1   C12 3875   0.827   1.851   5.337
   37CHL1  H12A 3876   0.735   1.903   5.300
   37CHL1  H12B 3877   0.829   1.742   5.326
   37CHL1   C11 3878   0.845   1.892   5.481
   37CHL1  H11A 3879   0.840   2.001   5.479
   37CHL1  H11B 3880   0.756   1.873   5.541
   37CHL1    C9 3881   0.969   1.828   5.543
   37CHL1    H9 3882   0.950   1.717   5.543
   37CHL1   C10 3883   0.994   1.874   5.686
   37CHL1   C19 3884   0.968   2.024   5.701
   37CHL1  H19A 3885   0.967   2.050   5.808
   37CHL1  H19B 3886   1.046   2.083   5.651
   37CHL1  H19C 3887   0.868   2.056   5.666
   37CHL1    C1 3888   0.891   1.807   5.770
   37CHL1   H1A 3889   0.789   1.837   5.744
   37CHL1   H1B 3890   0.894   1.699   5.748
   37CHL1    C2 3891   0.899   1.847   5.915
   37CHL1   H2A 3892   0.807   1.792   5.932
   37CHL1   H2B 3893   0.856   1.940   5.951
   37CHL1   C20 3894   0.876   1.850   4.988
   37CHL1   H20 3895   0.925   1.943   4.954
   37CHL1   C21 3896   0.737   1.899   5.021
   37CHL1  H21A 3897   0.702   1.961   5.102
   37CHL1  H21B 3898   0.706   1.812   5.077
   37CHL1  H21C 3899   0.679   1.922   4.928
   37CHL1   C22 3900   0.886   1.747   4.869
   37CHL1  H22A 3901   0.994   1.739   4.845
   37CHL1  H22B 3902   0.852   1.644   4.893
   37CHL1   C23 3903   0.827   1.791   4.736
   37CHL1  H23A 3904   0.717   1.794   4.741
   37CHL1  H23B 3905   0.859   1.896   4.722
   37CHL1   C24 3906   0.869   1.702   4.617
   37CHL1  H24A 3907   0.977   1.702   4.599
   37CHL1  H24B 3908   0.852   1.598   4.650
   37CHL1   C25 3909   0.787   1.736   4.488
   37CHL1   H25 3910   0.686   1.745   4.530
   37CHL1   C26 3911   0.800   1.874   4.435
   37CHL1  H26A 3912   0.737   1.877   4.342
   37CHL1  H26B 3913   0.757   1.939   4.513
   37CHL1  H26C 3914   0.906   1.894   4.416
   37CHL1   C27 3915   0.795   1.642   4.362
   37CHL1  H27A 3916   0.798   1.530   4.369
   37CHL1  H27B 3917   0.749   1.664   4.266
   37CHL1  H27C 3918   0.892   1.672   4.352
   38CHL1    C3 3919   3.165   0.636   5.981
   38CHL1    H3 3920   3.073   0.697   5.969
   38CHL1    O3 3921   3.185   0.610   6.119
   38CHL1   H3' 3922   3.194   0.698   6.154
   38CHL1    C4 3923   3.147   0.504   5.913
   38CHL1   H4A 3924   3.237   0.441   5.937
   38CHL1   H4B 3925   3.063   0.447   5.960
   38CHL1    C5 3926   3.130   0.526   5.764
   38CHL1    C6 3927   3.021   0.482   5.699
   38CHL1    H6 3928   2.941   0.434   5.757
   38CHL1    C7 3929   3.007   0.473   5.550
   38CHL1   H7A 3930   2.971   0.372   5.518
   38CHL1   H7B 3931   2.931   0.546   5.519
   38CHL1    C8 3932   3.142   0.504   5.479
   38CHL1    H8 3933   3.205   0.413   5.486
   38CHL1   C14 3934   3.116   0.538   5.334
   38CHL1   H14 3935   3.049   0.628   5.333
   38CHL1   C15 3936   3.044   0.431   5.255
   38CHL1  H15A 3937   3.083   0.330   5.276
   38CHL1  H15B 3938   2.941   0.422   5.279
   38CHL1   C16 3939   3.059   0.478   5.111
   38CHL1  H16A 3940   3.095   0.388   5.057
   38CHL1  H16B 3941   2.964   0.512   5.064
   38CHL1   C17 3942   3.171   0.588   5.107
   38CHL1   H17 3943   3.122   0.688   5.102
   38CHL1   C13 3944   3.237   0.576   5.248
   38CHL1   C18 3945   3.333   0.455   5.244
   38CHL1  H18A 3946   3.415   0.477   5.173
   38CHL1  H18B 3947   3.378   0.432   5.342
   38CHL1  H18C 3948   3.282   0.364   5.208
   38CHL1   C12 3949   3.300   0.702   5.313
   38CHL1  H12A 3950   3.393   0.732   5.260
   38CHL1  H12B 3951   3.226   0.784   5.302
   38CHL1   C11 3952   3.331   0.680   5.463
   38CHL1  H11A 3953   3.416   0.608   5.467
   38CHL1  H11B 3954   3.370   0.772   5.511
   38CHL1    C9 3955   3.212   0.622   5.545
   38CHL1    H9 3956   3.134   0.703   5.548
   38CHL1   C10 3957   3.247   0.592   5.692
   38CHL1   C19 3958   3.376   0.506   5.694
   38CHL1  H19A 3959   3.374   0.424   5.620
   38CHL1  H19B 3960   3.461   0.573   5.671
   38CHL1  H19C 3961   3.398   0.466   5.795
   38CHL1    C1 3962   3.273   0.725   5.766
   38CHL1   H1A 3963   3.363   0.776   5.723
   38CHL1   H1B 3964   3.186   0.790   5.744
   38CHL1    C2 3965   3.282   0.715   5.920
   38CHL1   H2A 3966   3.274   0.818   5.961
   38CHL1   H2B 3967   3.379   0.672   5.948
   38CHL1   C20 3968   3.251   0.572   4.974
   38CHL1   H20 3969   3.286   0.467   4.966
   38CHL1   C21 3970   3.375   0.664   4.964
   38CHL1  H21A 3971   3.391   0.697   4.859
   38CHL1  H21B 3972   3.464   0.605   4.996
   38CHL1  H21C 3973   3.368   0.754   5.028
   38CHL1   C22 3974   3.159   0.595   4.850
   38CHL1  H22A 3975   3.057   0.560   4.875
   38CHL1  H22B 3976   3.153   0.704   4.833
   38CHL1   C23 3977   3.199   0.522   4.720
   38CHL1  H23A 3978   3.307   0.537   4.702
   38CHL1  H23B 3979   3.182   0.412   4.729
   38CHL1   C24 3980   3.133   0.578   4.594
   38CHL1  H24A 3981   3.022   0.583   4.601
   38CHL1  H24B 3982   3.165   0.685   4.586
   38CHL1   C25 3983   3.171   0.500   4.467
   38CHL1   H25 3984   3.119   0.403   4.460
   38CHL1   C26 3985   3.111   0.574   4.352
   38CHL1  H26A 3986   3.002   0.580   4.340
   38CHL1  H26B 3987   3.156   0.676   4.347
   38CHL1  H26C 3988   3.144   0.508   4.269
   38CHL1   C27 3989   3.324   0.469   4.451
   38CHL1  H27A 3990   3.355   0.401   4.532
   38CHL1  H27B 3991   3.349   0.417   4.355
   38CHL1  H27C 3992   3.388   0.560   4.453
   39CHL1    C3 3993   4.446   0.515   5.989
   39CHL1    H3 3994   4.358   0.581   6.008
   39CHL1    O3 3995   4.530   0.518   6.103
   39CHL1   H3' 3996   4.605   0.462   6.079
   39CHL1    C4 3997   4.398   0.370   5.961
   39CHL1   H4A 3998   4.486   0.303   5.965
   39CHL1   H4B 3999   4.331   0.343   6.046
   39CHL1    C5 4000   4.327   0.358   5.828
   39CHL1    C6 4001   4.199   0.318   5.817
   39CHL1    H6 4002   4.144   0.287   5.906
   39CHL1    C7 4003   4.128   0.306   5.685
   39CHL1   H7A 4004   4.063   0.217   5.684
   39CHL1   H7B 4005   4.062   0.394   5.665
   39CHL1    C8 4006   4.229   0.295   5.568
   39CHL1    H8 4007   4.277   0.196   5.578
   39CHL1   C14 4008   4.158   0.304   5.435
   39CHL1   H14 4009   4.103   0.401   5.435
   39CHL1   C15 4010   4.056   0.193   5.408
   39CHL1  H15A 4011   4.093   0.094   5.439
   39CHL1  H15B 4012   3.959   0.210   5.460
   39CHL1   C16 4013   4.052   0.191   5.254
   39CHL1  H16A 4014   4.078   0.092   5.218
   39CHL1  H16B 4015   3.947   0.201   5.227
   39CHL1   C17 4016   4.164   0.289   5.194
   39CHL1   H17 4017   4.111   0.389   5.196
   39CHL1   C13 4018   4.254   0.305   5.315
   39CHL1   C18 4019   4.338   0.176   5.312
   39CHL1  H18A 4020   4.419   0.183   5.237
   39CHL1  H18B 4021   4.383   0.149   5.408
   39CHL1  H18C 4022   4.273   0.090   5.283
   39CHL1   C12 4023   4.334   0.436   5.320
   39CHL1  H12A 4024   4.400   0.445   5.232
   39CHL1  H12B 4025   4.267   0.526   5.322
   39CHL1   C11 4026   4.416   0.435   5.448
   39CHL1  H11A 4027   4.492   0.355   5.434
   39CHL1  H11B 4028   4.468   0.533   5.455
   39CHL1    C9 4029   4.331   0.409   5.577
   39CHL1    H9 4030   4.265   0.499   5.584
   39CHL1   C10 4031   4.413   0.402   5.708
   39CHL1   C19 4032   4.528   0.298   5.690
   39CHL1  H19A 4033   4.610   0.331   5.623
   39CHL1  H19B 4034   4.575   0.267   5.785
   39CHL1  H19C 4035   4.484   0.204   5.650
   39CHL1    C1 4036   4.460   0.547   5.735
   39CHL1   H1A 4037   4.533   0.575   5.657
   39CHL1   H1B 4038   4.372   0.615   5.723
   39CHL1    C2 4039   4.527   0.570   5.872
   39CHL1   H2A 4040   4.545   0.679   5.886
   39CHL1   H2B 4041   4.624   0.516   5.869
   39CHL1   C20 4042   4.233   0.257   5.045
   39CHL1   H20 4043   4.312   0.183   5.063
   39CHL1   C21 4044   4.288   0.397   4.993
   39CHL1  H21A 4045   4.388   0.424   5.029
   39CHL1  H21B 4046   4.224   0.483   5.026
   39CHL1  H21C 4047   4.284   0.405   4.883
   39CHL1   C22 4048   4.162   0.155   4.936
   39CHL1  H22A 4049   4.128   0.076   4.995
   39CHL1  H22B 4050   4.064   0.129   4.924
   39CHL1   C23 4051   4.171   0.115   4.788
   39CHL1  H23A 4052   4.188   0.210   4.749
   39CHL1  H23B 4053   4.268   0.076   4.806
   39CHL1   C24 4054   4.035   0.037   4.745
   39CHL1  H24A 4055   4.038  -0.056   4.799
   39CHL1  H24B 4056   3.933   0.060   4.789
   39CHL1   C25 4057   4.001   0.048   4.599
   39CHL1   H25 4058   4.100   0.057   4.552
   39CHL1   C26 4059   3.963  -0.066   4.532
   39CHL1  H26A 4060   3.990  -0.156   4.586
   39CHL1  H26B 4061   3.872  -0.027   4.578
   39CHL1  H26C 4062   3.940  -0.068   4.425
   39CHL1   C27 4063   3.902   0.160   4.553
   39CHL1  H27A 4064   3.955   0.161   4.454
   39CHL1  H27B 4065   3.796   0.176   4.534
   39CHL1  H27C 4066   3.903   0.252   4.605
   40CHL1    C3 4067   2.435   6.650   5.986
   40CHL1    H3 4068   2.536   6.602   5.982
   40CHL1    O3 4069   2.402   6.660   6.123
   40CHL1   H3' 4070   2.479   6.698   6.164
   40CHL1    C4 4071   2.438   6.789   5.923
   40CHL1   H4A 4072   2.342   6.840   5.941
   40CHL1   H4B 4073   2.519   6.850   5.968
   40CHL1    C5 4074   2.458   6.770   5.776
   40CHL1    C6 4075   2.568   6.819   5.728
   40CHL1    H6 4076   2.639   6.888   5.780
   40CHL1    C7 4077   2.586   6.789   5.589
   40CHL1   H7A 4078   2.619   6.890   5.595
   40CHL1   H7B 4079   2.678   6.732   5.562
   40CHL1    C8 4080   2.468   6.771   5.483
   40CHL1    H8 4081   2.409   6.865   5.479
   40CHL1   C14 4082   2.497   6.725   5.336
   40CHL1   H14 4083   2.565   6.636   5.350
   40CHL1   C15 4084   2.561   6.812   5.230
   40CHL1  H15A 4085   2.550   6.922   5.232
   40CHL1  H15B 4086   2.660   6.785   5.247
   40CHL1   C16 4087   2.558   6.754   5.098
   40CHL1  H16A 4088   2.542   6.843   5.034
   40CHL1  H16B 4089   2.650   6.697   5.067
   40CHL1   C17 4090   2.456   6.650   5.115
   40CHL1   H17 4091   2.513   6.555   5.135
   40CHL1   C13 4092   2.384   6.685   5.247
   40CHL1   C18 4093   2.293   6.809   5.227
   40CHL1  H18A 4094   2.346   6.897   5.187
   40CHL1  H18B 4095   2.211   6.791   5.155
   40CHL1  H18C 4096   2.251   6.842   5.324
   40CHL1   C12 4097   2.324   6.562   5.311
   40CHL1  H12A 4098   2.237   6.535   5.250
   40CHL1  H12B 4099   2.398   6.480   5.303
   40CHL1   C11 4100   2.289   6.586   5.458
   40CHL1  H11A 4101   2.197   6.646   5.457
   40CHL1  H11B 4102   2.266   6.488   5.505
   40CHL1    C9 4103   2.400   6.653   5.545
   40CHL1    H9 4104   2.485   6.580   5.549
   40CHL1   C10 4105   2.362   6.679   5.693
   40CHL1   C19 4106   2.220   6.741   5.691
   40CHL1  H19A 4107   2.195   6.778   5.792
   40CHL1  H19B 4108   2.215   6.824   5.618
   40CHL1  H19C 4109   2.141   6.668   5.664
   40CHL1    C1 4110   2.362   6.544   5.767
   40CHL1   H1A 4111   2.287   6.477   5.720
   40CHL1   H1B 4112   2.463   6.496   5.759
   40CHL1    C2 4113   2.332   6.561   5.916
   40CHL1   H2A 4114   2.333   6.463   5.966
   40CHL1   H2B 4115   2.233   6.610   5.928
   40CHL1   C20 4116   2.386   6.652   4.984
   40CHL1   H20 4117   2.346   6.755   4.970
   40CHL1   C21 4118   2.273   6.551   4.985
   40CHL1  H21A 4119   2.316   6.449   5.000
   40CHL1  H21B 4120   2.215   6.553   4.891
   40CHL1  H21C 4121   2.201   6.578   5.064
   40CHL1   C22 4122   2.486   6.628   4.869
   40CHL1  H22A 4123   2.567   6.704   4.865
   40CHL1  H22B 4124   2.536   6.528   4.877
   40CHL1   C23 4125   2.420   6.633   4.735
   40CHL1  H23A 4126   2.324   6.578   4.731
   40CHL1  H23B 4127   2.404   6.738   4.701
   40CHL1   C24 4128   2.515   6.575   4.637
   40CHL1  H24A 4129   2.607   6.638   4.631
   40CHL1  H24B 4130   2.544   6.468   4.655
   40CHL1   C25 4131   2.446   6.579   4.506
   40CHL1   H25 4132   2.536   6.541   4.450
   40CHL1   C26 4133   2.326   6.476   4.496
   40CHL1  H26A 4134   2.243   6.495   4.563
   40CHL1  H26B 4135   2.263   6.479   4.405
   40CHL1  H26C 4136   2.368   6.373   4.490
   40CHL1   C27 4137   2.421   6.722   4.446
   40CHL1  H27A 4138   2.513   6.780   4.460
   40CHL1  H27B 4139   2.410   6.725   4.335
   40CHL1  H27C 4140   2.334   6.777   4.483
   41CHL1    C3 4141   1.679   6.304   5.984
   41CHL1    H3 4142   1.591   6.372   5.975
   41CHL1    O3 4143   1.696   6.265   6.120
   41CHL1   H3' 4144   1.640   6.187   6.132
   41CHL1    C4 4145   1.655   6.178   5.899
   41CHL1   H4A 4146   1.735   6.106   5.926
   41CHL1   H4B 4147   1.558   6.135   5.933
   41CHL1    C5 4148   1.653   6.197   5.750
   41CHL1    C6 4149   1.555   6.146   5.671
   41CHL1    H6 4150   1.476   6.084   5.716
   41CHL1    C7 4151   1.553   6.163   5.522
   41CHL1   H7A 4152   1.528   6.068   5.468
   41CHL1   H7B 4153   1.478   6.240   5.494
   41CHL1    C8 4154   1.687   6.215   5.466
   41CHL1    H8 4155   1.760   6.132   5.463
   41CHL1   C14 4156   1.658   6.276   5.329
   41CHL1   H14 4157   1.601   6.370   5.354
   41CHL1   C15 4158   1.563   6.205   5.229
   41CHL1  H15A 4159   1.583   6.096   5.228
   41CHL1  H15B 4160   1.456   6.224   5.252
   41CHL1   C16 4161   1.599   6.265   5.094
   41CHL1  H16A 4162   1.639   6.184   5.029
   41CHL1  H16B 4163   1.512   6.310   5.041
   41CHL1   C17 4164   1.709   6.372   5.123
   41CHL1   H17 4165   1.654   6.464   5.153
   41CHL1   C13 4166   1.781   6.323   5.252
   41CHL1   C18 4167   1.870   6.199   5.225
   41CHL1  H18A 4168   1.967   6.224   5.177
   41CHL1  H18B 4169   1.895   6.141   5.316
   41CHL1  H18C 4170   1.814   6.130   5.159
   41CHL1   C12 4171   1.850   6.431   5.338
   41CHL1  H12A 4172   1.944   6.467   5.292
   41CHL1  H12B 4173   1.779   6.517   5.339
   41CHL1   C11 4174   1.876   6.384   5.483
   41CHL1  H11A 4175   1.958   6.309   5.482
   41CHL1  H11B 4176   1.913   6.471   5.541
   41CHL1    C9 4177   1.749   6.324   5.552
   41CHL1    H9 4178   1.672   6.405   5.556
   41CHL1   C10 4179   1.770   6.283   5.699
   41CHL1   C19 4180   1.896   6.193   5.710
   41CHL1  H19A 4181   1.912   6.160   5.814
   41CHL1  H19B 4182   1.886   6.105   5.643
   41CHL1  H19C 4183   1.988   6.246   5.683
   41CHL1    C1 4184   1.789   6.411   5.786
   41CHL1   H1A 4185   1.880   6.462   5.749
   41CHL1   H1B 4186   1.706   6.484   5.773
   41CHL1    C2 4187   1.802   6.383   5.937
   41CHL1   H2A 4188   1.802   6.477   5.996
   41CHL1   H2B 4189   1.897   6.331   5.958
   41CHL1   C20 4190   1.790   6.406   4.997
   41CHL1   H20 4191   1.852   6.317   4.972
   41CHL1   C21 4192   1.880   6.528   5.019
   41CHL1  H21A 4193   1.964   6.509   5.089
   41CHL1  H21B 4194   1.819   6.614   5.056
   41CHL1  H21C 4195   1.923   6.557   4.921
   41CHL1   C22 4196   1.698   6.439   4.875
   41CHL1  H22A 4197   1.616   6.365   4.866
   41CHL1  H22B 4198   1.652   6.538   4.896
   41CHL1   C23 4199   1.770   6.439   4.738
   41CHL1  H23A 4200   1.815   6.538   4.714
   41CHL1  H23B 4201   1.854   6.367   4.745
   41CHL1   C24 4202   1.678   6.391   4.624
   41CHL1  H24A 4203   1.648   6.288   4.650
   41CHL1  H24B 4204   1.587   6.454   4.620
   41CHL1   C25 4205   1.740   6.397   4.481
   41CHL1   H25 4206   1.829   6.329   4.478
   41CHL1   C26 4207   1.641   6.352   4.374
   41CHL1  H26A 4208   1.635   6.250   4.396
   41CHL1  H26B 4209   1.540   6.397   4.382
   41CHL1  H26C 4210   1.673   6.338   4.269
   41CHL1   C27 4211   1.774   6.539   4.444
   41CHL1  H27A 4212   1.811   6.540   4.342
   41CHL1  H27B 4213   1.683   6.603   4.449
   41CHL1  H27C 4214   1.858   6.582   4.499
   42CHL1    C3 4215   5.144   6.589   5.988
   42CHL1    H3 4216   5.181   6.687   5.948
   42CHL1    O3 4217   5.141   6.587   6.129
   42CHL1   H3' 4218   5.232   6.565   6.149
   42CHL1    C4 4219   5.006   6.563   5.945
   42CHL1   H4A 4220   4.941   6.486   5.986
   42CHL1   H4B 4221   4.957   6.654   5.984
   42CHL1    C5 4222   5.021   6.546   5.792
   42CHL1    C6 4223   4.983   6.629   5.713
   42CHL1    H6 4224   4.934   6.666   5.799
   42CHL1    C7 4225   4.940   6.639   5.562
   42CHL1   H7A 4226   4.835   6.623   5.526
   42CHL1   H7B 4227   4.955   6.737   5.513
   42CHL1    C8 4228   4.952   6.508   5.496
   42CHL1    H8 4229   4.868   6.438   5.514
   42CHL1   C14 4230   4.960   6.537   5.349
   42CHL1   H14 4231   5.030   6.621   5.337
   42CHL1   C15 4232   4.839   6.576   5.262
   42CHL1  H15A 4233   4.745   6.520   5.286
   42CHL1  H15B 4234   4.822   6.685   5.264
   42CHL1   C16 4235   4.890   6.548   5.121
   42CHL1  H16A 4236   4.810   6.494   5.068
   42CHL1  H16B 4237   4.916   6.644   5.073
   42CHL1   C17 4238   5.022   6.466   5.135
   42CHL1   H17 4239   5.108   6.536   5.131
   42CHL1   C13 4240   5.019   6.423   5.280
   42CHL1   C18 4241   4.918   6.318   5.282
   42CHL1  H18A 4242   4.832   6.314   5.212
   42CHL1  H18B 4243   4.995   6.251   5.243
   42CHL1  H18C 4244   4.887   6.284   5.381
   42CHL1   C12 4245   5.152   6.379   5.346
   42CHL1  H12A 4246   5.192   6.283   5.312
   42CHL1  H12B 4247   5.223   6.461   5.324
   42CHL1   C11 4248   5.144   6.359   5.495
   42CHL1  H11A 4249   5.082   6.274   5.525
   42CHL1  H11B 4250   5.244   6.353   5.540
   42CHL1    C9 4251   5.082   6.471   5.561
   42CHL1    H9 4252   5.144   6.563   5.540
   42CHL1   C10 4253   5.085   6.448   5.718
   42CHL1   C19 4254   5.025   6.319   5.766
   42CHL1  H19A 4255   5.002   6.316   5.875
   42CHL1  H19B 4256   4.934   6.293   5.715
   42CHL1  H19C 4257   5.092   6.237   5.740
   42CHL1    C1 4258   5.222   6.480   5.777
   42CHL1   H1A 4259   5.287   6.401   5.738
   42CHL1   H1B 4260   5.256   6.580   5.738
   42CHL1    C2 4261   5.227   6.476   5.932
   42CHL1   H2A 4262   5.330   6.484   5.966
   42CHL1   H2B 4263   5.180   6.381   5.966
   42CHL1   C20 4264   5.044   6.363   5.022
   42CHL1   H20 4265   4.954   6.296   5.015
   42CHL1   C21 4266   5.169   6.277   5.046
   42CHL1  H21A 4267   5.155   6.210   5.132
   42CHL1  H21B 4268   5.260   6.329   5.076
   42CHL1  H21C 4269   5.187   6.212   4.957
   42CHL1   C22 4270   5.047   6.431   4.884
   42CHL1  H22A 4271   4.948   6.481   4.878
   42CHL1  H22B 4272   5.127   6.508   4.875
   42CHL1   C23 4273   5.051   6.334   4.767
   42CHL1  H23A 4274   5.139   6.267   4.769
   42CHL1  H23B 4275   4.959   6.270   4.770
   42CHL1   C24 4276   5.059   6.404   4.633
   42CHL1  H24A 4277   4.968   6.468   4.621
   42CHL1  H24B 4278   5.145   6.475   4.632
   42CHL1   C25 4279   5.081   6.302   4.520
   42CHL1   H25 4280   5.190   6.291   4.500
   42CHL1   C26 4281   5.023   6.164   4.532
   42CHL1  H26A 4282   5.050   6.105   4.618
   42CHL1  H26B 4283   4.918   6.181   4.551
   42CHL1  H26C 4284   5.038   6.107   4.436
   42CHL1   C27 4285   5.016   6.351   4.398
   42CHL1  H27A 4286   5.045   6.293   4.308
   42CHL1  H27B 4287   4.914   6.394   4.394
   42CHL1  H27C 4288   5.040   6.450   4.398
   43CHL1    C3 4289   0.539   2.363   5.978
   43CHL1    H3 4290   0.509   2.465   5.943
   43CHL1    O3 4291   0.569   2.369   6.117
   43CHL1   H3' 4292   0.666   2.384   6.126
   43CHL1    C4 4293   0.433   2.262   5.947
   43CHL1   H4A 4294   0.464   2.160   5.977
   43CHL1   H4B 4295   0.343   2.286   6.010
   43CHL1    C5 4296   0.411   2.261   5.796
   43CHL1    C6 4297   0.298   2.292   5.749
   43CHL1    H6 4298   0.251   2.342   5.833
   43CHL1    C7 4299   0.254   2.309   5.605
   43CHL1   H7A 4300   0.144   2.309   5.586
   43CHL1   H7B 4301   0.275   2.409   5.572
   43CHL1    C8 4302   0.352   2.261   5.503
   43CHL1    H8 4303   0.323   2.156   5.494
   43CHL1   C14 4304   0.344   2.329   5.369
   43CHL1   H14 4305   0.378   2.433   5.365
   43CHL1   C15 4306   0.210   2.335   5.314
   43CHL1  H15A 4307   0.173   2.239   5.344
   43CHL1  H15B 4308   0.131   2.408   5.348
   43CHL1   C16 4309   0.261   2.336   5.170
   43CHL1  H16A 4310   0.212   2.276   5.102
   43CHL1  H16B 4311   0.264   2.421   5.115
   43CHL1   C17 4312   0.405   2.338   5.140
   43CHL1   H17 4313   0.444   2.445   5.144
   43CHL1   C13 4314   0.437   2.268   5.264
   43CHL1   C18 4315   0.405   2.119   5.243
   43CHL1  H18A 4316   0.472   2.075   5.167
   43CHL1  H18B 4317   0.418   2.064   5.337
   43CHL1  H18C 4318   0.301   2.102   5.210
   43CHL1   C12 4319   0.572   2.310   5.313
   43CHL1  H12A 4320   0.651   2.278   5.245
   43CHL1  H12B 4321   0.572   2.422   5.318
   43CHL1   C11 4322   0.596   2.248   5.448
   43CHL1  H11A 4323   0.599   2.138   5.435
   43CHL1  H11B 4324   0.693   2.288   5.483
   43CHL1    C9 4325   0.492   2.290   5.552
   43CHL1    H9 4326   0.505   2.402   5.549
   43CHL1   C10 4327   0.519   2.242   5.696
   43CHL1   C19 4328   0.525   2.090   5.702
   43CHL1  H19A 4329   0.600   2.053   5.632
   43CHL1  H19B 4330   0.548   2.056   5.805
   43CHL1  H19C 4331   0.427   2.043   5.677
   43CHL1    C1 4332   0.644   2.315   5.749
   43CHL1   H1A 4333   0.733   2.267   5.703
   43CHL1   H1B 4334   0.637   2.421   5.718
   43CHL1    C2 4335   0.660   2.316   5.901
   43CHL1   H2A 4336   0.731   2.393   5.927
   43CHL1   H2B 4337   0.696   2.215   5.934
   43CHL1   C20 4338   0.437   2.284   4.998
   43CHL1   H20 4339   0.387   2.185   4.981
   43CHL1   C21 4340   0.583   2.289   4.993
   43CHL1  H21A 4341   0.619   2.214   5.064
   43CHL1  H21B 4342   0.611   2.394   5.020
   43CHL1  H21C 4343   0.618   2.269   4.890
   43CHL1   C22 4344   0.410   2.378   4.881
   43CHL1  H22A 4345   0.318   2.394   4.911
   43CHL1  H22B 4346   0.434   2.485   4.888
   43CHL1   C23 4347   0.409   2.333   4.736
   43CHL1  H23A 4348   0.393   2.426   4.676
   43CHL1  H23B 4349   0.505   2.284   4.714
   43CHL1   C24 4350   0.313   2.234   4.685
   43CHL1  H24A 4351   0.335   2.128   4.698
   43CHL1  H24B 4352   0.216   2.220   4.739
   43CHL1   C25 4353   0.299   2.267   4.529
   43CHL1   H25 4354   0.259   2.366   4.502
   43CHL1   C26 4355   0.397   2.221   4.429
   43CHL1  H26A 4356   0.362   2.280   4.341
   43CHL1  H26B 4357   0.488   2.245   4.475
   43CHL1  H26C 4358   0.402   2.110   4.397
   43CHL1   C27 4359   0.241   2.161   4.470
   43CHL1  H27A 4360   0.186   2.180   4.562
   43CHL1  H27B 4361   0.196   2.182   4.370
   43CHL1  H27C 4362   0.160   2.111   4.412
   44CHL1    C3 4363   0.189   4.703   5.996
   44CHL1    H3 4364   0.211   4.808   6.026
   44CHL1    O3 4365   0.183   4.615   6.107
   44CHL1   H3' 4366   0.133   4.659   6.177
   44CHL1    C4 4367   0.057   4.699   5.926
   44CHL1   H4A 4368   0.025   4.593   5.916
   44CHL1   H4B 4369  -0.024   4.744   5.988
   44CHL1    C5 4370   0.060   4.753   5.787
   44CHL1    C6 4371  -0.037   4.838   5.750
   44CHL1    H6 4372  -0.111   4.880   5.820
   44CHL1    C7 4373  -0.069   4.845   5.608
   44CHL1   H7A 4374  -0.153   4.913   5.583
   44CHL1   H7B 4375  -0.001   4.916   5.624
   44CHL1    C8 4376   0.031   4.779   5.500
   44CHL1    H8 4377  -0.034   4.696   5.474
   44CHL1   C14 4378   0.077   4.839   5.365
   44CHL1   H14 4379   0.145   4.917   5.370
   44CHL1   C15 4380  -0.019   4.895   5.298
   44CHL1  H15A 4381  -0.097   4.857   5.362
   44CHL1  H15B 4382  -0.085   4.971   5.324
   44CHL1   C16 4383   0.015   4.886   5.157
   44CHL1  H16A 4384  -0.063   4.826   5.107
   44CHL1  H16B 4385   0.030   4.979   5.102
   44CHL1   C17 4386   0.148   4.868   5.136
   44CHL1   H17 4387   0.202   4.968   5.160
   44CHL1   C13 4388   0.148   4.773   5.253
   44CHL1   C18 4389   0.062   4.650   5.229
   44CHL1  H18A 4390   0.107   4.600   5.144
   44CHL1  H18B 4391   0.059   4.593   5.322
   44CHL1  H18C 4392  -0.046   4.665   5.211
   44CHL1   C12 4393   0.282   4.766   5.310
   44CHL1  H12A 4394   0.339   4.717   5.232
   44CHL1  H12B 4395   0.321   4.871   5.322
   44CHL1   C11 4396   0.264   4.697   5.446
   44CHL1  H11A 4397   0.230   4.595   5.421
   44CHL1  H11B 4398   0.362   4.691   5.492
   44CHL1    C9 4399   0.169   4.761   5.553
   44CHL1    H9 4400   0.215   4.862   5.574
   44CHL1   C10 4401   0.161   4.692   5.688
   44CHL1   C19 4402   0.144   4.545   5.648
   44CHL1  H19A 4403   0.240   4.506   5.609
   44CHL1  H19B 4404   0.118   4.482   5.734
   44CHL1  H19C 4405   0.067   4.536   5.568
   44CHL1    C1 4406   0.294   4.707   5.761
   44CHL1   H1A 4407   0.372   4.652   5.705
   44CHL1   H1B 4408   0.320   4.815   5.764
   44CHL1    C2 4409   0.292   4.644   5.901
   44CHL1   H2A 4410   0.394   4.653   5.943
   44CHL1   H2B 4411   0.262   4.537   5.893
   44CHL1   C20 4412   0.166   4.844   4.985
   44CHL1   H20 4413   0.166   4.949   4.942
   44CHL1   C21 4414   0.070   4.752   4.902
   44CHL1  H21A 4415  -0.024   4.792   4.879
   44CHL1  H21B 4416   0.015   4.670   4.949
   44CHL1  H21C 4417   0.096   4.745   4.794
   44CHL1   C22 4418   0.297   4.782   4.974
   44CHL1  H22A 4419   0.370   4.834   5.040
   44CHL1  H22B 4420   0.278   4.678   5.010
   44CHL1   C23 4421   0.344   4.791   4.831
   44CHL1  H23A 4422   0.291   4.719   4.765
   44CHL1  H23B 4423   0.321   4.893   4.794
   44CHL1   C24 4424   0.494   4.770   4.831
   44CHL1  H24A 4425   0.539   4.854   4.889
   44CHL1  H24B 4426   0.522   4.675   4.880
   44CHL1   C25 4427   0.549   4.773   4.689
   44CHL1   H25 4428   0.490   4.847   4.630
   44CHL1   C26 4429   0.695   4.815   4.695
   44CHL1  H26A 4430   0.750   4.748   4.764
   44CHL1  H26B 4431   0.736   4.807   4.592
   44CHL1  H26C 4432   0.704   4.919   4.731
   44CHL1   C27 4433   0.541   4.635   4.624
   44CHL1  H27A 4434   0.439   4.594   4.634
   44CHL1  H27B 4435   0.570   4.640   4.517
   44CHL1  H27C 4436   0.613   4.568   4.675
   45CHL1    C3 4437   0.200   5.415   5.984
   45CHL1    H3 4438   0.303   5.417   5.942
   45CHL1    O3 4439   0.193   5.474   6.114
   45CHL1   H3' 4440   0.256   5.426   6.169
   45CHL1    C4 4441   0.110   5.495   5.889
   45CHL1   H4A 4442   0.009   5.501   5.933
   45CHL1   H4B 4443   0.149   5.598   5.881
   45CHL1    C5 4444   0.100   5.435   5.753
   45CHL1    C6 4445   0.133   5.505   5.642
   45CHL1    H6 4446   0.156   5.610   5.650
   45CHL1    C7 4447   0.133   5.454   5.501
   45CHL1   H7A 4448   0.099   5.523   5.423
   45CHL1   H7B 4449   0.232   5.411   5.474
   45CHL1    C8 4450   0.041   5.341   5.498
   45CHL1    H8 4451  -0.064   5.375   5.516
   45CHL1   C14 4452   0.054   5.288   5.355
   45CHL1   H14 4453   0.157   5.247   5.336
   45CHL1   C15 4454   0.014   5.366   5.229
   45CHL1  H15A 4455  -0.068   5.434   5.257
   45CHL1  H15B 4456   0.105   5.415   5.194
   45CHL1   C16 4457  -0.038   5.269   5.121
   45CHL1  H16A 4458  -0.137   5.288   5.076
   45CHL1  H16B 4459   0.040   5.241   5.046
   45CHL1   C17 4460  -0.064   5.148   5.201
   45CHL1   H17 4461   0.044   5.122   5.202
   45CHL1   C13 4462  -0.034   5.181   5.354
   45CHL1   C18 4463  -0.167   5.207   5.392
   45CHL1  H18A 4464  -0.181   5.213   5.502
   45CHL1  H18B 4465  -0.227   5.274   5.331
   45CHL1  H18C 4466  -0.212   5.116   5.356
   45CHL1   C12 4467   0.046   5.102   5.457
   45CHL1  H12A 4468  -0.021   5.024   5.477
   45CHL1  H12B 4469   0.151   5.080   5.431
   45CHL1   C11 4470   0.047   5.122   5.600
   45CHL1  H11A 4471  -0.057   5.102   5.637
   45CHL1  H11B 4472   0.123   5.047   5.641
   45CHL1    C9 4473   0.091   5.250   5.613
   45CHL1    H9 4474   0.201   5.234   5.596
   45CHL1   C10 4475   0.060   5.290   5.755
   45CHL1   C19 4476  -0.094   5.278   5.782
   45CHL1  H19A 4477  -0.155   5.312   5.696
   45CHL1  H19B 4478  -0.125   5.173   5.802
   45CHL1  H19C 4479  -0.123   5.340   5.868
   45CHL1    C1 4480   0.140   5.203   5.858
   45CHL1   H1A 4481   0.092   5.103   5.876
   45CHL1   H1B 4482   0.242   5.184   5.819
   45CHL1    C2 4483   0.151   5.270   5.995
   45CHL1   H2A 4484   0.217   5.211   6.062
   45CHL1   H2B 4485   0.048   5.270   6.039
   45CHL1   C20 4486  -0.177   5.038   5.126
   45CHL1   H20 4487  -0.254   5.099   5.090
   45CHL1   C21 4488  -0.268   4.924   5.215
   45CHL1  H21A 4489  -0.210   4.830   5.237
   45CHL1  H21B 4490  -0.252   4.822   5.194
   45CHL1  H21C 4491  -0.281   4.931   5.322
   45CHL1   C22 4492  -0.136   5.013   4.970
   45CHL1  H22A 4493  -0.062   5.083   4.936
   45CHL1  H22B 4494  -0.071   4.935   4.958
   45CHL1   C23 4495  -0.216   4.963   4.857
   45CHL1  H23A 4496  -0.259   4.871   4.876
   45CHL1  H23B 4497  -0.277   5.048   4.843
   45CHL1   C24 4498  -0.156   4.908   4.730
   45CHL1  H24A 4499  -0.049   4.889   4.731
   45CHL1  H24B 4500  -0.204   4.809   4.706
   45CHL1   C25 4501  -0.150   5.019   4.634
   45CHL1   H25 4502  -0.255   5.054   4.623
   45CHL1   C26 4503  -0.060   5.134   4.681
   45CHL1  H26A 4504  -0.102   5.186   4.769
   45CHL1  H26B 4505   0.044   5.101   4.707
   45CHL1  H26C 4506  -0.054   5.204   4.596
   45CHL1   C27 4507  -0.089   4.965   4.508
   45CHL1  H27A 4508  -0.122   4.864   4.489
   45CHL1  H27B 4509  -0.114   5.037   4.428
   45CHL1  H27C 4510   0.020   4.949   4.517
   46CHL1    C3 4511   1.167   6.812   6.001
   46CHL1    H3 4512   1.145   6.901   6.044
   46CHL1    O3 4513   1.202   6.779   6.130
   46CHL1   H3' 4514   1.118   6.805   6.177
   46CHL1    C4 4515   1.046   6.745   5.938
   46CHL1   H4A 4516   1.078   6.641   5.945
   46CHL1   H4B 4517   0.962   6.768   6.008
   46CHL1    C5 4518   1.010   6.775   5.793
   46CHL1    C6 4519   0.884   6.795   5.757
   46CHL1    H6 4520   0.809   6.774   5.833
   46CHL1    C7 4521   0.832   6.867   5.636
   46CHL1   H7A 4522   0.731   6.830   5.616
   46CHL1   H7B 4523   0.823   6.978   5.641
   46CHL1    C8 4524   0.929   6.836   5.527
   46CHL1    H8 4525   0.919   6.729   5.504
   46CHL1   C14 4526   0.901   6.912   5.404
   46CHL1   H14 4527   0.910   7.025   5.427
   46CHL1   C15 4528   0.777   6.884   5.339
   46CHL1  H15A 4529   0.702   6.808   5.365
   46CHL1  H15B 4530   0.746   6.977   5.352
   46CHL1   C16 4531   0.796   6.931   5.203
   46CHL1  H16A 4532   0.745   6.845   5.153
   46CHL1  H16B 4533   0.762   7.042   5.183
   46CHL1   C17 4534   0.928   6.941   5.167
   46CHL1   H17 4535   0.946   7.049   5.182
   46CHL1   C13 4536   0.983   6.868   5.283
   46CHL1   C18 4537   0.978   6.727   5.242
   46CHL1  H18A 4538   1.061   6.715   5.168
   46CHL1  H18B 4539   1.000   6.667   5.330
   46CHL1  H18C 4540   0.881   6.701   5.198
   46CHL1   C12 4541   1.114   6.895   5.318
   46CHL1  H12A 4542   1.198   6.881   5.250
   46CHL1  H12B 4543   1.075   6.995   5.326
   46CHL1   C11 4544   1.156   6.831   5.443
   46CHL1  H11A 4545   1.178   6.727   5.422
   46CHL1  H11B 4546   1.259   6.856   5.448
   46CHL1    C9 4547   1.070   6.864   5.568
   46CHL1    H9 4548   1.062   6.973   5.592
   46CHL1   C10 4549   1.123   6.804   5.702
   46CHL1   C19 4550   1.194   6.674   5.673
   46CHL1  H19A 4551   1.221   6.625   5.769
   46CHL1  H19B 4552   1.125   6.610   5.615
   46CHL1  H19C 4553   1.288   6.694   5.616
   46CHL1    C1 4554   1.221   6.890   5.781
   46CHL1   H1A 4555   1.323   6.888   5.735
   46CHL1   H1B 4556   1.177   6.992   5.772
   46CHL1    C2 4557   1.275   6.842   5.913
   46CHL1   H2A 4558   1.338   6.910   5.973
   46CHL1   H2B 4559   1.338   6.756   5.891
   46CHL1   C20 4560   0.935   6.886   5.029
   46CHL1   H20 4561   0.912   6.781   5.016
   46CHL1   C21 4562   1.108   6.918   5.008
   46CHL1  H21A 4563   1.161   6.928   5.091
   46CHL1  H21B 4564   1.149   7.024   4.986
   46CHL1  H21C 4565   1.163   6.882   4.919
   46CHL1   C22 4566   0.783   6.930   4.929
   46CHL1  H22A 4567   0.710   6.884   4.976
   46CHL1  H22B 4568   0.747   7.038   4.933
   46CHL1   C23 4569   0.754   6.975   4.775
   46CHL1  H23A 4570   0.814   7.054   4.720
   46CHL1  H23B 4571   0.781   6.870   4.762
   46CHL1   C24 4572   0.659   6.963   4.666
   46CHL1  H24A 4573   0.605   6.872   4.698
   46CHL1  H24B 4574   0.622   7.066   4.682
   46CHL1   C25 4575   0.722   6.957   4.524
   46CHL1   H25 4576   0.756   7.058   4.488
   46CHL1   C26 4577   0.833   6.864   4.493
   46CHL1  H26A 4578   0.856   6.879   4.395
   46CHL1  H26B 4579   0.936   6.873   4.527
   46CHL1  H26C 4580   0.810   6.760   4.497
   46CHL1   C27 4581   0.614   6.893   4.443
   46CHL1  H27A 4582   0.647   6.876   4.339
   46CHL1  H27B 4583   0.594   6.794   4.491
   46CHL1  H27C 4584   0.524   6.957   4.448
   47CHL1    C3 4585   1.187   0.359   5.992
   47CHL1    H3 4586   1.161   0.466   6.011
   47CHL1    O3 4587   1.218   0.294   6.113
   47CHL1   H3' 4588   1.281   0.348   6.165
   47CHL1    C4 4589   1.082   0.277   5.922
   47CHL1   H4A 4590   1.117   0.172   5.927
   47CHL1   H4B 4591   0.988   0.277   5.980
   47CHL1    C5 4592   1.070   0.326   5.778
   47CHL1    C6 4593   0.957   0.369   5.726
   47CHL1    H6 4594   0.868   0.353   5.791
   47CHL1    C7 4595   0.928   0.431   5.589
   47CHL1   H7A 4596   0.828   0.398   5.550
   47CHL1   H7B 4597   0.906   0.540   5.586
   47CHL1    C8 4598   1.042   0.393   5.493
   47CHL1    H8 4599   1.081   0.296   5.466
   47CHL1   C14 4600   1.011   0.438   5.352
   47CHL1   H14 4601   1.015   0.534   5.383
   47CHL1   C15 4602   0.871   0.439   5.282
   47CHL1  H15A 4603   0.816   0.350   5.264
   47CHL1  H15B 4604   0.790   0.486   5.338
   47CHL1   C16 4605   0.904   0.466   5.137
   47CHL1  H16A 4606   0.867   0.394   5.062
   47CHL1  H16B 4607   0.835   0.545   5.106
   47CHL1   C17 4608   1.062   0.476   5.129
   47CHL1   H17 4609   1.094   0.579   5.152
   47CHL1   C13 4610   1.120   0.407   5.254
   47CHL1   C18 4611   1.142   0.262   5.220
   47CHL1  H18A 4612   1.186   0.244   5.123
   47CHL1  H18B 4613   1.163   0.190   5.302
   47CHL1  H18C 4614   1.053   0.227   5.185
   47CHL1   C12 4615   1.250   0.453   5.320
   47CHL1  H12A 4616   1.322   0.452   5.239
   47CHL1  H12B 4617   1.243   0.560   5.346
   47CHL1   C11 4618   1.288   0.380   5.453
   47CHL1  H11A 4619   1.317   0.274   5.459
   47CHL1  H11B 4620   1.383   0.422   5.483
   47CHL1    C9 4621   1.177   0.404   5.558
   47CHL1    H9 4622   1.173   0.510   5.584
   47CHL1   C10 4623   1.191   0.327   5.693
   47CHL1   C19 4624   1.232   0.180   5.685
   47CHL1  H19A 4625   1.320   0.174   5.625
   47CHL1  H19B 4626   1.262   0.139   5.782
   47CHL1  H19C 4627   1.165   0.103   5.645
   47CHL1    C1 4628   1.298   0.403   5.766
   47CHL1   H1A 4629   1.394   0.395   5.711
   47CHL1   H1B 4630   1.264   0.509   5.766
   47CHL1    C2 4631   1.312   0.358   5.910
   47CHL1   H2A 4632   1.364   0.435   5.967
   47CHL1   H2B 4633   1.363   0.260   5.912
   47CHL1   C20 4634   1.112   0.440   4.988
   47CHL1   H20 4635   1.083   0.335   4.965
   47CHL1   C21 4636   1.265   0.454   4.980
   47CHL1  H21A 4637   1.305   0.456   4.877
   47CHL1  H21B 4638   1.316   0.369   5.030
   47CHL1  H21C 4639   1.295   0.548   5.032
   47CHL1   C22 4640   1.041   0.530   4.886
   47CHL1  H22A 4641   0.930   0.520   4.889
   47CHL1  H22B 4642   1.069   0.629   4.921
   47CHL1   C23 4643   1.088   0.530   4.741
   47CHL1  H23A 4644   1.063   0.628   4.700
   47CHL1  H23B 4645   1.197   0.528   4.733
   47CHL1   C24 4646   1.022   0.419   4.659
   47CHL1  H24A 4647   1.023   0.330   4.725
   47CHL1  H24B 4648   0.913   0.434   4.647
   47CHL1   C25 4649   1.090   0.384   4.523
   47CHL1   H25 4650   1.185   0.333   4.552
   47CHL1   C26 4651   1.001   0.290   4.446
   47CHL1  H26A 4652   0.904   0.329   4.413
   47CHL1  H26B 4653   1.058   0.254   4.356
   47CHL1  H26C 4654   0.979   0.210   4.519
   47CHL1   C27 4655   1.134   0.490   4.423
   47CHL1  H27A 4656   1.199   0.563   4.477
   47CHL1  H27B 4657   1.176   0.459   4.327
   47CHL1  H27C 4658   1.046   0.536   4.377
   48CHL1    C3 4659   6.471   0.029   5.988
   48CHL1    H3 4660   6.442  -0.078   5.971
   48CHL1    O3 4661   6.499   0.056   6.122
   48CHL1   H3' 4662   6.426   0.017   6.175
   48CHL1    C4 4663   6.585   0.072   5.905
   48CHL1   H4A 4664   6.612   0.173   5.944
   48CHL1   H4B 4665   6.658  -0.003   5.931
   48CHL1    C5 4666   6.570   0.075   5.756
   48CHL1    C6 4667   6.640  -0.005   5.676
   48CHL1    H6 4668   6.714  -0.071   5.722
   48CHL1    C7 4669   6.636  -0.000   5.529
   48CHL1   H7A 4670   6.738  -0.003   5.485
   48CHL1   H7B 4671   6.579  -0.087   5.491
   48CHL1    C8 4672   6.565   0.125   5.479
   48CHL1    H8 4673   6.628   0.212   5.495
   48CHL1   C14 4674   6.539   0.103   5.333
   48CHL1   H14 4675   6.475   0.012   5.336
   48CHL1   C15 4676   6.653   0.075   5.236
   48CHL1  H15A 4677   6.727   0.155   5.253
   48CHL1  H15B 4678   6.698  -0.024   5.243
   48CHL1   C16 4679   6.601   0.096   5.097
   48CHL1  H16A 4680   6.661   0.171   5.042
   48CHL1  H16B 4681   6.588   0.007   5.035
   48CHL1   C17 4682   6.474   0.163   5.120
   48CHL1   H17 4683   6.396   0.097   5.116
   48CHL1   C13 4684   6.470   0.215   5.265
   48CHL1   C18 4685   6.550   0.340   5.260
   48CHL1  H18A 4686   6.568   0.389   5.355
   48CHL1  H18B 4687   6.637   0.332   5.198
   48CHL1  H18C 4688   6.499   0.412   5.200
   48CHL1   C12 4689   6.348   0.231   5.346
   48CHL1  H12A 4690   6.262   0.277   5.305
   48CHL1  H12B 4691   6.312   0.127   5.347
   48CHL1   C11 4692   6.383   0.284   5.485
   48CHL1  H11A 4693   6.435   0.379   5.487
   48CHL1  H11B 4694   6.304   0.342   5.536
   48CHL1    C9 4695   6.439   0.157   5.555
   48CHL1    H9 4696   6.374   0.067   5.540
   48CHL1   C10 4697   6.464   0.167   5.706
   48CHL1   C19 4698   6.462   0.313   5.742
   48CHL1  H19A 4699   6.365   0.363   5.744
   48CHL1  H19B 4700   6.510   0.332   5.839
   48CHL1  H19C 4701   6.517   0.360   5.660
   48CHL1    C1 4702   6.361   0.108   5.792
   48CHL1   H1A 4703   6.278   0.171   5.798
   48CHL1   H1B 4704   6.324   0.013   5.745
   48CHL1    C2 4705   6.374   0.129   5.947
   48CHL1   H2A 4706   6.290   0.113   6.014
   48CHL1   H2B 4707   6.377   0.234   5.977
   48CHL1   C20 4708   6.458   0.245   5.001
   48CHL1   H20 4709   6.525   0.334   5.008
   48CHL1   C21 4710   6.340   0.265   5.068
   48CHL1  H21A 4711   6.257   0.219   5.007
   48CHL1  H21B 4712   6.328   0.363   5.071
   48CHL1  H21C 4713   6.373   0.368   5.075
   48CHL1   C22 4714   6.437   0.193   4.854
   48CHL1  H22A 4715   6.543   0.174   4.834
   48CHL1  H22B 4716   6.376   0.103   4.873
   48CHL1   C23 4717   6.372   0.268   4.723
   48CHL1  H23A 4718   6.261   0.264   4.722
   48CHL1  H23B 4719   6.428   0.356   4.696
   48CHL1   C24 4720   6.370   0.243   4.575
   48CHL1  H24A 4721   6.473   0.226   4.552
   48CHL1  H24B 4722   6.292   0.167   4.579
   48CHL1   C25 4723   6.286   0.258   4.456
   48CHL1   H25 4724   6.335   0.352   4.439
   48CHL1   C26 4725   6.329   0.159   4.353
   48CHL1  H26A 4726   6.280   0.065   4.388
   48CHL1  H26B 4727   6.288   0.158   4.254
   48CHL1  H26C 4728   6.441   0.155   4.343
   48CHL1   C27 4729   6.136   0.229   4.477
   48CHL1  H27A 4730   6.099   0.258   4.379
   48CHL1  H27B 4731   6.111   0.120   4.493
   48CHL1  H27C 4732   6.104   0.282   4.567
   49CHL1    C3 4733   3.895   3.736   2.516
   49CHL1    H3 4734   3.906   3.846   2.506
   49CHL1    O3 4735   3.932   3.680   2.392
   49CHL1   H3' 4736   4.020   3.716   2.372
   49CHL1    C4 4737   3.996   3.693   2.625
   49CHL1   H4A 4738   4.017   3.584   2.620
   49CHL1   H4B 4739   4.092   3.744   2.601
   49CHL1    C5 4740   3.950   3.735   2.763
   49CHL1    C6 4741   4.028   3.810   2.843
   49CHL1    H6 4742   4.125   3.846   2.808
   49CHL1    C7 4743   3.998   3.835   2.987
   49CHL1   H7A 4744   4.089   3.817   3.048
   49CHL1   H7B 4745   3.962   3.938   3.004
   49CHL1    C8 4746   3.890   3.741   3.038
   49CHL1    H8 4747   3.938   3.641   3.049
   49CHL1   C14 4748   3.847   3.793   3.170
   49CHL1   H14 4749   3.792   3.890   3.157
   49CHL1   C15 4750   3.957   3.823   3.274
   49CHL1  H15A 4751   4.044   3.755   3.274
   49CHL1  H15B 4752   3.988   3.927   3.252
   49CHL1   C16 4753   3.894   3.804   3.410
   49CHL1  H16A 4754   3.939   3.730   3.478
   49CHL1  H16B 4755   3.901   3.899   3.466
   49CHL1   C17 4756   3.753   3.753   3.372
   49CHL1   H17 4757   3.710   3.848   3.345
   49CHL1   C13 4758   3.749   3.704   3.232
   49CHL1   C18 4759   3.805   3.569   3.242
   49CHL1  H18A 4760   3.876   3.544   3.324
   49CHL1  H18B 4761   3.706   3.546   3.277
   49CHL1  H18C 4762   3.811   3.505   3.153
   49CHL1   C12 4763   3.615   3.708   3.154
   49CHL1  H12A 4764   3.535   3.641   3.192
   49CHL1  H12B 4765   3.567   3.805   3.159
   49CHL1   C11 4766   3.640   3.674   3.006
   49CHL1  H11A 4767   3.650   3.565   3.008
   49CHL1  H11B 4768   3.549   3.699   2.948
   49CHL1    C9 4769   3.769   3.738   2.944
   49CHL1    H9 4770   3.742   3.846   2.932
   49CHL1   C10 4771   3.809   3.689   2.801
   49CHL1   C19 4772   3.804   3.535   2.800
   49CHL1  H19A 4773   3.846   3.491   2.893
   49CHL1  H19B 4774   3.697   3.508   2.794
   49CHL1  H19C 4775   3.850   3.485   2.713
   49CHL1    C1 4776   3.712   3.746   2.692
   49CHL1   H1A 4777   3.607   3.717   2.715
   49CHL1   H1B 4778   3.713   3.857   2.690
   49CHL1    C2 4779   3.749   3.700   2.549
   49CHL1   H2A 4780   3.680   3.747   2.475
   49CHL1   H2B 4781   3.735   3.590   2.541
   49CHL1   C20 4782   3.692   3.669   3.485
   49CHL1   H20 4783   3.762   3.585   3.497
   49CHL1   C21 4784   3.543   3.616   3.472
   49CHL1  H21A 4785   3.461   3.660   3.535
   49CHL1  H21B 4786   3.554   3.515   3.499
   49CHL1  H21C 4787   3.500   3.618   3.373
   49CHL1   C22 4788   3.710   3.743   3.616
   49CHL1  H22A 4789   3.803   3.803   3.635
   49CHL1  H22B 4790   3.606   3.782   3.614
   49CHL1   C23 4791   3.647   3.707   3.743
   49CHL1  H23A 4792   3.580   3.646   3.712
   49CHL1  H23B 4793   3.723   3.656   3.697
   49CHL1   C24 4794   3.646   3.754   3.900
   49CHL1  H24A 4795   3.725   3.829   3.902
   49CHL1  H24B 4796   3.536   3.771   3.887
   49CHL1   C25 4797   3.630   3.690   4.054
   49CHL1   H25 4798   3.617   3.765   4.127
   49CHL1   C26 4799   3.445   3.650   4.019
   49CHL1  H26A 4800   3.391   3.731   4.014
   49CHL1  H26B 4801   3.402   3.565   3.945
   49CHL1  H26C 4802   3.389   3.580   4.096
   49CHL1   C27 4803   3.795   3.586   4.149
   49CHL1  H27A 4804   3.882   3.582   4.085
   49CHL1  H27B 4805   3.775   3.486   4.199
   49CHL1  H27C 4806   3.845   3.480   4.100
   50CHL1    C3 4807   4.172   2.966   2.519
   50CHL1    H3 4808   4.282   2.978   2.530
   50CHL1    O3 4809   4.147   2.921   2.387
   50CHL1   H3' 4810   4.159   2.996   2.329
   50CHL1    C4 4811   4.129   2.863   2.617
   50CHL1   H4A 4812   4.027   2.822   2.588
   50CHL1   H4B 4813   4.213   2.795   2.596
   50CHL1    C5 4814   4.140   2.890   2.764
   50CHL1    C6 4815   4.219   2.824   2.849
   50CHL1    H6 4816   4.286   2.746   2.827
   50CHL1    C7 4817   4.222   2.825   2.991
   50CHL1   H7A 4818   4.181   2.727   3.021
   50CHL1   H7B 4819   4.329   2.838   3.016
   50CHL1    C8 4820   4.125   2.924   3.043
   50CHL1    H8 4821   4.027   2.871   3.045
   50CHL1   C14 4822   4.178   2.961   3.178
   50CHL1   H14 4823   4.276   3.011   3.162
   50CHL1   C15 4824   4.207   2.852   3.282
   50CHL1  H15A 4825   4.119   2.785   3.276
   50CHL1  H15B 4826   4.301   2.795   3.268
   50CHL1   C16 4827   4.201   2.921   3.418
   50CHL1  H16A 4828   4.128   2.865   3.480
   50CHL1  H16B 4829   4.299   2.917   3.471
   50CHL1   C17 4830   4.148   3.065   3.388
   50CHL1   H17 4831   4.238   3.130   3.376
   50CHL1   C13 4832   4.089   3.058   3.246
   50CHL1   C18 4833   3.953   2.995   3.252
   50CHL1  H18A 4834   3.890   2.990   3.161
   50CHL1  H18B 4835   3.951   2.895   3.301
   50CHL1  H18C 4836   3.900   3.067   3.315
   50CHL1   C12 4837   4.083   3.188   3.165
   50CHL1  H12A 4838   4.013   3.257   3.215
   50CHL1  H12B 4839   4.184   3.234   3.166
   50CHL1   C11 4840   4.037   3.160   3.020
   50CHL1  H11A 4841   3.929   3.132   3.027
   50CHL1  H11B 4842   4.043   3.249   2.956
   50CHL1    C9 4843   4.117   3.047   2.952
   50CHL1    H9 4844   4.222   3.082   2.940
   50CHL1   C10 4845   4.070   3.012   2.808
   50CHL1   C19 4846   3.919   2.987   2.811
   50CHL1  H19A 4847   3.890   2.926   2.899
   50CHL1  H19B 4848   3.871   3.086   2.815
   50CHL1  H19C 4849   3.881   2.933   2.722
   50CHL1    C1 4850   4.114   3.124   2.706
   50CHL1   H1A 4851   4.064   3.218   2.731
   50CHL1   H1B 4852   4.223   3.141   2.722
   50CHL1    C2 4853   4.096   3.092   2.554
   50CHL1   H2A 4854   4.138   3.175   2.494
   50CHL1   H2B 4855   3.989   3.076   2.528
   50CHL1   C20 4856   4.068   3.120   3.507
   50CHL1   H20 4857   3.985   3.048   3.527
   50CHL1   C21 4858   3.995   3.254   3.486
   50CHL1  H21A 4859   4.057   3.341   3.459
   50CHL1  H21B 4860   3.935   3.280   3.577
   50CHL1  H21C 4861   3.926   3.238   3.403
   50CHL1   C22 4862   4.161   3.137   3.628
   50CHL1  H22A 4863   4.242   3.061   3.629
   50CHL1  H22B 4864   4.211   3.236   3.620
   50CHL1   C23 4865   4.094   3.129   3.764
   50CHL1  H23A 4866   4.164   3.171   3.839
   50CHL1  H23B 4867   4.001   3.189   3.764
   50CHL1   C24 4868   4.063   2.985   3.798
   50CHL1  H24A 4869   3.982   2.946   3.731
   50CHL1  H24B 4870   4.152   2.920   3.784
   50CHL1   C25 4871   4.022   2.972   3.944
   50CHL1   H25 4872   3.940   3.042   3.967
   50CHL1   C26 4873   3.968   2.838   3.958
   50CHL1  H26A 4874   4.047   2.761   3.932
   50CHL1  H26B 4875   3.922   2.800   4.047
   50CHL1  H26C 4876   3.872   2.830   3.906
   50CHL1   C27 4877   4.141   2.987   4.037
   50CHL1  H27A 4878   4.106   2.984   4.142
   50CHL1  H27B 4879   4.214   2.904   4.022
   50CHL1  H27C 4880   4.194   3.081   4.024
   51CHL1    C3 4881   4.415   4.369   2.513
   51CHL1    H3 4882   4.327   4.436   2.521
   51CHL1    O3 4883   4.416   4.301   2.389
   51CHL1   H3' 4884   4.329   4.255   2.389
   51CHL1    C4 4885   4.538   4.455   2.523
   51CHL1   H4A 4886   4.629   4.398   2.490
   51CHL1   H4B 4887   4.525   4.530   2.442
   51CHL1    C5 4888   4.544   4.514   2.664
   51CHL1    C6 4889   4.555   4.647   2.687
   51CHL1    H6 4890   4.555   4.717   2.605
   51CHL1    C7 4891   4.603   4.716   2.811
   51CHL1   H7A 4892   4.700   4.770   2.797
   51CHL1   H7B 4893   4.541   4.802   2.832
   51CHL1    C8 4894   4.627   4.615   2.924
   51CHL1    H8 4895   4.723   4.563   2.931
   51CHL1   C14 4896   4.606   4.690   3.050
   51CHL1   H14 4897   4.497   4.710   3.041
   51CHL1   C15 4898   4.664   4.833   3.070
   51CHL1  H15A 4899   4.761   4.866   3.039
   51CHL1  H15B 4900   4.612   4.910   3.012
   51CHL1   C16 4901   4.674   4.844   3.220
   51CHL1  H16A 4902   4.773   4.837   3.263
   51CHL1  H16B 4903   4.663   4.945   3.253
   51CHL1   C17 4904   4.597   4.721   3.277
   51CHL1   H17 4905   4.492   4.734   3.264
   51CHL1   C13 4906   4.611   4.607   3.177
   51CHL1   C18 4907   4.737   4.545   3.206
   51CHL1  H18A 4908   4.791   4.641   3.201
   51CHL1  H18B 4909   4.749   4.499   3.305
   51CHL1  H18C 4910   4.785   4.478   3.132
   51CHL1   C12 4911   4.516   4.492   3.166
   51CHL1  H12A 4912   4.525   4.425   3.254
   51CHL1  H12B 4913   4.416   4.537   3.160
   51CHL1   C11 4914   4.549   4.409   3.041
   51CHL1  H11A 4915   4.651   4.366   3.053
   51CHL1  H11B 4916   4.480   4.324   3.034
   51CHL1    C9 4917   4.537   4.495   2.913
   51CHL1    H9 4918   4.438   4.541   2.906
   51CHL1   C10 4919   4.549   4.416   2.784
   51CHL1   C19 4920   4.667   4.324   2.820
   51CHL1  H19A 4921   4.765   4.360   2.840
   51CHL1  H19B 4922   4.659   4.234   2.882
   51CHL1  H19C 4923   4.722   4.308   2.734
   51CHL1    C1 4924   4.424   4.328   2.763
   51CHL1   H1A 4925   4.426   4.253   2.844
   51CHL1   H1B 4926   4.334   4.390   2.778
   51CHL1    C2 4927   4.404   4.266   2.624
   51CHL1   H2A 4928   4.304   4.221   2.617
   51CHL1   H2B 4929   4.472   4.183   2.601
   51CHL1   C20 4930   4.627   4.707   3.425
   51CHL1   H20 4931   4.737   4.700   3.437
   51CHL1   C21 4932   4.565   4.581   3.488
   51CHL1  H21A 4933   4.454   4.582   3.482
   51CHL1  H21B 4934   4.593   4.577   3.595
   51CHL1  H21C 4935   4.604   4.489   3.442
   51CHL1   C22 4936   4.579   4.835   3.497
   51CHL1  H22A 4937   4.640   4.921   3.463
   51CHL1  H22B 4938   4.474   4.856   3.473
   51CHL1   C23 4939   4.592   4.833   3.647
   51CHL1  H23A 4940   4.525   4.756   3.693
   51CHL1  H23B 4941   4.699   4.813   3.670
   51CHL1   C24 4942   4.565   4.970   3.706
   51CHL1  H24A 4943   4.630   5.042   3.652
   51CHL1  H24B 4944   4.462   5.005   3.692
   51CHL1   C25 4945   4.602   4.973   3.853
   51CHL1   H25 4946   4.683   4.900   3.874
   51CHL1   C26 4947   4.662   5.112   3.882
   51CHL1  H26A 4948   4.723   5.120   3.971
   51CHL1  H26B 4949   4.742   5.129   3.811
   51CHL1  H26C 4950   4.596   5.200   3.880
   51CHL1   C27 4951   4.484   4.920   3.935
   51CHL1  H27A 4952   4.407   4.998   3.937
   51CHL1  H27B 4953   4.435   4.830   3.895
   51CHL1  H27C 4954   4.516   4.896   4.038
   52CHL1    C3 4955   4.170   5.125   2.523
   52CHL1    H3 4956   4.152   5.229   2.558
   52CHL1    O3 4957   4.166   5.121   2.381
   52CHL1   H3' 4958   4.081   5.159   2.357
   52CHL1    C4 4959   4.310   5.086   2.566
   52CHL1   H4A 4960   4.326   4.984   2.523
   52CHL1   H4B 4961   4.377   5.160   2.517
   52CHL1    C5 4962   4.331   5.085   2.715
   52CHL1    C6 4963   4.427   5.158   2.774
   52CHL1    H6 4964   4.496   5.221   2.716
   52CHL1    C7 4965   4.448   5.157   2.923
   52CHL1   H7A 4966   4.555   5.147   2.948
   52CHL1   H7B 4967   4.413   5.255   2.964
   52CHL1    C8 4968   4.363   5.052   2.997
   52CHL1    H8 4969   4.408   4.951   2.984
   52CHL1   C14 4970   4.354   5.098   3.141
   52CHL1   H14 4971   4.318   5.203   3.140
   52CHL1   C15 4972   4.486   5.106   3.211
   52CHL1  H15A 4973   4.504   5.001   3.194
   52CHL1  H15B 4974   4.564   5.167   3.164
   52CHL1   C16 4975   4.449   5.139   3.355
   52CHL1  H16A 4976   4.503   5.077   3.429
   52CHL1  H16B 4977   4.474   5.246   3.370
   52CHL1   C17 4978   4.296   5.108   3.366
   52CHL1   H17 4979   4.245   5.206   3.354
   52CHL1   C13 4980   4.263   5.026   3.238
   52CHL1   C18 4981   4.301   4.878   3.257
   52CHL1  H18A 4982   4.235   4.820   3.324
   52CHL1  H18B 4983   4.315   4.823   3.162
   52CHL1  H18C 4984   4.397   4.882   3.307
   52CHL1   C12 4985   4.124   5.036   3.183
   52CHL1  H12A 4986   4.069   4.966   3.247
   52CHL1  H12B 4987   4.081   5.136   3.199
   52CHL1   C11 4988   4.114   5.001   3.032
   52CHL1  H11A 4989   4.113   4.895   3.007
   52CHL1  H11B 4990   4.017   5.044   2.999
   52CHL1    C9 4991   4.224   5.057   2.940
   52CHL1    H9 4992   4.198   5.166   2.939
   52CHL1   C10 4993   4.221   5.010   2.793
   52CHL1   C19 4994   4.243   4.857   2.780
   52CHL1  H19A 4995   4.342   4.828   2.818
   52CHL1  H19B 4996   4.166   4.799   2.834
   52CHL1  H19C 4997   4.238   4.826   2.673
   52CHL1    C1 4998   4.081   5.042   2.736
   52CHL1   H1A 4999   4.008   4.973   2.783
   52CHL1   H1B 5000   4.055   5.145   2.767
   52CHL1    C2 5001   4.070   5.028   2.584
   52CHL1   H2A 5002   3.968   5.051   2.550
   52CHL1   H2B 5003   4.094   4.923   2.555
   52CHL1   C20 5004   4.259   5.057   3.505
   52CHL1   H20 5005   4.320   4.969   3.531
   52CHL1   C21 5006   4.113   5.011   3.517
   52CHL1  H21A 5007   4.044   5.089   3.479
   52CHL1  H21B 5008   4.084   4.987   3.621
   52CHL1  H21C 5009   4.103   4.916   3.462
   52CHL1   C22 5010   4.286   5.169   3.606
   52CHL1  H22A 5011   4.395   5.193   3.606
   52CHL1  H22B 5012   4.230   5.261   3.576
   52CHL1   C23 5013   4.246   5.132   3.746
   52CHL1  H23A 5014   4.139   5.144   3.770
   52CHL1  H23B 5015   4.269   5.024   3.765
   52CHL1   C24 5016   4.318   5.219   3.844
   52CHL1  H24A 5017   4.421   5.180   3.841
   52CHL1  H24B 5018   4.327   5.326   3.823
   52CHL1   C25 5019   4.245   5.192   3.974
   52CHL1   H25 5020   4.246   5.081   3.986
   52CHL1   C26 5021   4.310   5.252   4.083
   52CHL1  H26A 5022   4.395   5.200   4.046
   52CHL1  H26B 5023   4.340   5.357   4.079
   52CHL1  H26C 5024   4.293   5.218   4.187
   52CHL1   C27 5025   4.124   5.268   4.009
   52CHL1  H27A 5026   4.090   5.234   4.109
   52CHL1  H27B 5027   4.150   5.376   4.022
   52CHL1  H27C 5028   4.055   5.249   3.929
   53CHL1    C3 5029   3.415   5.287   2.514
   53CHL1    H3 5030   3.311   5.247   2.506
   53CHL1    O3 5031   3.467   5.310   2.384
   53CHL1   H3' 5032   3.433   5.235   2.333
   53CHL1    C4 5033   3.415   5.417   2.593
   53CHL1   H4A 5034   3.518   5.454   2.592
   53CHL1   H4B 5035   3.351   5.491   2.540
   53CHL1    C5 5036   3.380   5.403   2.739
   53CHL1    C6 5037   3.268   5.454   2.788
   53CHL1    H6 5038   3.203   5.513   2.722
   53CHL1    C7 5039   3.232   5.443   2.933
   53CHL1   H7A 5040   3.188   5.534   2.963
   53CHL1   H7B 5041   3.147   5.371   2.944
   53CHL1    C8 5042   3.355   5.421   3.026
   53CHL1    H8 5043   3.427   5.503   3.017
   53CHL1   C14 5044   3.315   5.391   3.174
   53CHL1   H14 5045   3.237   5.315   3.169
   53CHL1   C15 5046   3.225   5.467   3.264
   53CHL1  H15A 5047   3.255   5.568   3.276
   53CHL1  H15B 5048   3.118   5.444   3.250
   53CHL1   C16 5049   3.243   5.456   3.409
   53CHL1  H16A 5050   3.272   5.555   3.455
   53CHL1  H16B 5051   3.142   5.427   3.445
   53CHL1   C17 5052   3.351   5.352   3.408
   53CHL1   H17 5053   3.288   5.260   3.407
   53CHL1   C13 5054   3.424   5.361   3.271
   53CHL1   C18 5055   3.525   5.470   3.270
   53CHL1  H18A 5056   3.473   5.560   3.306
   53CHL1  H18B 5057   3.606   5.443   3.339
   53CHL1  H18C 5058   3.567   5.484   3.167
   53CHL1   C12 5059   3.483   5.235   3.226
   53CHL1  H12A 5060   3.551   5.177   3.287
   53CHL1  H12B 5061   3.393   5.187   3.263
   53CHL1   C11 5062   3.526   5.233   3.077
   53CHL1  H11A 5063   3.620   5.289   3.073
   53CHL1  H11B 5064   3.553   5.129   3.053
   53CHL1    C9 5065   3.433   5.302   2.971
   53CHL1    H9 5066   3.342   5.249   2.975
   53CHL1   C10 5067   3.481   5.317   2.819
   53CHL1   C19 5068   3.618   5.375   2.831
   53CHL1  H19A 5069   3.655   5.405   2.732
   53CHL1  H19B 5070   3.611   5.462   2.898
   53CHL1  H19C 5071   3.687   5.298   2.872
   53CHL1    C1 5072   3.513   5.194   2.729
   53CHL1   H1A 5073   3.582   5.114   2.765
   53CHL1   H1B 5074   3.409   5.168   2.729
   53CHL1    C2 5075   3.514   5.190   2.577
   53CHL1   H2A 5076   3.496   5.087   2.538
   53CHL1   H2B 5077   3.619   5.216   2.560
   53CHL1   C20 5078   3.427   5.362   3.537
   53CHL1   H20 5079   3.485   5.457   3.534
   53CHL1   C21 5080   3.529   5.248   3.559
   53CHL1  H21A 5081   3.600   5.238   3.475
   53CHL1  H21B 5082   3.478   5.151   3.576
   53CHL1  H21C 5083   3.590   5.271   3.649
   53CHL1   C22 5084   3.321   5.376   3.651
   53CHL1  H22A 5085   3.284   5.481   3.648
   53CHL1  H22B 5086   3.234   5.309   3.634
   53CHL1   C23 5087   3.373   5.353   3.792
   53CHL1  H23A 5088   3.382   5.243   3.809
   53CHL1  H23B 5089   3.475   5.397   3.798
   53CHL1   C24 5090   3.291   5.423   3.902
   53CHL1  H24A 5091   3.305   5.533   3.894
   53CHL1  H24B 5092   3.183   5.403   3.886
   53CHL1   C25 5093   3.334   5.374   4.043
   53CHL1   H25 5094   3.317   5.265   4.040
   53CHL1   C26 5095   3.482   5.393   4.078
   53CHL1  H26A 5096   3.509   5.495   4.059
   53CHL1  H26B 5097   3.505   5.372   4.185
   53CHL1  H26C 5098   3.549   5.333   4.014
   53CHL1   C27 5099   3.247   5.429   4.157
   53CHL1  H27A 5100   3.257   5.539   4.167
   53CHL1  H27B 5101   3.142   5.402   4.135
   53CHL1  H27C 5102   3.274   5.384   4.255
   54CHL1    C3 5103   2.629   5.421   2.512
   54CHL1    H3 5104   2.606   5.312   2.504
   54CHL1    O3 5105   2.647   5.483   2.387
   54CHL1   H3' 5106   2.576   5.448   2.330
   54CHL1    C4 5107   2.515   5.495   2.579
   54CHL1   H4A 5108   2.529   5.605   2.570
   54CHL1   H4B 5109   2.426   5.471   2.516
   54CHL1    C5 5110   2.506   5.457   2.725
   54CHL1    C6 5111   2.401   5.412   2.787
   54CHL1    H6 5112   2.323   5.399   2.733
   54CHL1    C7 5113   2.357   5.383   2.922
   54CHL1   H7A 5114   2.251   5.416   2.939
   54CHL1   H7B 5115   2.362   5.273   2.932
   54CHL1    C8 5116   2.453   5.463   3.004
   54CHL1    H8 5117   2.431   5.572   2.989
   54CHL1   C14 5118   2.427   5.424   3.147
   54CHL1   H14 5119   2.438   5.312   3.144
   54CHL1   C15 5120   2.287   5.446   3.205
   54CHL1  H15A 5121   2.248   5.545   3.175
   54CHL1  H15B 5122   2.217   5.371   3.163
   54CHL1   C16 5123   2.309   5.441   3.357
   54CHL1  H16A 5124   2.269   5.533   3.403
   54CHL1  H16B 5125   2.254   5.363   3.409
   54CHL1   C17 5126   2.464   5.425   3.378
   54CHL1   H17 5127   2.488   5.317   3.375
   54CHL1   C13 5128   2.526   5.479   3.248
   54CHL1   C18 5129   2.528   5.634   3.254
   54CHL1  H18A 5130   2.517   5.679   3.154
   54CHL1  H18B 5131   2.450   5.677   3.319
   54CHL1  H18C 5132   2.628   5.663   3.293
   54CHL1   C12 5133   2.663   5.426   3.206
   54CHL1  H12A 5134   2.742   5.465   3.272
   54CHL1  H12B 5135   2.660   5.315   3.208
   54CHL1   C11 5136   2.697   5.471   3.063
   54CHL1  H11A 5137   2.702   5.582   3.067
   54CHL1  H11B 5138   2.796   5.428   3.037
   54CHL1    C9 5139   2.596   5.427   2.957
   54CHL1    H9 5140   2.601   5.317   2.953
   54CHL1   C10 5141   2.624   5.466   2.807
   54CHL1   C19 5142   2.653   5.607   2.807
   54CHL1  H19A 5143   2.745   5.589   2.865
   54CHL1  H19B 5144   2.683   5.651   2.712
   54CHL1  H19C 5145   2.587   5.675   2.861
   54CHL1    C1 5146   2.746   5.401   2.737
   54CHL1   H1A 5147   2.840   5.435   2.784
   54CHL1   H1B 5148   2.738   5.291   2.750
   54CHL1    C2 5149   2.760   5.439   2.588
   54CHL1   H2A 5150   2.837   5.376   2.539
   54CHL1   H2B 5151   2.793   5.544   2.575
   54CHL1   C20 5152   2.507   5.480   3.516
   54CHL1   H20 5153   2.472   5.585   3.522
   54CHL1   C21 5154   2.658   5.477   3.545
   54CHL1  H21A 5155   2.706   5.378   3.546
   54CHL1  H21B 5156   2.672   5.514   3.649
   54CHL1  H21C 5157   2.714   5.543   3.475
   54CHL1   C22 5158   2.436   5.409   3.631
   54CHL1  H22A 5159   2.446   5.469   3.724
   54CHL1  H22B 5160   2.326   5.399   3.613
   54CHL1   C23 5161   2.502   5.275   3.659
   54CHL1  H23A 5162   2.502   5.207   3.570
   54CHL1  H23B 5163   2.594   5.271   3.718
   54CHL1   C24 5164   2.420   5.208   3.756
   54CHL1  H24A 5165   2.336   5.219   3.691
   54CHL1  H24B 5166   2.457   5.103   3.748
   54CHL1   C25 5167   2.393   5.280   3.890
   54CHL1   H25 5168   2.357   5.383   3.872
   54CHL1   C26 5169   2.260   5.278   3.949
   54CHL1  H26A 5170   2.203   5.271   3.853
   54CHL1  H26B 5171   2.294   5.179   3.978
   54CHL1  H26C 5172   2.210   5.253   4.045
   54CHL1   C27 5173   2.483   5.229   4.001
   54CHL1  H27A 5174   2.437   5.265   4.096
   54CHL1  H27B 5175   2.482   5.116   4.005
   54CHL1  H27C 5176   2.578   5.269   3.967
   55CHL1    C3 5177   5.209   1.932   2.513
   55CHL1    H3 5178   5.321   1.928   2.507
   55CHL1    O3 5179   5.156   1.934   2.381
   55CHL1   H3' 5180   5.181   1.848   2.343
   55CHL1    C4 5181   5.159   1.809   2.588
   55CHL1   H4A 5182   5.049   1.802   2.583
   55CHL1   H4B 5183   5.198   1.716   2.541
   55CHL1    C5 5184   5.203   1.827   2.731
   55CHL1    C6 5185   5.296   1.753   2.785
   55CHL1    H6 5186   5.332   1.663   2.731
   55CHL1    C7 5187   5.302   1.755   2.932
   55CHL1   H7A 5188   5.254   1.662   2.935
   55CHL1   H7B 5189   5.406   1.758   2.968
   55CHL1    C8 5190   5.197   1.809   3.032
   55CHL1    H8 5191   5.104   1.746   3.028
   55CHL1   C14 5192   5.243   1.829   3.181
   55CHL1   H14 5193   5.339   1.882   3.169
   55CHL1   C15 5194   5.281   1.720   3.278
   55CHL1  H15A 5195   5.190   1.654   3.289
   55CHL1  H15B 5196   5.376   1.684   3.235
   55CHL1   C16 5197   5.290   1.754   3.420
   55CHL1  H16A 5198   5.236   1.678   3.483
   55CHL1  H16B 5199   5.397   1.751   3.447
   55CHL1   C17 5200   5.224   1.892   3.410
   55CHL1   H17 5201   5.314   1.956   3.403
   55CHL1   C13 5202   5.152   1.906   3.270
   55CHL1   C18 5203   5.016   1.836   3.275
   55CHL1  H18A 5204   5.018   1.735   3.322
   55CHL1  H18B 5205   4.940   1.894   3.329
   55CHL1  H18C 5206   4.978   1.823   3.172
   55CHL1   C12 5207   5.148   2.041   3.200
   55CHL1  H12A 5208   5.085   2.111   3.257
   55CHL1  H12B 5209   5.253   2.077   3.192
   55CHL1   C11 5210   5.098   2.034   3.054
   55CHL1  H11A 5211   4.992   2.003   3.055
   55CHL1  H11B 5212   5.109   2.133   3.006
   55CHL1    C9 5213   5.180   1.942   2.966
   55CHL1    H9 5214   5.286   1.981   2.965
   55CHL1   C10 5215   5.137   1.936   2.815
   55CHL1   C19 5216   4.982   1.935   2.808
   55CHL1  H19A 5217   4.939   1.848   2.862
   55CHL1  H19B 5218   4.938   2.027   2.851
   55CHL1  H19C 5219   4.950   1.932   2.703
   55CHL1    C1 5220   5.194   2.057   2.738
   55CHL1   H1A 5221   5.147   2.146   2.784
   55CHL1   H1B 5222   5.305   2.065   2.748
   55CHL1    C2 5223   5.162   2.058   2.587
   55CHL1   H2A 5224   5.206   2.150   2.542
   55CHL1   H2B 5225   5.052   2.061   2.575
   55CHL1   C20 5226   5.152   1.920   3.540
   55CHL1   H20 5227   5.084   1.834   3.557
   55CHL1   C21 5228   5.061   2.045   3.535
   55CHL1  H21A 5229   5.022   2.057   3.638
   55CHL1  H21B 5230   4.974   2.025   3.471
   55CHL1  H21C 5231   5.107   2.140   3.503
   55CHL1   C22 5232   5.256   1.922   3.656
   55CHL1  H22A 5233   5.309   1.824   3.660
   55CHL1  H22B 5234   5.331   2.002   3.636
   55CHL1   C23 5235   5.199   1.949   3.797
   55CHL1  H23A 5236   5.161   2.053   3.799
   55CHL1  H23B 5237   5.113   1.881   3.815
   55CHL1   C24 5238   5.302   1.926   3.909
   55CHL1  H24A 5239   5.333   1.819   3.909
   55CHL1  H24B 5240   5.394   1.986   3.892
   55CHL1   C25 5241   5.250   1.955   4.052
   55CHL1   H25 5242   5.196   2.052   4.052
   55CHL1   C26 5243   5.154   1.845   4.095
   55CHL1  H26A 5244   5.118   1.852   4.200
   55CHL1  H26B 5245   5.069   1.859   4.028
   55CHL1  H26C 5246   5.199   1.745   4.078
   55CHL1   C27 5247   5.369   1.956   4.147
   55CHL1  H27A 5248   5.422   1.860   4.133
   55CHL1  H27B 5249   5.435   2.042   4.120
   55CHL1  H27C 5250   5.336   1.963   4.252
   56CHL1    C3 5251   5.944   4.139   2.518
   56CHL1    H3 5252   5.940   4.031   2.543
   56CHL1    O3 5253   5.945   4.158   2.378
   56CHL1   H3' 5254   5.968   4.251   2.373
   56CHL1    C4 5255   5.822   4.210   2.576
   56CHL1   H4A 5256   5.822   4.319   2.554
   56CHL1   H4B 5257   5.732   4.164   2.528
   56CHL1    C5 5258   5.825   4.197   2.725
   56CHL1    C6 5259   5.724   4.146   2.786
   56CHL1    H6 5260   5.631   4.115   2.735
   56CHL1    C7 5261   5.732   4.139   2.934
   56CHL1   H7A 5262   5.633   4.176   2.954
   56CHL1   H7B 5263   5.753   4.036   2.971
   56CHL1    C8 5264   5.829   4.208   3.021
   56CHL1    H8 5265   5.797   4.313   3.013
   56CHL1   C14 5266   5.834   4.152   3.166
   56CHL1   H14 5267   5.862   4.044   3.157
   56CHL1   C15 5268   5.718   4.151   3.265
   56CHL1  H15A 5269   5.649   4.236   3.244
   56CHL1  H15B 5270   5.673   4.048   3.263
   56CHL1   C16 5271   5.757   4.143   3.405
   56CHL1  H16A 5272   5.701   4.222   3.461
   56CHL1  H16B 5273   5.732   4.043   3.449
   56CHL1   C17 5274   5.905   4.170   3.390
   56CHL1   H17 5275   5.951   4.068   3.388
   56CHL1   C13 5276   5.932   4.228   3.246
   56CHL1   C18 5277   5.892   4.378   3.242
   56CHL1  H18A 5278   5.783   4.393   3.258
   56CHL1  H18B 5279   5.945   4.429   3.324
   56CHL1  H18C 5280   5.921   4.427   3.147
   56CHL1   C12 5281   6.069   4.202   3.183
   56CHL1  H12A 5282   6.141   4.271   3.229
   56CHL1  H12B 5283   6.098   4.096   3.202
   56CHL1   C11 5284   6.078   4.228   3.031
   56CHL1  H11A 5285   6.087   4.337   3.018
   56CHL1  H11B 5286   6.169   4.177   2.994
   56CHL1    C9 5287   5.959   4.179   2.949
   56CHL1    H9 5288   5.971   4.067   2.944
   56CHL1   C10 5289   5.953   4.233   2.803
   56CHL1   C19 5290   5.962   4.387   2.808
   56CHL1  H19A 5291   5.911   4.432   2.895
   56CHL1  H19B 5292   6.069   4.416   2.815
   56CHL1  H19C 5293   5.921   4.433   2.716
   56CHL1    C1 5294   6.076   4.179   2.728
   56CHL1   H1A 5295   6.163   4.233   2.772
   56CHL1   H1B 5296   6.086   4.070   2.747
   56CHL1    C2 5297   6.071   4.201   2.576
   56CHL1   H2A 5298   6.161   4.156   2.530
   56CHL1   H2B 5299   6.068   4.310   2.552
   56CHL1   C20 5300   5.943   4.243   3.516
   56CHL1   H20 5301   5.900   4.346   3.517
   56CHL1   C21 5302   6.095   4.254   3.514
   56CHL1  H21A 5303   6.137   4.278   3.613
   56CHL1  H21B 5304   6.123   4.333   3.441
   56CHL1  H21C 5305   6.134   4.156   3.480
   56CHL1   C22 5306   5.888   4.162   3.637
   56CHL1  H22A 5307   5.777   4.151   3.640
   56CHL1  H22B 5308   5.937   4.064   3.640
   56CHL1   C23 5309   5.915   4.217   3.769
   56CHL1  H23A 5310   5.883   4.147   3.851
   56CHL1  H23B 5311   6.025   4.228   3.778
   56CHL1   C24 5312   5.834   4.339   3.784
   56CHL1  H24A 5313   5.855   4.426   3.721
   56CHL1  H24B 5314   5.723   4.345   3.779
   56CHL1   C25 5315   5.859   4.358   3.922
   56CHL1   H25 5316   5.822   4.466   3.909
   56CHL1   C26 5317   5.737   4.317   3.992
   56CHL1  H26A 5318   5.632   4.339   3.973
   56CHL1  H26B 5319   5.769   4.237   4.060
   56CHL1  H26C 5320   5.724   4.413   4.045
   56CHL1   C27 5321   6.007   4.306   3.986
   56CHL1  H27A 5322   6.060   4.391   4.019
   56CHL1  H27B 5323   6.031   4.226   4.051
   56CHL1  H27C 5324   6.114   4.343   3.979
   57CHL1    C3 5325   4.632   1.356   2.517
   57CHL1    H3 5326   4.564   1.444   2.517
   57CHL1    O3 5327   4.654   1.309   2.385
   57CHL1   H3' 5328   4.723   1.368   2.351
   57CHL1    C4 5329   4.767   1.403   2.573
   57CHL1   H4A 5330   4.844   1.327   2.565
   57CHL1   H4B 5331   4.815   1.478   2.508
   57CHL1    C5 5332   4.745   1.451   2.715
   57CHL1    C6 5333   4.782   1.571   2.753
   57CHL1    H6 5334   4.830   1.632   2.677
   57CHL1    C7 5335   4.766   1.619   2.894
   57CHL1   H7A 5336   4.856   1.674   2.923
   57CHL1   H7B 5337   4.678   1.687   2.899
   57CHL1    C8 5338   4.742   1.508   3.002
   57CHL1    H8 5339   4.839   1.453   3.016
   57CHL1   C14 5340   4.701   1.562   3.137
   57CHL1   H14 5341   4.607   1.620   3.123
   57CHL1   C15 5342   4.795   1.662   3.202
   57CHL1  H15A 5343   4.899   1.623   3.190
   57CHL1  H15B 5344   4.786   1.764   3.159
   57CHL1   C16 5345   4.758   1.662   3.350
   57CHL1  H16A 5346   4.850   1.634   3.407
   57CHL1  H16B 5347   4.721   1.760   3.388
   57CHL1   C17 5348   4.651   1.552   3.366
   57CHL1   H17 5349   4.553   1.600   3.344
   57CHL1   C13 5350   4.675   1.457   3.247
   57CHL1   C18 5351   4.800   1.373   3.277
   57CHL1  H18A 5352   4.887   1.439   3.295
   57CHL1  H18B 5353   4.782   1.310   3.367
   57CHL1  H18C 5354   4.829   1.307   3.195
   57CHL1   C12 5355   4.559   1.368   3.204
   57CHL1  H12A 5356   4.556   1.280   3.273
   57CHL1  H12B 5357   4.464   1.423   3.209
   57CHL1   C11 5358   4.570   1.323   3.057
   57CHL1  H11A 5359   4.644   1.256   3.079
   57CHL1  H11B 5360   4.491   1.257   3.018
   57CHL1    C9 5361   4.633   1.417   2.950
   57CHL1    H9 5362   4.544   1.477   2.921
   57CHL1   C10 5363   4.673   1.360   2.814
   57CHL1   C19 5364   4.798   1.280   2.828
   57CHL1  H19A 5365   4.797   1.220   2.747
   57CHL1  H19B 5366   4.897   1.297   2.871
   57CHL1  H19C 5367   4.785   1.185   2.861
   57CHL1    C1 5368   4.547   1.295   2.746
   57CHL1   H1A 5369   4.508   1.208   2.801
   57CHL1   H1B 5370   4.461   1.363   2.747
   57CHL1    C2 5371   4.563   1.250   2.603
   57CHL1   H2A 5372   4.473   1.205   2.557
   57CHL1   H2B 5373   4.621   1.162   2.621
   57CHL1   C20 5374   4.646   1.502   3.511
   57CHL1   H20 5375   4.732   1.434   3.530
   57CHL1   C21 5376   4.515   1.427   3.542
   57CHL1  H21A 5377   4.523   1.378   3.642
   57CHL1  H21B 5378   4.489   1.353   3.464
   57CHL1  H21C 5379   4.432   1.499   3.548
   57CHL1   C22 5380   4.667   1.620   3.611
   57CHL1  H22A 5381   4.766   1.666   3.589
   57CHL1  H22B 5382   4.588   1.697   3.599
   57CHL1   C23 5383   4.686   1.576   3.756
   57CHL1  H23A 5384   4.590   1.541   3.799
   57CHL1  H23B 5385   4.761   1.494   3.755
   57CHL1   C24 5386   4.742   1.688   3.845
   57CHL1  H24A 5387   4.835   1.729   3.801
   57CHL1  H24B 5388   4.668   1.771   3.848
   57CHL1   C25 5389   4.771   1.640   3.989
   57CHL1   H25 5390   4.680   1.595   4.035
   57CHL1   C26 5391   4.882   1.533   3.998
   57CHL1  H26A 5392   4.914   1.527   4.104
   57CHL1  H26B 5393   4.848   1.434   3.963
   57CHL1  H26C 5394   4.969   1.561   3.935
   57CHL1   C27 5395   4.808   1.759   4.078
   57CHL1  H27A 5396   4.813   1.728   4.185
   57CHL1  H27B 5397   4.907   1.791   4.049
   57CHL1  H27C 5398   4.742   1.846   4.068
   58CHL1    C3 5399   5.942   2.129   2.516
   58CHL1    H3 5400   6.010   2.043   2.525
   58CHL1    O3 5401   5.879   2.133   2.390
   58CHL1   H3' 5402   5.849   2.040   2.376
   58CHL1    C4 5403   5.833   2.121   2.619
   58CHL1   H4A 5404   5.763   2.207   2.612
   58CHL1   H4B 5405   5.774   2.029   2.599
   58CHL1    C5 5406   5.888   2.126   2.757
   58CHL1    C6 5407   5.849   2.036   2.843
   58CHL1    H6 5408   5.791   1.947   2.810
   58CHL1    C7 5409   5.890   2.053   2.984
   58CHL1   H7A 5410   5.814   2.024   3.058
   58CHL1   H7B 5411   5.978   1.995   2.994
   58CHL1    C8 5412   5.969   2.165   3.037
   58CHL1    H8 5413   5.893   2.242   3.054
   58CHL1   C14 5414   6.040   2.129   3.170
   58CHL1   H14 5415   6.125   2.056   3.151
   58CHL1   C15 5416   5.957   2.083   3.291
   58CHL1  H15A 5417   5.856   2.120   3.301
   58CHL1  H15B 5418   5.936   1.984   3.317
   58CHL1   C16 5419   6.043   2.104   3.411
   58CHL1  H16A 5420   5.982   2.166   3.481
   58CHL1  H16B 5421   6.078   2.012   3.463
   58CHL1   C17 5422   6.156   2.187   3.357
   58CHL1   H17 5423   6.242   2.121   3.327
   58CHL1   C13 5424   6.107   2.248   3.227
   58CHL1   C18 5425   6.008   2.361   3.261
   58CHL1  H18A 5426   5.954   2.395   3.172
   58CHL1  H18B 5427   5.934   2.329   3.338
   58CHL1  H18C 5428   6.061   2.449   3.301
   58CHL1   C12 5429   6.206   2.290   3.121
   58CHL1  H12A 5430   6.230   2.394   3.153
   58CHL1  H12B 5431   6.293   2.223   3.116
   58CHL1   C11 5432   6.147   2.311   2.981
   58CHL1  H11A 5433   6.089   2.404   2.991
   58CHL1  H11B 5434   6.224   2.322   2.903
   58CHL1    C9 5435   6.064   2.200   2.926
   58CHL1    H9 5436   6.135   2.115   2.905
   58CHL1   C10 5437   5.992   2.233   2.793
   58CHL1   C19 5438   5.917   2.366   2.809
   58CHL1  H19A 5439   5.876   2.395   2.712
   58CHL1  H19B 5440   5.836   2.362   2.884
   58CHL1  H19C 5441   5.985   2.448   2.836
   58CHL1    C1 5442   6.094   2.248   2.675
   58CHL1   H1A 5443   6.155   2.339   2.689
   58CHL1   H1B 5444   6.161   2.160   2.672
   58CHL1    C2 5445   6.028   2.252   2.537
   58CHL1   H2A 5446   6.108   2.260   2.460
   58CHL1   H2B 5447   5.957   2.336   2.530
   58CHL1   C20 5448   6.182   2.272   3.474
   58CHL1   H20 5449   6.103   2.331   3.522
   58CHL1   C21 5450   6.260   2.394   3.432
   58CHL1  H21A 5451   6.305   2.339   3.350
   58CHL1  H21B 5452   6.306   2.424   3.525
   58CHL1  H21C 5453   6.253   2.485   3.374
   58CHL1   C22 5454   6.231   2.171   3.587
   58CHL1  H22A 5455   6.247   2.234   3.674
   58CHL1  H22B 5456   6.148   2.120   3.633
   58CHL1   C23 5457   6.324   2.043   3.546
   58CHL1  H23A 5458   6.330   2.002   3.447
   58CHL1  H23B 5459   6.428   2.065   3.536
   58CHL1   C24 5460   6.363   1.946   3.651
   58CHL1  H24A 5461   6.364   2.046   3.703
   58CHL1  H24B 5462   6.284   1.896   3.702
   58CHL1   C25 5463   6.497   1.854   3.629
   58CHL1   H25 5464   6.578   1.922   3.591
   58CHL1   C26 5465   6.567   1.761   3.736
   58CHL1  H26A 5466   6.631   1.842   3.770
   58CHL1  H26B 5467   6.508   1.708   3.812
   58CHL1  H26C 5468   6.666   1.741   3.772
   58CHL1   C27 5469   6.475   1.745   3.540
   58CHL1  H27A 5470   6.451   1.792   3.444
   58CHL1  H27B 5471   6.571   1.687   3.538
   58CHL1  H27C 5472   6.394   1.687   3.589
   59CHL1    C3 5473   4.129   0.803   2.509
   59CHL1    H3 5474   4.023   0.778   2.525
   59CHL1    O3 5475   4.169   0.771   2.376
   59CHL1   H3' 5476   4.146   0.846   2.318
   59CHL1    C4 5477   4.164   0.951   2.539
   59CHL1   H4A 5478   4.269   0.972   2.510
   59CHL1   H4B 5479   4.098   1.012   2.474
   59CHL1    C5 5480   4.154   0.991   2.684
   59CHL1    C6 5481   4.080   1.091   2.726
   59CHL1    H6 5482   4.020   1.154   2.656
   59CHL1    C7 5483   4.066   1.121   2.871
   59CHL1   H7A 5484   4.098   1.224   2.870
   59CHL1   H7B 5485   3.963   1.118   2.912
   59CHL1    C8 5486   4.164   1.060   2.970
   59CHL1    H8 5487   4.255   1.125   2.968
   59CHL1   C14 5488   4.105   1.050   3.108
   59CHL1   H14 5489   4.015   0.984   3.097
   59CHL1   C15 5490   4.048   1.171   3.172
   59CHL1  H15A 5491   4.103   1.267   3.162
   59CHL1  H15B 5492   3.948   1.177   3.126
   59CHL1   C16 5493   4.019   1.130   3.315
   59CHL1  H16A 5494   4.057   1.212   3.379
   59CHL1  H16B 5495   3.908   1.120   3.325
   59CHL1   C17 5496   4.090   0.997   3.336
   59CHL1   H17 5497   4.010   0.921   3.322
   59CHL1   C13 5498   4.186   0.985   3.217
   59CHL1   C18 5499   4.312   1.069   3.243
   59CHL1  H18A 5500   4.379   1.012   3.309
   59CHL1  H18B 5501   4.368   1.089   3.149
   59CHL1  H18C 5502   4.286   1.164   3.293
   59CHL1   C12 5503   4.222   0.844   3.170
   59CHL1  H12A 5504   4.291   0.796   3.241
   59CHL1  H12B 5505   4.129   0.785   3.160
   59CHL1   C11 5506   4.287   0.851   3.032
   59CHL1  H11A 5507   4.383   0.907   3.035
   59CHL1  H11B 5508   4.311   0.748   3.004
   59CHL1    C9 5509   4.192   0.920   2.930
   59CHL1    H9 5510   4.093   0.869   2.940
   59CHL1   C10 5511   4.226   0.903   2.783
   59CHL1   C19 5512   4.374   0.936   2.771
   59CHL1  H19A 5513   4.410   1.023   2.826
   59CHL1  H19B 5514   4.431   0.852   2.814
   59CHL1  H19C 5515   4.402   0.951   2.665
   59CHL1    C1 5516   4.191   0.757   2.749
   59CHL1   H1A 5517   4.238   0.692   2.823
   59CHL1   H1B 5518   4.084   0.736   2.769
   59CHL1    C2 5519   4.211   0.718   2.604
   59CHL1   H2A 5520   4.209   0.608   2.590
   59CHL1   H2B 5521   4.302   0.763   2.564
   59CHL1   C20 5522   4.143   0.990   3.478
   59CHL1   H20 5523   4.214   1.074   3.501
   59CHL1   C21 5524   4.215   0.858   3.505
   59CHL1  H21A 5525   4.149   0.774   3.478
   59CHL1  H21B 5526   4.240   0.851   3.613
   59CHL1  H21C 5527   4.310   0.853   3.449
   59CHL1   C22 5528   4.027   1.004   3.577
   59CHL1  H22A 5529   3.980   1.103   3.564
   59CHL1  H22B 5530   3.951   0.926   3.557
   59CHL1   C23 5531   4.071   0.992   3.722
   59CHL1  H23A 5532   4.096   0.887   3.747
   59CHL1  H23B 5533   4.156   1.062   3.743
   59CHL1   C24 5534   3.955   1.025   3.809
   59CHL1  H24A 5535   3.929   1.123   3.765
   59CHL1  H24B 5536   3.861   0.975   3.788
   59CHL1   C25 5537   3.981   1.017   3.962
   59CHL1   H25 5538   4.064   1.090   3.990
   59CHL1   C26 5539   3.842   1.047   4.022
   59CHL1  H26A 5540   3.806   1.146   3.983
   59CHL1  H26B 5541   3.775   0.964   4.018
   59CHL1  H26C 5542   3.817   1.071   4.127
   59CHL1   C27 5543   4.046   0.900   4.020
   59CHL1  H27A 5544   4.058   0.917   4.130
   59CHL1  H27B 5545   3.972   0.824   3.996
   59CHL1  H27C 5546   4.148   0.891   3.975
   60CHL1    C3 5547   4.495   6.517   2.517
   60CHL1    H3 5548   4.562   6.605   2.517
   60CHL1    O3 5549   4.478   6.480   2.381
   60CHL1   H3' 5550   4.562   6.440   2.353
   60CHL1    C4 5551   4.559   6.398   2.588
   60CHL1   H4A 5552   4.497   6.307   2.570
   60CHL1   H4B 5553   4.656   6.375   2.539
   60CHL1    C5 5554   4.572   6.426   2.737
   60CHL1    C6 5555   4.691   6.428   2.800
   60CHL1    H6 5556   4.780   6.394   2.744
   60CHL1    C7 5557   4.702   6.420   2.952
   60CHL1   H7A 5558   4.773   6.337   2.981
   60CHL1   H7B 5559   4.743   6.516   2.985
   60CHL1    C8 5560   4.568   6.388   3.025
   60CHL1    H8 5561   4.543   6.283   2.999
   60CHL1   C14 5562   4.570   6.397   3.178
   60CHL1   H14 5563   4.619   6.494   3.207
   60CHL1   C15 5564   4.632   6.279   3.250
   60CHL1  H15A 5565   4.634   6.184   3.195
   60CHL1  H15B 5566   4.729   6.291   3.245
   60CHL1   C16 5567   4.595   6.279   3.397
   60CHL1  H16A 5568   4.566   6.174   3.411
   60CHL1  H16B 5569   4.671   6.292   3.476
   60CHL1   C17 5570   4.481   6.385   3.400
   60CHL1   H17 5571   4.527   6.482   3.430
   60CHL1   C13 5572   4.438   6.391   3.250
   60CHL1   C18 5573   4.372   6.255   3.206
   60CHL1  H18A 5574   4.418   6.165   3.251
   60CHL1  H18B 5575   4.263   6.254   3.222
   60CHL1  H18C 5576   4.382   6.240   3.097
   60CHL1   C12 5577   4.364   6.515   3.203
   60CHL1  H12A 5578   4.268   6.524   3.256
   60CHL1  H12B 5579   4.424   6.606   3.226
   60CHL1   C11 5580   4.338   6.503   3.051
   60CHL1  H11A 5581   4.265   6.421   3.038
   60CHL1  H11B 5582   4.293   6.597   3.016
   60CHL1    C9 5583   4.465   6.482   2.964
   60CHL1    H9 5584   4.514   6.582   2.963
   60CHL1   C10 5585   4.440   6.450   2.813
   60CHL1   C19 5586   4.339   6.333   2.805
   60CHL1  H19A 5587   4.241   6.373   2.840
   60CHL1  H19B 5588   4.323   6.300   2.701
   60CHL1  H19C 5589   4.366   6.246   2.869
   60CHL1    C1 5590   4.378   6.573   2.740
   60CHL1   H1A 5591   4.279   6.591   2.785
   60CHL1   H1B 5592   4.440   6.662   2.764
   60CHL1    C2 5593   4.363   6.559   2.586
   60CHL1   H2A 5594   4.330   6.657   2.543
   60CHL1   H2B 5595   4.281   6.488   2.562
   60CHL1   C20 5596   4.375   6.353   3.504
   60CHL1   H20 5597   4.312   6.272   3.458
   60CHL1   C21 5598   4.282   6.473   3.534
   60CHL1  H21A 5599   4.221   6.503   3.447
   60CHL1  H21B 5600   4.339   6.561   3.569
   60CHL1  H21C 5601   4.207   6.446   3.611
   60CHL1   C22 5602   4.448   6.303   3.633
   60CHL1  H22A 5603   4.504   6.211   3.609
   60CHL1  H22B 5604   4.515   6.378   3.676
   60CHL1   C23 5605   4.370   6.280   3.760
   60CHL1  H23A 5606   4.290   6.350   3.789
   60CHL1  H23B 5607   4.306   6.218   3.718
   60CHL1   C24 5608   4.435   6.193   3.870
   60CHL1  H24A 5609   4.532   6.237   3.882
   60CHL1  H24B 5610   4.363   6.200   3.957
   60CHL1   C25 5611   4.481   6.044   3.854
   60CHL1   H25 5612   4.388   5.999   3.864
   60CHL1   C26 5613   4.526   5.983   3.719
   60CHL1  H26A 5614   4.617   6.038   3.698
   60CHL1  H26B 5615   4.541   5.873   3.730
   60CHL1  H26C 5616   4.455   5.996   3.634
   60CHL1   C27 5617   4.533   5.974   3.980
   60CHL1  H27A 5618   4.457   5.982   4.062
   60CHL1  H27B 5619   4.544   5.864   3.959
   60CHL1  H27C 5620   4.626   6.022   4.005
   61CHL1    C3 5621   6.498   2.630   2.507
   61CHL1    H3 5622   6.502   2.519   2.487
   61CHL1    O3 5623   6.461   2.704   2.392
   61CHL1   H3' 5624   6.373   2.675   2.361
   61CHL1    C4 5625   6.397   2.658   2.619
   61CHL1   H4A 5626   6.384   2.767   2.633
   61CHL1   H4B 5627   6.297   2.616   2.592
   61CHL1    C5 5628   6.448   2.597   2.744
   61CHL1    C6 5629   6.373   2.512   2.810
   61CHL1    H6 5630   6.269   2.497   2.781
   61CHL1    C7 5631   6.430   2.447   2.928
   61CHL1   H7A 5632   6.353   2.428   2.999
   61CHL1   H7B 5633   6.472   2.350   2.892
   61CHL1    C8 5634   6.532   2.539   3.000
   61CHL1    H8 5635   6.477   2.627   3.037
   61CHL1   C14 5636   6.597   2.484   3.121
   61CHL1   H14 5637   6.629   2.397   3.073
   61CHL1   C15 5638   6.521   2.471   3.230
   61CHL1  H15A 5639   6.438   2.531   3.271
   61CHL1  H15B 5640   6.438   2.402   3.188
   61CHL1   C16 5641   6.651   2.434   3.352
   61CHL1  H16A 5642   6.618   2.472   3.447
   61CHL1  H16B 5643   6.683   2.318   3.393
   61CHL1   C17 5644   6.777   2.424   3.309
   61CHL1   H17 5645   6.804   2.321   3.269
   61CHL1   C13 5646   6.724   2.517   3.195
   61CHL1   C18 5647   6.681   2.650   3.255
   61CHL1  H18A 5648   6.585   2.656   3.312
   61CHL1  H18B 5649   6.751   2.680   3.330
   61CHL1  H18C 5650   6.669   2.718   3.171
   61CHL1   C12 5651   6.812   2.501   3.082
   61CHL1  H12A 5652   6.905   2.515   3.118
   61CHL1  H12B 5653   6.819   2.394   3.051
   61CHL1   C11 5654   6.776   2.591   2.968
   61CHL1  H11A 5655   6.783   2.695   3.005
   61CHL1  H11B 5656   6.857   2.572   2.897
   61CHL1    C9 5657   6.643   2.549   2.903
   61CHL1    H9 5658   6.663   2.443   2.868
   61CHL1   C10 5659   6.592   2.628   2.786
   61CHL1   C19 5660   6.599   2.772   2.835
   61CHL1  H19A 5661   6.704   2.798   2.859
   61CHL1  H19B 5662   6.565   2.845   2.760
   61CHL1  H19C 5663   6.536   2.779   2.925
   61CHL1    C1 5664   6.685   2.603   2.670
   61CHL1   H1A 5665   6.789   2.624   2.699
   61CHL1   H1B 5666   6.684   2.497   2.650
   61CHL1    C2 5667   6.640   2.673   2.543
   61CHL1   H2A 5668   6.708   2.642   2.461
   61CHL1   H2B 5669   6.650   2.783   2.554
   61CHL1   C20 5670   6.826   2.444   3.461
   61CHL1   H20 5671   6.774   2.521   3.526
   61CHL1   C21 5672   6.926   2.528   3.441
   61CHL1  H21A 5673   6.907   2.626   3.399
   61CHL1  H21B 5674   6.968   2.474   3.357
   61CHL1  H21C 5675   6.980   2.520   3.532
   61CHL1   C22 5676   6.848   2.316   3.552
   61CHL1  H22A 5677   6.807   2.218   3.513
   61CHL1  H22B 5678   6.941   2.263   3.565
   61CHL1   C23 5679   6.812   2.360   3.692
   61CHL1  H23A 5680   6.875   2.446   3.713
   61CHL1  H23B 5681   6.709   2.400   3.698
   61CHL1   C24 5682   6.828   2.242   3.782
   61CHL1  H24A 5683   6.776   2.153   3.741
   61CHL1  H24B 5684   6.937   2.226   3.778
   61CHL1   C25 5685   6.786   2.260   3.926
   61CHL1   H25 5686   6.680   2.271   3.956
   61CHL1   C26 5687   6.855   2.164   4.018
   61CHL1  H26A 5688   6.831   2.171   4.125
   61CHL1  H26B 5689   6.805   2.072   3.984
   61CHL1  H26C 5690   6.964   2.160   4.000
   61CHL1   C27 5691   6.804   2.383   3.964
   61CHL1  H27A 5692   6.800   2.478   3.910
   61CHL1  H27B 5693   6.779   2.381   4.074
   61CHL1  H27C 5694   6.910   2.362   3.946
   62CHL1    C3 5695   1.802   1.305   2.513
   62CHL1    H3 5696   1.893   1.245   2.534
   62CHL1    O3 5697   1.758   1.274   2.383
   62CHL1   H3' 5698   1.828   1.306   2.325
   62CHL1    C4 5699   1.691   1.269   2.614
   62CHL1   H4A 5700   1.599   1.323   2.587
   62CHL1   H4B 5701   1.670   1.161   2.607
   62CHL1    C5 5702   1.731   1.304   2.755
   62CHL1    C6 5703   1.736   1.211   2.852
   62CHL1    H6 5704   1.704   1.109   2.831
   62CHL1    C7 5705   1.776   1.241   2.993
   62CHL1   H7A 5706   1.712   1.188   3.067
   62CHL1   H7B 5707   1.883   1.214   3.011
   62CHL1    C8 5708   1.758   1.392   3.020
   62CHL1    H8 5709   1.651   1.418   3.014
   62CHL1   C14 5710   1.819   1.418   3.158
   62CHL1   H14 5711   1.924   1.382   3.157
   62CHL1   C15 5712   1.742   1.359   3.275
   62CHL1  H15A 5713   1.634   1.380   3.265
   62CHL1  H15B 5714   1.757   1.251   3.282
   62CHL1   C16 5715   1.789   1.438   3.397
   62CHL1  H16A 5716   1.699   1.473   3.451
   62CHL1  H16B 5717   1.853   1.380   3.465
   62CHL1   C17 5718   1.866   1.563   3.347
   62CHL1   H17 5719   1.969   1.528   3.345
   62CHL1   C13 5720   1.839   1.559   3.193
   62CHL1   C18 5721   1.713   1.614   3.208
   62CHL1  H18A 5722   1.730   1.720   3.206
   62CHL1  H18B 5723   1.660   1.577   3.122
   62CHL1  H18C 5724   1.645   1.597   3.294
   62CHL1   C12 5725   1.923   1.614   3.073
   62CHL1  H12A 5726   1.920   1.723   3.051
   62CHL1  H12B 5727   2.027   1.583   3.092
   62CHL1   C11 5728   1.870   1.611   2.935
   62CHL1  H11A 5729   1.785   1.680   2.928
   62CHL1  H11B 5730   1.950   1.654   2.869
   62CHL1    C9 5731   1.827   1.470   2.910
   62CHL1    H9 5732   1.915   1.416   2.935
   62CHL1   C10 5733   1.772   1.450   2.771
   62CHL1   C19 5734   1.657   1.550   2.762
   62CHL1  H19A 5735   1.694   1.655   2.758
   62CHL1  H19B 5736   1.597   1.534   2.671
   62CHL1  H19C 5737   1.597   1.538   2.852
   62CHL1    C1 5738   1.868   1.494   2.660
   62CHL1   H1A 5739   1.893   1.602   2.673
   62CHL1   H1B 5740   1.958   1.435   2.667
   62CHL1    C2 5741   1.830   1.456   2.519
   62CHL1   H2A 5742   1.910   1.484   2.446
   62CHL1   H2B 5743   1.738   1.511   2.494
   62CHL1   C20 5744   1.821   1.678   3.456
   62CHL1   H20 5745   1.712   1.691   3.452
   62CHL1   C21 5746   1.856   1.822   3.439
   62CHL1  H21A 5747   1.892   1.910   3.494
   62CHL1  H21B 5748   1.811   1.836   3.341
   62CHL1  H21C 5749   1.963   1.840   3.438
   62CHL1   C22 5750   1.868   1.658   3.599
   62CHL1  H22A 5751   1.865   1.551   3.615
   62CHL1  H22B 5752   1.970   1.685   3.632
   62CHL1   C23 5753   1.810   1.768   3.683
   62CHL1  H23A 5754   1.863   1.866   3.670
   62CHL1  H23B 5755   1.706   1.773   3.649
   62CHL1   C24 5756   1.829   1.731   3.826
   62CHL1  H24A 5757   1.937   1.718   3.844
   62CHL1  H24B 5758   1.792   1.814   3.888
   62CHL1   C25 5759   1.761   1.599   3.857
   62CHL1   H25 5760   1.809   1.517   3.798
   62CHL1   C26 5761   1.778   1.563   4.001
   62CHL1  H26A 5762   1.737   1.637   4.070
   62CHL1  H26B 5763   1.750   1.458   4.026
   62CHL1  H26C 5764   1.884   1.576   4.008
   62CHL1   C27 5765   1.614   1.614   3.834
   62CHL1  H27A 5766   1.559   1.534   3.886
   62CHL1  H27B 5767   1.580   1.713   3.874
   62CHL1  H27C 5768   1.595   1.608   3.726
   63CHL1    C3 5769   6.469   4.622   2.481
   63CHL1    H3 5770   6.364   4.637   2.507
   63CHL1    O3 5771   6.525   4.629   2.348
   63CHL1   H3' 5772   6.622   4.629   2.366
   63CHL1    C4 5773   6.499   4.755   2.569
   63CHL1   H4A 5774   6.593   4.745   2.505
   63CHL1   H4B 5775   6.550   4.851   2.544
   63CHL1    C5 5776   6.482   4.732   2.732
   63CHL1    C6 5777   6.485   4.841   2.817
   63CHL1    H6 5778   6.541   4.928   2.773
   63CHL1    C7 5779   6.517   4.818   2.965
   63CHL1   H7A 5780   6.576   4.899   3.015
   63CHL1   H7B 5781   6.412   4.819   2.993
   63CHL1    C8 5782   6.560   4.681   3.033
   63CHL1    H8 5783   6.671   4.678   3.024
   63CHL1   C14 5784   6.513   4.660   3.177
   63CHL1   H14 5785   6.402   4.661   3.168
   63CHL1   C15 5786   6.536   4.773   3.276
   63CHL1  H15A 5787   6.636   4.815   3.261
   63CHL1  H15B 5788   6.481   4.865   3.257
   63CHL1   C16 5789   6.497   4.706   3.411
   63CHL1  H16A 5790   6.562   4.716   3.497
   63CHL1  H16B 5791   6.413   4.756   3.459
   63CHL1   C17 5792   6.488   4.551   3.392
   63CHL1   H17 5793   6.379   4.536   3.391
   63CHL1   C13 5794   6.534   4.523   3.250
   63CHL1   C18 5795   6.671   4.466   3.247
   63CHL1  H18A 5796   6.732   4.505   3.318
   63CHL1  H18B 5797   6.709   4.378   3.296
   63CHL1  H18C 5798   6.717   4.502   3.156
   63CHL1   C12 5799   6.465   4.416   3.171
   63CHL1  H12A 5800   6.492   4.315   3.213
   63CHL1  H12B 5801   6.359   4.439   3.169
   63CHL1   C11 5802   6.514   4.423   3.028
   63CHL1  H11A 5803   6.613   4.380   3.041
   63CHL1  H11B 5804   6.480   4.339   2.966
   63CHL1    C9 5805   6.503   4.567   2.954
   63CHL1    H9 5806   6.391   4.570   2.943
   63CHL1   C10 5807   6.574   4.602   2.814
   63CHL1   C19 5808   6.807   4.607   2.838
   63CHL1  H19A 5809   6.889   4.584   2.755
   63CHL1  H19B 5810   6.838   4.605   2.934
   63CHL1  H19C 5811   6.865   4.523   2.746
   63CHL1    C1 5812   6.469   4.486   2.705
   63CHL1   H1A 5813   6.485   4.377   2.706
   63CHL1   H1B 5814   6.364   4.486   2.736
   63CHL1    C2 5815   6.482   4.474   2.538
   63CHL1   H2A 5816   6.428   4.401   2.478
   63CHL1   H2B 5817   6.582   4.423   2.506
   63CHL1   C20 5818   6.550   4.471   3.511
   63CHL1   H20 5819   6.659   4.491   3.527
   63CHL1   C21 5820   6.547   4.317   3.496
   63CHL1  H21A 5821   6.601   4.275   3.584
   63CHL1  H21B 5822   6.597   4.278   3.406
   63CHL1  H21C 5823   6.443   4.281   3.498
   63CHL1   C22 5824   6.482   4.509   3.645
   63CHL1  H22A 5825   6.404   4.586   3.630
   63CHL1  H22B 5826   6.429   4.416   3.676
   63CHL1   C23 5827   6.575   4.551   3.761
   63CHL1  H23A 5828   6.658   4.478   3.766
   63CHL1  H23B 5829   6.622   4.651   3.745
   63CHL1   C24 5830   6.494   4.556   3.892
   63CHL1  H24A 5831   6.424   4.642   3.891
   63CHL1  H24B 5832   6.433   4.462   3.894
   63CHL1   C25 5833   6.570   4.567   4.026
   63CHL1   H25 5834   6.599   4.674   4.039
   63CHL1   C26 5835   6.480   4.525   4.142
   63CHL1  H26A 5836   6.533   4.525   4.239
   63CHL1  H26B 5837   6.391   4.592   4.153
   63CHL1  H26C 5838   6.447   4.421   4.119
   63CHL1   C27 5839   6.695   4.479   4.027
   63CHL1  H27A 5840   6.770   4.522   3.957
   63CHL1  H27B 5841   6.739   4.472   4.129
   63CHL1  H27C 5842   6.670   4.375   3.997
   64CHL1    C3 5843   1.082   5.810   2.523
   64CHL1    H3 5844   1.079   5.706   2.565
   64CHL1    O3 5845   1.103   5.802   2.383
   64CHL1   H3' 5846   1.193   5.767   2.369
   64CHL1    C4 5847   0.947   5.876   2.548
   64CHL1   H4A 5848   0.951   5.978   2.505
   64CHL1   H4B 5849   0.865   5.821   2.497
   64CHL1    C5 5850   0.924   5.874   2.697
   64CHL1    C6 5851   0.834   5.797   2.756
   64CHL1    H6 5852   0.768   5.731   2.700
   64CHL1    C7 5853   0.824   5.799   2.904
   64CHL1   H7A 5854   0.724   5.819   2.925
   64CHL1   H7B 5855   0.860   5.703   2.947
   64CHL1    C8 5856   0.881   5.919   2.979
   64CHL1    H8 5857   0.808   6.003   2.969
   64CHL1   C14 5858   0.917   5.894   3.124
   64CHL1   H14 5859   0.979   5.801   3.137
   64CHL1   C15 5860   0.825   5.824   3.188
   64CHL1  H15A 5861   0.739   5.871   3.126
   64CHL1  H15B 5862   0.787   5.729   3.150
   64CHL1   C16 5863   0.867   5.844   3.352
   64CHL1  H16A 5864   0.793   5.889   3.428
   64CHL1  H16B 5865   0.854   5.765   3.428
   64CHL1   C17 5866   0.960   5.949   3.366
   64CHL1   H17 5867   1.038   5.872   3.387
   64CHL1   C13 5868   0.960   6.006   3.223
   64CHL1   C18 5869   0.899   6.149   3.206
   64CHL1  H18A 5870   0.864   6.158   3.103
   64CHL1  H18B 5871   0.803   6.188   3.233
   64CHL1  H18C 5872   0.950   6.231   3.259
   64CHL1   C12 5873   1.095   6.011   3.171
   64CHL1  H12A 5874   1.149   6.094   3.220
   64CHL1  H12B 5875   1.144   5.914   3.187
   64CHL1   C11 5876   1.083   6.025   3.020
   64CHL1  H11A 5877   1.027   6.114   2.990
   64CHL1  H11B 5878   1.189   6.018   2.998
   64CHL1    C9 5879   1.013   5.930   2.929
   64CHL1    H9 5880   1.057   5.831   2.954
   64CHL1   C10 5881   1.023   5.953   2.777
   64CHL1   C19 5882   0.992   6.095   2.737
   64CHL1  H19A 5883   1.063   6.161   2.784
   64CHL1  H19B 5884   0.980   6.124   2.632
   64CHL1  H19C 5885   0.893   6.120   2.764
   64CHL1    C1 5886   1.164   5.912   2.739
   64CHL1   H1A 5887   1.237   5.984   2.778
   64CHL1   H1B 5888   1.181   5.817   2.795
   64CHL1    C2 5889   1.193   5.892   2.590
   64CHL1   H2A 5890   1.293   5.843   2.584
   64CHL1   H2B 5891   1.204   5.991   2.539
   64CHL1   C20 5892   0.931   6.037   3.486
   64CHL1   H20 5893   0.845   6.112   3.479
   64CHL1   C21 5894   1.058   6.105   3.475
   64CHL1  H21A 5895   1.081   6.185   3.402
   64CHL1  H21B 5896   1.138   6.056   3.531
   64CHL1  H21C 5897   1.009   6.167   3.541
   64CHL1   C22 5898   0.918   5.953   3.620
   64CHL1  H22A 5899   0.854   5.868   3.606
   64CHL1  H22B 5900   1.016   5.919   3.648
   64CHL1   C23 5901   0.862   6.000   3.753
   64CHL1  H23A 5902   0.955   6.029   3.803
   64CHL1  H23B 5903   0.784   6.077   3.722
   64CHL1   C24 5904   0.815   5.937   3.887
   64CHL1  H24A 5905   0.719   5.966   3.846
   64CHL1  H24B 5906   0.801   5.837   3.897
   64CHL1   C25 5907   0.753   6.000   4.010
   64CHL1   H25 5908   0.674   6.070   3.969
   64CHL1   C26 5909   0.625   5.963   4.058
   64CHL1  H26A 5910   0.611   6.052   4.130
   64CHL1  H26B 5911   0.531   5.959   3.999
   64CHL1  H26C 5912   0.649   5.868   4.104
   64CHL1   C27 5913   0.857   6.059   4.110
   64CHL1  H27A 5914   0.937   5.987   4.122
   64CHL1  H27B 5915   0.924   6.138   4.068
   64CHL1  H27C 5916   0.821   6.122   4.196
   65CHL1    C3 5917   1.016   1.484   2.521
   65CHL1    H3 5918   0.997   1.589   2.553
   65CHL1    O3 5919   0.996   1.472   2.382
   65CHL1   H3' 5920   1.053   1.540   2.340
   65CHL1    C4 5921   1.162   1.454   2.547
   65CHL1   H4A 5922   1.192   1.356   2.506
   65CHL1   H4B 5923   1.222   1.534   2.498
   65CHL1    C5 5924   1.187   1.452   2.693
   65CHL1    C6 5925   1.278   1.532   2.740
   65CHL1    H6 5926   1.333   1.609   2.682
   65CHL1    C7 5927   1.311   1.520   2.878
   65CHL1   H7A 5928   1.416   1.531   2.872
   65CHL1   H7B 5929   1.264   1.611   2.894
   65CHL1    C8 5930   1.258   1.414   2.978
   65CHL1    H8 5931   1.327   1.332   2.962
   65CHL1   C14 5932   1.253   1.434   3.133
   65CHL1   H14 5933   1.175   1.510   3.144
   65CHL1   C15 5934   1.372   1.456   3.221
   65CHL1  H15A 5935   1.467   1.427   3.176
   65CHL1  H15B 5936   1.351   1.558   3.247
   65CHL1   C16 5937   1.360   1.462   3.368
   65CHL1  H16A 5938   1.452   1.411   3.398
   65CHL1  H16B 5939   1.360   1.563   3.424
   65CHL1   C17 5940   1.225   1.393   3.363
   65CHL1   H17 5941   1.149   1.475   3.369
   65CHL1   C13 5942   1.201   1.331   3.221
   65CHL1   C18 5943   1.292   1.209   3.200
   65CHL1  H18A 5944   1.246   1.131   3.262
   65CHL1  H18B 5945   1.296   1.173   3.095
   65CHL1  H18C 5946   1.396   1.224   3.233
   65CHL1   C12 5947   1.056   1.324   3.181
   65CHL1  H12A 5948   1.007   1.248   3.243
   65CHL1  H12B 5949   1.008   1.424   3.198
   65CHL1   C11 5950   1.044   1.292   3.032
   65CHL1  H11A 5951   1.091   1.193   3.023
   65CHL1  H11B 5952   0.936   1.288   3.009
   65CHL1    C9 5953   1.114   1.393   2.937
   65CHL1    H9 5954   1.060   1.491   2.952
   65CHL1   C10 5955   1.102   1.362   2.786
   65CHL1   C19 5956   1.149   1.218   2.760
   65CHL1  H19A 5957   1.102   1.144   2.828
   65CHL1  H19B 5958   1.115   1.191   2.659
   65CHL1  H19C 5959   1.259   1.207   2.766
   65CHL1    C1 5960   0.954   1.383   2.748
   65CHL1   H1A 5961   0.892   1.304   2.796
   65CHL1   H1B 5962   0.921   1.481   2.791
   65CHL1    C2 5963   0.924   1.387   2.597
   65CHL1   H2A 5964   0.819   1.418   2.583
   65CHL1   H2B 5965   0.933   1.284   2.556
   65CHL1   C20 5966   1.223   1.305   3.483
   65CHL1   H20 5967   1.304   1.229   3.477
   65CHL1   C21 5968   1.091   1.231   3.494
   65CHL1  H21A 5969   1.084   1.179   3.591
   65CHL1  H21B 5970   1.094   1.154   3.417
   65CHL1  H21C 5971   1.001   1.294   3.478
   65CHL1   C22 5972   1.249   1.390   3.606
   65CHL1  H22A 5973   1.342   1.449   3.598
   65CHL1  H22B 5974   1.163   1.461   3.600
   65CHL1   C23 5975   1.260   1.307   3.733
   65CHL1  H23A 5976   1.161   1.259   3.754
   65CHL1  H23B 5977   1.340   1.231   3.725
   65CHL1   C24 5978   1.299   1.381   3.856
   65CHL1  H24A 5979   1.370   1.466   3.840
   65CHL1  H24B 5980   1.207   1.420   3.889
   65CHL1   C25 5981   1.306   1.305   3.986
   65CHL1   H25 5982   1.215   1.244   4.008
   65CHL1   C26 5983   1.435   1.238   3.993
   65CHL1  H26A 5984   1.509   1.320   3.978
   65CHL1  H26B 5985   1.446   1.192   4.094
   65CHL1  H26C 5986   1.435   1.163   3.912
   65CHL1   C27 5987   1.311   1.403   4.092
   65CHL1  H27A 5988   1.207   1.440   4.092
   65CHL1  H27B 5989   1.338   1.362   4.192
   65CHL1  H27C 5990   1.374   1.492   4.070
   66CHL1    C3 5991   7.097   3.195   2.518
   66CHL1    H3 5992   7.172   3.277   2.514
   66CHL1    O3 5993   7.046   3.169   2.388
   66CHL1   H3' 5994   7.123   3.141   2.335
   66CHL1    C4 5995   7.168   3.067   2.560
   66CHL1   H4A 5996   7.112   2.977   2.530
   66CHL1   H4B 5997   7.264   3.068   2.503
   66CHL1    C5 5998   7.191   3.063   2.708
   66CHL1    C6 5999   7.310   3.041   2.755
   66CHL1    H6 6000   7.397   3.016   2.692
   66CHL1    C7 6001   7.321   3.042   2.901
   66CHL1   H7A 6002   7.344   2.941   2.914
   66CHL1   H7B 6003   7.399   3.115   2.935
   66CHL1    C8 6004   7.213   3.011   2.999
   66CHL1    H8 6005   7.172   2.908   2.982
   66CHL1   C14 6006   7.268   3.024   3.140
   66CHL1   H14 6007   7.327   3.119   3.147
   66CHL1   C15 6008   7.366   2.921   3.192
   66CHL1  H15A 6009   7.342   2.822   3.152
   66CHL1  H15B 6010   7.467   2.950   3.165
   66CHL1   C16 6011   7.358   2.927   3.345
   66CHL1  H16A 6012   7.336   2.825   3.378
   66CHL1  H16B 6013   7.455   2.954   3.389
   66CHL1   C17 6014   7.240   3.024   3.375
   66CHL1   H17 6015   7.284   3.125   3.388
   66CHL1   C13 6016   7.159   3.029   3.243
   66CHL1   C18 6017   7.076   2.904   3.241
   66CHL1  H18A 6018   7.148   2.830   3.272
   66CHL1  H18B 6019   6.993   2.910   3.314
   66CHL1  H18C 6020   7.034   2.876   3.142
   66CHL1   C12 6021   7.070   3.146   3.207
   66CHL1  H12A 6022   6.990   3.145   3.282
   66CHL1  H12B 6023   7.135   3.235   3.218
   66CHL1   C11 6024   7.012   3.139   3.063
   66CHL1  H11A 6025   6.937   3.058   3.055
   66CHL1  H11B 6026   6.961   3.232   3.034
   66CHL1    C9 6027   7.122   3.118   2.958
   66CHL1    H9 6028   7.187   3.210   2.964
   66CHL1   C10 6029   7.080   3.102   2.808
   66CHL1   C19 6030   6.977   2.987   2.795
   66CHL1  H19A 6031   7.028   2.891   2.816
   66CHL1  H19B 6032   6.890   2.995   2.861
   66CHL1  H19C 6033   6.941   2.982   2.690
   66CHL1    C1 6034   7.030   3.238   2.758
   66CHL1   H1A 6035   6.945   3.271   2.821
   66CHL1   H1B 6036   7.115   3.310   2.771
   66CHL1    C2 6037   6.985   3.239   2.612
   66CHL1   H2A 6038   6.953   3.343   2.586
   66CHL1   H2B 6039   6.896   3.173   2.602
   66CHL1   C20 6040   7.167   2.989   3.506
   66CHL1   H20 6041   7.129   2.884   3.503
   66CHL1   C21 6042   7.055   3.090   3.542
   66CHL1  H21A 6043   6.970   3.080   3.474
   66CHL1  H21B 6044   7.096   3.194   3.542
   66CHL1  H21C 6045   7.009   3.076   3.641
   66CHL1   C22 6046   7.263   2.987   3.623
   66CHL1  H22A 6047   7.346   2.915   3.611
   66CHL1  H22B 6048   7.308   3.089   3.634
   66CHL1   C23 6049   7.181   2.953   3.749
   66CHL1  H23A 6050   7.131   3.047   3.783
   66CHL1  H23B 6051   7.108   2.872   3.744
   66CHL1   C24 6052   7.266   2.905   3.859
   66CHL1  H24A 6053   7.334   2.819   3.843
   66CHL1  H24B 6054   7.344   2.970   3.810
   66CHL1   C25 6055   7.185   2.929   4.003
   66CHL1   H25 6056   7.156   2.973   4.092
   66CHL1   C26 6057   7.085   2.813   4.022
   66CHL1  H26A 6058   7.076   2.800   4.134
   66CHL1  H26B 6059   7.011   2.866   3.963
   66CHL1  H26C 6060   7.137   2.730   3.974
   66CHL1   C27 6061   7.305   2.943   4.151
   66CHL1  H27A 6062   7.341   2.921   4.221
   66CHL1  H27B 6063   7.508   2.811   4.114
   66CHL1  H27C 6064   7.334   3.052   4.175
   67CHL1    C3 6065   4.300   0.041   2.522
   67CHL1    H3 6066   4.230  -0.024   2.581
   67CHL1    O3 6067   4.264   0.036   2.386
   67CHL1   H3' 6068   4.269  -0.058   2.359
   67CHL1    C4 6069   4.302   0.185   2.572
   67CHL1   H4A 6070   4.372   0.249   2.517
   67CHL1   H4B 6071   4.201   0.232   2.554
   67CHL1    C5 6072   4.362   0.183   2.711
   67CHL1    C6 6073   4.311   0.247   2.804
   67CHL1    H6 6074   4.224   0.283   2.768
   67CHL1    C7 6075   4.314   0.209   2.945
   67CHL1   H7A 6076   4.254   0.290   2.953
   67CHL1   H7B 6077   4.257   0.120   2.986
   67CHL1    C8 6078   4.437   0.196   3.007
   67CHL1    H8 6079   4.480   0.296   2.997
   67CHL1   C14 6080   4.427   0.150   3.152
   67CHL1   H14 6081   4.366   0.054   3.154
   67CHL1   C15 6082   4.361   0.235   3.258
   67CHL1  H15A 6083   4.378   0.345   3.247
   67CHL1  H15B 6084   4.259   0.201   3.247
   67CHL1   C16 6085   4.408   0.180   3.391
   67CHL1  H16A 6086   4.435   0.269   3.453
   67CHL1  H16B 6087   4.330   0.122   3.445
   67CHL1   C17 6088   4.529   0.088   3.356
   67CHL1   H17 6089   4.490  -0.016   3.353
   67CHL1   C13 6090   4.561   0.123   3.209
   67CHL1   C18 6091   4.644   0.252   3.205
   67CHL1  H18A 6092   4.606   0.327   3.277
   67CHL1  H18B 6093   4.748   0.228   3.234
   67CHL1  H18C 6094   4.647   0.300   3.105
   67CHL1   C12 6095   4.620   0.015   3.122
   67CHL1  H12A 6096   4.722  -0.003   3.159
   67CHL1  H12B 6097   4.560  -0.079   3.128
   67CHL1   C11 6098   4.624   0.056   2.974
   67CHL1  H11A 6099   4.691   0.143   2.962
   67CHL1  H11B 6100   4.658  -0.030   2.917
   67CHL1    C9 6101   4.488   0.084   2.918
   67CHL1    H9 6102   4.423  -0.006   2.935
   67CHL1   C10 6103   4.478   0.107   2.760
   67CHL1   C19 6104   4.588   0.204   2.724
   67CHL1  H19A 6105   4.572   0.266   2.633
   67CHL1  H19B 6106   4.589   0.267   2.814
   67CHL1  H19C 6107   4.689   0.161   2.720
   67CHL1    C1 6108   4.492  -0.019   2.678
   67CHL1   H1A 6109   4.601  -0.035   2.679
   67CHL1   H1B 6110   4.443  -0.102   2.731
   67CHL1    C2 6111   4.442  -0.012   2.533
   67CHL1   H2A 6112   4.445  -0.113   2.490
   67CHL1   H2B 6113   4.507   0.056   2.472
   67CHL1   C20 6114   4.634   0.103   3.466
   67CHL1   H20 6115   4.669   0.209   3.464
   67CHL1   C21 6116   4.762   0.017   3.448
   67CHL1  H21A 6117   4.807   0.036   3.349
   67CHL1  H21B 6118   4.740  -0.091   3.458
   67CHL1  H21C 6119   4.840   0.041   3.523
   67CHL1   C22 6120   4.564   0.079   3.603
   67CHL1  H22A 6121   4.505   0.170   3.628
   67CHL1  H22B 6122   4.490  -0.003   3.591
   67CHL1   C23 6123   4.655   0.046   3.722
   67CHL1  H23A 6124   4.686  -0.061   3.716
   67CHL1  H23B 6125   4.745   0.110   3.719
   67CHL1   C24 6126   4.588   0.074   3.857
   67CHL1  H24A 6127   4.544   0.176   3.852
   67CHL1  H24B 6128   4.508  -0.001   3.874
   67CHL1   C25 6129   4.685   0.077   3.977
   67CHL1   H25 6130   4.775   0.138   3.952
   67CHL1   C26 6131   4.618   0.127   4.105
   67CHL1  H26A 6132   4.537   0.057   4.131
   67CHL1  H26B 6133   4.694   0.130   4.187
   67CHL1  H26C 6134   4.572   0.227   4.093
   67CHL1   C27 6135   4.733  -0.061   4.006
   67CHL1  H27A 6136   4.769  -0.094   3.907
   67CHL1  H27B 6137   4.817  -0.065   4.078
   67CHL1  H27C 6138   4.650  -0.128   4.040
   68CHL1    C3 6139   2.105   7.051   2.519
   68CHL1    H3 6140   2.205   7.043   2.565
   68CHL1    O3 6141   2.113   7.005   2.385
   68CHL1   H3' 6142   2.121   6.910   2.392
   68CHL1    C4 6143   2.007   6.969   2.600
   68CHL1   H4A 6144   1.907   6.969   2.552
   68CHL1   H4B 6145   2.039   6.862   2.600
   68CHL1    C5 6146   2.002   7.026   2.742
   68CHL1    C6 6147   2.030   6.948   2.848
   68CHL1    H6 6148   2.047   6.840   2.832
   68CHL1    C7 6149   2.013   6.991   2.991
   68CHL1   H7A 6150   1.956   6.916   3.050
   68CHL1   H7B 6151   2.114   6.996   3.033
   68CHL1    C8 6152   1.942   7.128   3.005
   68CHL1    H8 6153   1.833   7.111   3.000
   68CHL1   C14 6154   1.978   7.192   3.138
   68CHL1   H14 6155   2.086   7.222   3.132
   68CHL1   C15 6156   1.965   7.104   3.264
   68CHL1  H15A 6157   1.870   7.047   3.261
   68CHL1  H15B 6158   2.048   7.033   3.279
   68CHL1   C16 6159   1.961   7.207   3.375
   68CHL1  H16A 6160   1.869   7.190   3.436
   68CHL1  H16B 6161   2.050   7.205   3.442
   68CHL1   C17 6162   1.960   7.346   3.308
   68CHL1   H17 6163   2.066   7.380   3.297
   68CHL1   C13 6164   1.912   7.326   3.166
   68CHL1   C18 6165   1.762   7.312   3.166
   68CHL1  H18A 6166   1.726   7.245   3.246
   68CHL1  H18B 6167   1.713   7.411   3.180
   68CHL1  H18C 6168   1.726   7.272   3.070
   68CHL1   C12 6169   1.955   7.426   3.058
   68CHL1  H12A 6170   1.898   7.520   3.063
   68CHL1  H12B 6171   2.063   7.449   3.073
   68CHL1   C11 6172   1.929   7.368   2.919
   68CHL1  H11A 6173   1.819   7.362   2.907
   68CHL1  H11B 6174   1.967   7.440   2.844
   68CHL1    C9 6175   1.985   7.225   2.896
   68CHL1    H9 6176   2.096   7.232   2.907
   68CHL1   C10 6177   1.962   7.173   2.752
   68CHL1   C19 6178   1.815   7.193   2.713
   68CHL1  H19A 6179   1.747   7.134   2.780
   68CHL1  H19B 6180   1.784   7.299   2.715
   68CHL1  H19C 6181   1.795   7.162   2.608
   68CHL1    C1 6182   2.050   7.254   2.656
   68CHL1   H1A 6183   2.012   7.358   2.650
   68CHL1   H1B 6184   2.152   7.257   2.701
   68CHL1    C2 6185   2.063   7.198   2.515
   68CHL1   H2A 6186   2.143   7.253   2.460
   68CHL1   H2B 6187   1.967   7.207   2.459
   68CHL1   C20 6188   1.895   7.445   3.396
   68CHL1   H20 6189   1.785   7.431   3.411
   68CHL1   C21 6190   1.912   7.577   3.325
   68CHL1  H21A 6191   2.003   7.638   3.338
   68CHL1  H21B 6192   1.833   7.622   3.372
   68CHL1  H21C 6193   1.859   7.591   3.230
   68CHL1   C22 6194   1.963   7.431   3.533
   68CHL1  H22A 6195   1.948   7.329   3.575
   68CHL1  H22B 6196   2.070   7.462   3.531
   68CHL1   C23 6197   1.903   7.500   3.645
   68CHL1  H23A 6198   1.928   7.606   3.623
   68CHL1  H23B 6199   1.793   7.480   3.645
   68CHL1   C24 6200   1.968   7.455   3.774
   68CHL1  H24A 6201   2.060   7.510   3.803
   68CHL1  H24B 6202   1.911   7.486   3.851
   68CHL1   C25 6203   1.921   7.323   3.839
   68CHL1   H25 6204   1.986   7.257   3.781
   68CHL1   C26 6205   1.947   7.312   3.990
   68CHL1  H26A 6206   1.886   7.354   4.069
   68CHL1  H26B 6207   1.982   7.210   4.013
   68CHL1  H26C 6208   2.018   7.387   4.016
   68CHL1   C27 6209   1.774   7.282   3.832
   68CHL1  H27A 6210   1.735   7.271   3.731
   68CHL1  H27B 6211   1.767   7.191   3.894
   68CHL1  H27C 6212   1.699   7.345   3.881
   69CHL1    C3 6213   5.031   7.055   2.509
   69CHL1    H3 6214   4.943   6.989   2.492
   69CHL1    O3 6215   5.070   7.116   2.388
   69CHL1   H3' 6216   5.112   7.047   2.335
   69CHL1    C4 6217   4.991   7.168   2.607
   69CHL1   H4A 6218   5.069   7.246   2.600
   69CHL1   H4B 6219   4.899   7.217   2.570
   69CHL1    C5 6220   4.973   7.117   2.749
   69CHL1    C6 6221   4.862   7.145   2.818
   69CHL1    H6 6222   4.788   7.210   2.770
   69CHL1    C7 6223   4.839   7.100   2.960
   69CHL1   H7A 6224   4.803   7.185   3.019
   69CHL1   H7B 6225   4.761   7.021   2.966
   69CHL1    C8 6226   4.966   7.051   3.033
   69CHL1    H8 6227   5.026   7.140   3.060
   69CHL1   C14 6228   4.925   6.974   3.158
   69CHL1   H14 6229   4.865   6.887   3.122
   69CHL1   C15 6230   4.835   7.045   3.263
   69CHL1  H15A 6231   4.867   7.150   3.276
   69CHL1  H15B 6232   4.729   7.043   3.233
   69CHL1   C16 6233   4.861   6.968   3.393
   69CHL1  H16A 6234   4.911   7.038   3.465
   69CHL1  H16B 6235   4.771   6.928   3.443
   69CHL1   C17 6236   4.968   6.860   3.359
   69CHL1   H17 6237   4.916   6.766   3.329
   69CHL1   C13 6238   5.041   6.913   3.235
   69CHL1   C18 6239   5.144   7.020   3.279
   69CHL1  H18A 6240   5.103   7.091   3.353
   69CHL1  H18B 6241   5.230   6.967   3.323
   69CHL1  H18C 6242   5.182   7.076   3.192
   69CHL1   C12 6243   5.109   6.809   3.145
   69CHL1  H12A 6244   5.194   6.762   3.200
   69CHL1  H12B 6245   5.040   6.726   3.122
   69CHL1   C11 6246   5.159   6.877   3.015
   69CHL1  H11A 6247   5.245   6.941   3.043
   69CHL1  H11B 6248   5.200   6.797   2.949
   69CHL1    C9 6249   5.049   6.961   2.940
   69CHL1    H9 6250   4.975   6.884   2.908
   69CHL1   C10 6251   5.085   7.028   2.803
   69CHL1   C19 6252   5.206   7.125   2.813
   69CHL1  H19A 6253   5.183   7.209   2.881
   69CHL1  H19B 6254   5.294   7.069   2.850
   69CHL1  H19C 6255   5.235   7.170   2.715
   69CHL1    C1 6256   5.109   6.914   2.700
   69CHL1   H1A 6257   5.190   6.847   2.737
   69CHL1   H1B 6258   5.017   6.852   2.691
   69CHL1    C2 6259   5.145   6.966   2.562
   69CHL1   H2A 6260   5.160   6.882   2.491
   69CHL1   H2B 6261   5.242   7.018   2.572
   69CHL1   C20 6262   5.050   6.831   3.482
   69CHL1   H20 6263   5.100   6.923   3.518
   69CHL1   C21 6264   5.164   6.729   3.456
   69CHL1  H21A 6265   5.214   6.692   3.546
   69CHL1  H21B 6266   5.251   6.771   3.404
   69CHL1  H21C 6267   5.121   6.640   3.406
   69CHL1   C22 6268   4.953   6.793   3.594
   69CHL1  H22A 6269   4.871   6.864   3.618
   69CHL1  H22B 6270   4.910   6.690   3.588
   69CHL1   C23 6271   5.028   6.818   3.717
   69CHL1  H23A 6272   5.123   6.762   3.701
   69CHL1  H23B 6273   5.073   6.913   3.737
   69CHL1   C24 6274   4.938   6.793   3.839
   69CHL1  H24A 6275   4.872   6.706   3.811
   69CHL1  H24B 6276   5.010   6.788   3.926
   69CHL1   C25 6277   4.823   6.860   3.892
   69CHL1   H25 6278   4.737   6.840   3.823
   69CHL1   C26 6279   4.784   6.827   4.036
   69CHL1  H26A 6280   4.743   6.920   4.081
   69CHL1  H26B 6281   4.707   6.749   4.051
   69CHL1  H26C 6282   4.874   6.801   4.094
   69CHL1   C27 6283   4.885   6.991   3.887
   69CHL1  H27A 6284   4.905   7.014   3.780
   69CHL1  H27B 6285   4.802   7.040   3.928
   69CHL1  H27C 6286   4.975   7.000   3.953
   70CHL1    C3 6287   1.196   0.752   2.510
   70CHL1    H3 6288   1.215   0.861   2.499
   70CHL1    O3 6289   1.224   0.686   2.388
   70CHL1   H3' 6290   1.150   0.703   2.330
   70CHL1    C4 6291   1.291   0.694   2.615
   70CHL1   H4A 6292   1.280   0.584   2.609
   70CHL1   H4B 6293   1.395   0.719   2.586
   70CHL1    C5 6294   1.262   0.745   2.754
   70CHL1    C6 6295   1.352   0.817   2.823
   70CHL1    H6 6296   1.452   0.834   2.781
   70CHL1    C7 6297   1.332   0.864   2.964
   70CHL1   H7A 6298   1.427   0.849   3.017
   70CHL1   H7B 6299   1.318   0.973   2.973
   70CHL1    C8 6300   1.211   0.794   3.030
   70CHL1    H8 6301   1.233   0.687   3.050
   70CHL1   C14 6302   1.179   0.867   3.162
   70CHL1   H14 6303   1.165   0.975   3.142
   70CHL1   C15 6304   1.272   0.863   3.276
   70CHL1  H15A 6305   1.278   0.753   3.268
   70CHL1  H15B 6306   1.370   0.911   3.265
   70CHL1   C16 6307   1.200   0.891   3.409
   70CHL1  H16A 6308   1.212   0.806   3.480
   70CHL1  H16B 6309   1.237   0.982   3.459
   70CHL1   C17 6310   1.055   0.897   3.365
   70CHL1   H17 6311   1.029   1.000   3.334
   70CHL1   C13 6312   1.060   0.814   3.229
   70CHL1   C18 6313   1.060   0.659   3.251
   70CHL1  H18A 6314   0.963   0.611   3.253
   70CHL1  H18B 6315   1.096   0.607   3.162
   70CHL1  H18C 6316   1.113   0.630   3.342
   70CHL1   C12 6317   0.972   0.846   3.118
   70CHL1  H12A 6318   0.900   0.783   3.171
   70CHL1  H12B 6319   0.956   0.956   3.104
   70CHL1   C11 6320   0.960   0.771   2.989
   70CHL1  H11A 6321   0.929   0.667   3.009
   70CHL1  H11B 6322   0.877   0.818   2.929
   70CHL1    C9 6323   1.095   0.796   2.929
   70CHL1    H9 6324   1.086   0.904   2.901
   70CHL1   C10 6325   1.120   0.716   2.802
   70CHL1   C19 6326   1.101   0.563   2.827
   70CHL1  H19A 6327   1.174   0.525   2.901
   70CHL1  H19B 6328   0.999   0.536   2.861
   70CHL1  H19C 6329   1.116   0.510   2.731
   70CHL1    C1 6330   1.018   0.764   2.695
   70CHL1   H1A 6331   0.920   0.718   2.721
   70CHL1   H1B 6332   1.008   0.875   2.704
   70CHL1    C2 6333   1.050   0.726   2.548
   70CHL1   H2A 6334   0.985   0.780   2.476
   70CHL1   H2B 6335   1.031   0.617   2.539
   70CHL1   C20 6336   0.965   0.863   3.486
   70CHL1   H20 6337   0.979   0.754   3.506
   70CHL1   C21 6338   0.829   0.903   3.446
   70CHL1  H21A 6339   0.742   0.844   3.466
   70CHL1  H21B 6340   0.850   0.851   3.359
   70CHL1  H21C 6341   0.789   0.998   3.413
   70CHL1   C22 6342   0.968   0.951   3.609
   70CHL1  H22A 6343   1.071   0.982   3.623
   70CHL1  H22B 6344   0.902   1.040   3.589
   70CHL1   C23 6345   0.931   0.894   3.745
   70CHL1  H23A 6346   0.831   0.867   3.770
   70CHL1  H23B 6347   0.985   0.801   3.766
   70CHL1   C24 6348   0.933   1.008   3.840
   70CHL1  H24A 6349   1.029   1.056   3.828
   70CHL1  H24B 6350   0.847   1.079   3.814
   70CHL1   C25 6351   0.938   0.973   3.985
   70CHL1   H25 6352   1.009   0.904   4.030
   70CHL1   C26 6353   0.926   1.092   4.054
   70CHL1  H26A 6354   0.916   1.076   4.164
   70CHL1  H26B 6355   1.010   1.159   4.042
   70CHL1  H26C 6356   0.833   1.141   4.008
   70CHL1   C27 6357   0.819   0.918   4.012
   70CHL1  H27A 6358   0.770   0.928   4.104
   70CHL1  H27B 6359   0.737   0.979   3.964
   70CHL1  H27C 6360   0.833   0.810   3.983
   71CHL1    C3 6361   7.296   2.434   2.520
   71CHL1    H3 6362   7.359   2.345   2.544
   71CHL1    O3 6363   7.300   2.454   2.378
   71CHL1   H3' 6364   7.259   2.540   2.361
   71CHL1    C4 6365   7.153   2.409   2.573
   71CHL1   H4A 6366   7.090   2.494   2.538
   71CHL1   H4B 6367   7.114   2.318   2.524
   71CHL1    C5 6368   7.145   2.398   2.725
   71CHL1    C6 6369   7.080   2.298   2.787
   71CHL1    H6 6370   7.023   2.225   2.729
   71CHL1    C7 6371   7.067   2.287   2.935
   71CHL1   H7A 6372   6.961   2.268   2.962
   71CHL1   H7B 6373   7.128   2.204   2.977
   71CHL1    C8 6374   7.112   2.415   3.006
   71CHL1    H8 6375   7.035   2.492   2.988
   71CHL1   C14 6376   7.142   2.379   3.148
   71CHL1   H14 6377   7.234   2.319   3.141
   71CHL1   C15 6378   7.053   2.276   3.219
   71CHL1  H15A 6379   6.956   2.306   3.181
   71CHL1  H15B 6380   7.061   2.170   3.194
   71CHL1   C16 6381   7.097   2.285   3.364
   71CHL1  H16A 6382   7.012   2.315   3.408
   71CHL1  H16B 6383   7.088   2.203   3.436
   71CHL1   C17 6384   7.196   2.407   3.372
   71CHL1   H17 6385   7.285   2.344   3.358
   71CHL1   C13 6386   7.188   2.490   3.240
   71CHL1   C18 6387   7.099   2.611   3.235
   71CHL1  H18A 6388   7.066   2.657   3.140
   71CHL1  H18B 6389   6.998   2.591   3.237
   71CHL1  H18C 6390   7.099   2.667   3.329
   71CHL1   C12 6391   7.317   2.548   3.187
   71CHL1  H12A 6392   7.348   2.638   3.245
   71CHL1  H12B 6393   7.396   2.473   3.199
   71CHL1   C11 6394   7.292   2.590   3.040
   71CHL1  H11A 6395   7.223   2.677   3.039
   71CHL1  H11B 6396   7.383   2.627   2.995
   71CHL1    C9 6397   7.239   2.474   2.951
   71CHL1    H9 6398   7.316   2.393   2.958
   71CHL1   C10 6399   7.223   2.505   2.802
   71CHL1   C19 6400   7.142   2.637   2.788
   71CHL1  H19A 6401   7.126   2.663   2.681
   71CHL1  H19B 6402   7.041   2.628   2.832
   71CHL1  H19C 6403   7.194   2.723   2.834
   71CHL1    C1 6404   7.363   2.521   2.741
   71CHL1   H1A 6405   7.406   2.605   2.796
   71CHL1   H1B 6406   7.432   2.436   2.760
   71CHL1    C2 6407   7.358   2.553   2.591
   71CHL1   H2A 6408   7.460   2.571   2.552
   71CHL1   H2B 6409   7.301   2.647   2.575
   71CHL1   C20 6410   7.218   2.479   3.506
   71CHL1   H20 6411   7.146   2.559   3.528
   71CHL1   C21 6412   7.338   2.571   3.505
   71CHL1  H21A 6413   7.424   2.520   3.460
   71CHL1  H21B 6414   7.360   2.612   3.606
   71CHL1  H21C 6415   7.306   2.656   3.445
   71CHL1   C22 6416   7.224   2.378   3.618
   71CHL1  H22A 6417   7.133   2.315   3.621
   71CHL1  H22B 6418   7.314   2.316   3.599
   71CHL1   C23 6419   7.239   2.448   3.749
   71CHL1  H23A 6420   7.349   2.455   3.768
   71CHL1  H23B 6421   7.197   2.551   3.745
   71CHL1   C24 6422   7.164   2.376   3.859
   71CHL1  H24A 6423   7.061   2.356   3.841
   71CHL1  H24B 6424   7.195   2.275   3.878
   71CHL1   C25 6425   7.157   2.453   3.980
   71CHL1   H25 6426   7.088   2.542   3.964
   71CHL1   C26 6427   7.173   2.386   4.119
   71CHL1  H26A 6428   7.086   2.325   4.121
   71CHL1  H26B 6429   7.180   2.286   4.154
   71CHL1  H26C 6430   7.178   2.465   4.200
   71CHL1   C27 6431   7.257   2.528   4.006
   71CHL1  H27A 6432   7.221   2.605   4.082
   71CHL1  H27B 6433   7.331   2.476   4.069
   71CHL1  H27C 6434   7.330   2.554   3.931
   72CHL1    C3 6435   5.831   6.877   2.522
   72CHL1    H3 6436   5.935   6.907   2.550
   72CHL1    O3 6437   5.825   6.869   2.380
   72CHL1   H3' 6438   5.852   6.779   2.363
   72CHL1    C4 6439   5.786   6.747   2.583
   72CHL1   H4A 6440   5.681   6.731   2.550
   72CHL1   H4B 6441   5.849   6.666   2.541
   72CHL1    C5 6442   5.794   6.752   2.735
   72CHL1    C6 6443   5.881   6.674   2.797
   72CHL1    H6 6444   5.939   6.603   2.736
   72CHL1    C7 6445   5.904   6.682   2.944
   72CHL1   H7A 6446   5.911   6.580   2.988
   72CHL1   H7B 6447   6.000   6.735   2.960
   72CHL1    C8 6448   5.795   6.762   3.023
   72CHL1    H8 6449   5.707   6.701   3.038
   72CHL1   C14 6450   5.836   6.800   3.162
   72CHL1   H14 6451   5.901   6.890   3.148
   72CHL1   C15 6452   5.923   6.703   3.243
   72CHL1  H15A 6453   5.880   6.600   3.242
   72CHL1  H15B 6454   6.026   6.700   3.202
   72CHL1   C16 6455   5.914   6.762   3.384
   72CHL1  H16A 6456   5.904   6.678   3.455
   72CHL1  H16B 6457   6.007   6.816   3.412
   72CHL1   C17 6458   5.796   6.864   3.383
   72CHL1   H17 6459   5.845   6.963   3.362
   72CHL1   C13 6460   5.721   6.847   3.250
   72CHL1   C18 6461   5.607   6.743   3.270
   72CHL1  H18A 6462   5.648   6.651   3.314
   72CHL1  H18B 6463   5.534   6.783   3.341
   72CHL1  H18C 6464   5.550   6.716   3.178
   72CHL1   C12 6465   5.669   6.978   3.188
   72CHL1  H12A 6466   5.584   7.017   3.248
   72CHL1  H12B 6467   5.749   7.056   3.189
   72CHL1   C11 6468   5.628   6.953   3.042
   72CHL1  H11A 6469   5.540   6.886   3.046
   72CHL1  H11B 6470   5.594   7.050   3.000
   72CHL1    C9 6471   5.741   6.885   2.955
   72CHL1    H9 6472   5.826   6.957   2.957
   72CHL1   C10 6473   5.708   6.857   2.807
   72CHL1   C19 6474   5.559   6.817   2.793
   72CHL1  H19A 6475   5.486   6.894   2.826
   72CHL1  H19B 6476   5.539   6.801   2.685
   72CHL1  H19C 6477   5.541   6.723   2.849
   72CHL1    C1 6478   5.734   6.985   2.730
   72CHL1   H1A 6479   5.650   7.047   2.766
   72CHL1   H1B 6480   5.831   7.028   2.765
   72CHL1    C2 6481   5.734   6.979   2.577
   72CHL1   H2A 6482   5.786   7.064   2.537
   72CHL1   H2B 6483   5.632   6.975   2.535
   72CHL1   C20 6484   5.717   6.881   3.515
   72CHL1   H20 6485   5.628   6.946   3.497
   72CHL1   C21 6486   5.812   6.960   3.608
   72CHL1  H21A 6487   5.859   7.042   3.550
   72CHL1  H21B 6488   5.891   6.893   3.648
   72CHL1  H21C 6489   5.759   7.008   3.692
   72CHL1   C22 6490   5.673   6.749   3.585
   72CHL1  H22A 6491   5.603   6.689   3.524
   72CHL1  H22B 6492   5.766   6.689   3.596
   72CHL1   C23 6493   5.614   6.753   3.727
   72CHL1  H23A 6494   5.634   6.652   3.770
   72CHL1  H23B 6495   5.662   6.828   3.794
   72CHL1   C24 6496   5.462   6.769   3.737
   72CHL1  H24A 6497   5.425   6.841   3.660
   72CHL1  H24B 6498   5.410   6.672   3.718
   72CHL1   C25 6499   5.425   6.823   3.876
   72CHL1   H25 6500   5.477   6.919   3.893
   72CHL1   C26 6501   5.278   6.849   3.881
   72CHL1  H26A 6502   5.236   6.902   3.968
   72CHL1  H26B 6503   5.251   6.898   3.786
   72CHL1  H26C 6504   5.241   6.747   3.887
   72CHL1   C27 6505   5.452   6.722   3.986
   72CHL1  H27A 6506   5.433   6.768   4.083
   72CHL1  H27B 6507   5.384   6.634   3.977
   72CHL1  H27C 6508   5.557   6.689   3.982
   73CHL1    C3 6509   6.924   1.273   2.512
   73CHL1    H3 6510   7.030   1.242   2.530
   73CHL1    O3 6511   6.890   1.274   2.374
   73CHL1   H3' 6512   6.793   1.258   2.369
   73CHL1    C4 6513   6.837   1.173   2.579
   73CHL1   H4A 6514   6.736   1.157   2.551
   73CHL1   H4B 6515   6.871   1.085   2.517
   73CHL1    C5 6516   6.857   1.196   2.732
   73CHL1    C6 6517   6.861   1.111   2.825
   73CHL1    H6 6518   6.809   1.030   2.774
   73CHL1    C7 6519   6.883   1.093   2.980
   73CHL1   H7A 6520   6.836   1.012   3.036
   73CHL1   H7B 6521   6.984   1.065   3.024
   73CHL1    C8 6522   6.829   1.199   3.041
   73CHL1    H8 6523   6.727   1.188   3.022
   73CHL1   C14 6524   6.860   1.184   3.188
   73CHL1   H14 6525   6.968   1.185   3.189
   73CHL1   C15 6526   6.851   1.060   3.285
   73CHL1  H15A 6527   6.760   1.016   3.318
   73CHL1  H15B 6528   6.880   0.957   3.264
   73CHL1   C16 6529   6.849   1.124   3.416
   73CHL1  H16A 6530   6.761   1.115   3.478
   73CHL1  H16B 6531   6.913   1.064   3.478
   73CHL1   C17 6532   6.865   1.275   3.391
   73CHL1   H17 6533   6.974   1.286   3.382
   73CHL1   C13 6534   6.813   1.309   3.251
   73CHL1   C18 6535   6.663   1.333   3.250
   73CHL1  H18A 6536   6.609   1.325   3.153
   73CHL1  H18B 6537   6.636   1.250   3.315
   73CHL1  H18C 6538   6.624   1.420   3.305
   73CHL1   C12 6539   6.880   1.420   3.175
   73CHL1  H12A 6540   6.852   1.513   3.224
   73CHL1  H12B 6541   6.988   1.395   3.181
   73CHL1   C11 6542   6.844   1.435   3.029
   73CHL1  H11A 6543   6.740   1.468   3.009
   73CHL1  H11B 6544   6.916   1.502   2.982
   73CHL1    C9 6545   6.878   1.313   2.958
   73CHL1    H9 6546   6.988   1.295   2.952
   73CHL1   C10 6547   6.831   1.316   2.809
   73CHL1   C19 6548   6.683   1.345   2.809
   73CHL1  H19A 6549   6.663   1.449   2.789
   73CHL1  H19B 6550   6.642   1.292   2.727
   73CHL1  H19C 6551   6.620   1.310   2.890
   73CHL1    C1 6552   6.908   1.413   2.726
   73CHL1   H1A 6553   6.870   1.510   2.763
   73CHL1   H1B 6554   7.014   1.395   2.749
   73CHL1    C2 6555   6.897   1.408   2.573
   73CHL1   H2A 6556   6.969   1.478   2.529
   73CHL1   H2B 6557   6.802   1.450   2.546
   73CHL1   C20 6558   6.817   1.352   3.511
   73CHL1   H20 6559   6.706   1.345   3.518
   73CHL1   C21 6560   6.853   1.500   3.496
   73CHL1  H21A 6561   6.827   1.554   3.589
   73CHL1  H21B 6562   6.796   1.547   3.413
   73CHL1  H21C 6563   6.961   1.510   3.473
   73CHL1   C22 6564   6.886   1.294   3.637
   73CHL1  H22A 6565   6.899   1.183   3.634
   73CHL1  H22B 6566   6.990   1.332   3.642
   73CHL1   C23 6567   6.813   1.321   3.768
   73CHL1  H23A 6568   6.785   1.428   3.776
   73CHL1  H23B 6569   6.720   1.260   3.766
   73CHL1   C24 6570   6.895   1.277   3.890
   73CHL1  H24A 6571   6.952   1.186   3.862
   73CHL1  H24B 6572   6.968   1.356   3.920
   73CHL1   C25 6573   6.814   1.235   4.013
   73CHL1   H25 6574   6.738   1.160   3.979
   73CHL1   C26 6575   6.908   1.171   4.115
   73CHL1  H26A 6576   7.008   1.219   4.108
   73CHL1  H26B 6577   6.872   1.185   4.219
   73CHL1  H26C 6578   6.916   1.063   4.091
   73CHL1   C27 6579   6.742   1.350   4.079
   73CHL1  H27A 6580   6.812   1.419   4.130
   73CHL1  H27B 6581   6.683   1.404   4.002
   73CHL1  H27C 6582   6.672   1.308   4.156
   74CHL1    C3 6583   1.419   7.223   2.516
   74CHL1    H3 6584   1.438   7.114   2.531
   74CHL1    O3 6585   1.420   7.246   2.376
   74CHL1   H3' 6586   1.347   7.190   2.345
   74CHL1    C4 6587   1.280   7.257   2.570
   74CHL1   H4A 6588   1.254   7.358   2.532
   74CHL1   H4B 6589   1.204   7.189   2.526
   74CHL1    C5 6590   1.278   7.244   2.722
   74CHL1    C6 6591   1.203   7.151   2.782
   74CHL1    H6 6592   1.148   7.079   2.719
   74CHL1    C7 6593   1.195   7.132   2.930
   74CHL1   H7A 6594   1.090   7.122   2.965
   74CHL1   H7B 6595   1.236   7.033   2.947
   74CHL1    C8 6596   1.260   7.248   3.012
   74CHL1    H8 6597   1.186   7.330   3.015
   74CHL1   C14 6598   1.287   7.211   3.158
   74CHL1   H14 6599   1.377   7.148   3.143
   74CHL1   C15 6600   1.181   7.134   3.239
   74CHL1  H15A 6601   1.076   7.163   3.229
   74CHL1  H15B 6602   1.179   7.030   3.199
   74CHL1   C16 6603   1.233   7.148   3.387
   74CHL1  H16A 6604   1.153   7.193   3.448
   74CHL1  H16B 6605   1.260   7.052   3.435
   74CHL1   C17 6606   1.360   7.241   3.388
   74CHL1   H17 6607   1.452   7.179   3.378
   74CHL1   C13 6608   1.345   7.317   3.252
   74CHL1   C18 6609   1.245   7.430   3.269
   74CHL1  H18A 6610   1.290   7.508   3.334
   74CHL1  H18B 6611   1.223   7.475   3.171
   74CHL1  H18C 6612   1.152   7.392   3.315
   74CHL1   C12 6613   1.471   7.368   3.187
   74CHL1  H12A 6614   1.515   7.452   3.244
   74CHL1  H12B 6615   1.535   7.278   3.193
   74CHL1   C11 6616   1.460   7.407   3.037
   74CHL1  H11A 6617   1.399   7.499   3.034
   74CHL1  H11B 6618   1.561   7.432   2.999
   74CHL1    C9 6619   1.391   7.298   2.950
   74CHL1    H9 6620   1.462   7.211   2.954
   74CHL1   C10 6621   1.378   7.330   2.798
   74CHL1   C19 6622   1.337   7.479   2.783
   74CHL1  H19A 6623   1.427   7.543   2.794
   74CHL1  H19B 6624   1.290   7.504   2.685
   74CHL1  H19C 6625   1.265   7.505   2.863
   74CHL1    C1 6626   1.516   7.295   2.737
   74CHL1   H1A 6627   1.593   7.360   2.785
   74CHL1   H1B 6628   1.541   7.190   2.763
   74CHL1    C2 6629   1.526   7.309   2.584
   74CHL1   H2A 6630   1.627   7.284   2.547
   74CHL1   H2B 6631   1.508   7.416   2.562
   74CHL1   C20 6632   1.376   7.319   3.524
   74CHL1   H20 6633   1.284   7.379   3.537
   74CHL1   C21 6634   1.495   7.418   3.526
   74CHL1  H21A 6635   1.483   7.496   3.449
   74CHL1  H21B 6636   1.591   7.365   3.512
   74CHL1  H21C 6637   1.498   7.468   3.625
   74CHL1   C22 6638   1.385   7.234   3.654
   74CHL1  H22A 6639   1.395   7.131   3.624
   74CHL1  H22B 6640   1.470   7.259   3.722
   74CHL1   C23 6641   1.259   7.246   3.739
   74CHL1  H23A 6642   1.260   7.346   3.788
   74CHL1  H23B 6643   1.173   7.239   3.670
   74CHL1   C24 6644   1.240   7.137   3.845
   74CHL1  H24A 6645   1.183   7.052   3.799
   74CHL1  H24B 6646   1.336   7.095   3.873
   74CHL1   C25 6647   1.169   7.191   3.970
   74CHL1   H25 6648   1.154   7.105   4.035
   74CHL1   C26 6649   1.249   7.289   4.059
   74CHL1  H26A 6650   1.190   7.312   4.151
   74CHL1  H26B 6651   1.345   7.246   4.094
   74CHL1  H26C 6652   1.268   7.384   4.006
   74CHL1   C27 6653   1.033   7.252   3.935
   74CHL1  H27A 6654   0.970   7.174   3.888
   74CHL1  H27B 6655   0.981   7.283   4.029
   74CHL1  H27C 6656   1.040   7.335   3.865
   75CHL1    C3 6657   0.648   0.159   2.522
   75CHL1    H3 6658   0.751   0.197   2.540
   75CHL1    O3 6659   0.625   0.152   2.383
   75CHL1   H3' 6660   0.624   0.245   2.351
   75CHL1    C4 6661   0.632   0.020   2.588
   75CHL1   H4A 6662   0.528  -0.013   2.567
   75CHL1   H4B 6663   0.700  -0.052   2.538
   75CHL1    C5 6664   0.656   0.026   2.738
   75CHL1    C6 6665   0.753  -0.043   2.801
   75CHL1    H6 6666   0.819  -0.107   2.740
   75CHL1    C7 6667   0.773  -0.046   2.952
   75CHL1   H7A 6668   0.771  -0.150   2.991
   75CHL1   H7B 6669   0.872  -0.002   2.982
   75CHL1    C8 6670   0.663   0.030   3.032
   75CHL1    H8 6671   0.578  -0.041   3.045
   75CHL1   C14 6672   0.711   0.075   3.170
   75CHL1   H14 6673   0.797   0.146   3.154
   75CHL1   C15 6674   0.769  -0.029   3.266
   75CHL1  H15A 6675   0.694  -0.111   3.274
   75CHL1  H15B 6676   0.864  -0.069   3.229
   75CHL1   C16 6677   0.778   0.048   3.399
   75CHL1  H16A 6678   0.737  -0.019   3.477
   75CHL1  H16B 6679   0.881   0.080   3.425
   75CHL1   C17 6680   0.696   0.179   3.376
   75CHL1   H17 6681   0.768   0.255   3.336
   75CHL1   C13 6682   0.610   0.154   3.252
   75CHL1   C18 6683   0.484   0.069   3.282
   75CHL1  H18A 6684   0.437   0.038   3.186
   75CHL1  H18B 6685   0.506  -0.022   3.341
   75CHL1  H18C 6686   0.407   0.129   3.335
   75CHL1   C12 6687   0.578   0.283   3.175
   75CHL1  H12A 6688   0.500   0.339   3.230
   75CHL1  H12B 6689   0.669   0.346   3.169
   75CHL1   C11 6690   0.531   0.252   3.032
   75CHL1  H11A 6691   0.429   0.211   3.037
   75CHL1  H11B 6692   0.528   0.348   2.976
   75CHL1    C9 6693   0.621   0.154   2.953
   75CHL1    H9 6694   0.718   0.208   2.938
   75CHL1   C10 6695   0.565   0.123   2.811
   75CHL1   C19 6696   0.428   0.050   2.826
   75CHL1  H19A 6697   0.345   0.118   2.855
   75CHL1  H19B 6698   0.395  -0.002   2.733
   75CHL1  H19C 6699   0.435  -0.028   2.905
   75CHL1    C1 6700   0.554   0.259   2.732
   75CHL1   H1A 6701   0.463   0.311   2.768
   75CHL1   H1B 6702   0.643   0.321   2.757
   75CHL1    C2 6703   0.542   0.251   2.579
   75CHL1   H2A 6704   0.546   0.351   2.530
   75CHL1   H2B 6705   0.440   0.211   2.557
   75CHL1   C20 6706   0.636   0.248   3.497
   75CHL1   H20 6707   0.561   0.321   3.459
   75CHL1   C21 6708   0.748   0.331   3.567
   75CHL1  H21A 6709   0.825   0.268   3.613
   75CHL1  H21B 6710   0.704   0.393   3.648
   75CHL1  H21C 6711   0.801   0.399   3.498
   75CHL1   C22 6712   0.562   0.156   3.595
   75CHL1  H22A 6713   0.469   0.123   3.545
   75CHL1  H22B 6714   0.619   0.064   3.621
   75CHL1   C23 6715   0.524   0.228   3.723
   75CHL1  H23A 6716   0.610   0.270   3.780
   75CHL1  H23B 6717   0.451   0.309   3.699
   75CHL1   C24 6718   0.450   0.141   3.819
   75CHL1  H24A 6719   0.396   0.218   3.880
   75CHL1  H24B 6720   0.375   0.077   3.769
   75CHL1   C25 6721   0.546   0.060   3.905
   75CHL1   H25 6722   0.634   0.119   3.934
   75CHL1   C26 6723   0.504   0.044   4.036
   75CHL1  H26A 6724   0.461   0.136   4.088
   75CHL1  H26B 6725   0.427  -0.038   4.040
   75CHL1  H26C 6726   0.578  -0.014   4.092
   75CHL1   C27 6727   0.575  -0.086   3.870
   75CHL1  H27A 6728   0.490  -0.151   3.845
   75CHL1  H27B 6729   0.643  -0.072   3.786
   75CHL1  H27C 6730   0.625  -0.138   3.955
   76CHL1    C3 6731  -0.032   7.146   2.512
   76CHL1    H3 6732   0.070   7.189   2.496
   76CHL1    O3 6733  -0.088   7.123   2.384
   76CHL1   H3' 6734  -0.014   7.084   2.338
   76CHL1    C4 6735  -0.022   7.008   2.582
   76CHL1   H4A 6736  -0.118   6.954   2.567
   76CHL1   H4B 6737   0.057   6.950   2.529
   76CHL1    C5 6738   0.009   7.017   2.731
   76CHL1    C6 6739   0.108   6.946   2.787
   76CHL1    H6 6740   0.162   6.876   2.721
   76CHL1    C7 6741   0.146   6.951   2.933
   76CHL1   H7A 6742   0.173   6.851   2.973
   76CHL1   H7B 6743   0.238   7.013   2.948
   76CHL1    C8 6744   0.033   7.015   3.018
   76CHL1    H8 6745  -0.048   6.939   3.027
   76CHL1   C14 6746   0.085   7.051   3.157
   76CHL1   H14 6747   0.166   7.127   3.140
   76CHL1   C15 6748   0.150   6.937   3.236
   76CHL1  H15A 6749   0.085   6.847   3.229
   76CHL1  H15B 6750   0.251   6.913   3.198
   76CHL1   C16 6751   0.157   6.995   3.378
   76CHL1  H16A 6752   0.105   6.929   3.450
   76CHL1  H16B 6753   0.264   7.002   3.405
   76CHL1   C17 6754   0.085   7.134   3.376
   76CHL1   H17 6755   0.161   7.210   3.347
   76CHL1   C13 6756  -0.009   7.126   3.254
   76CHL1   C18 6757  -0.131   7.040   3.289
   76CHL1  H18A 6758  -0.172   6.996   3.197
   76CHL1  H18B 6759  -0.098   6.960   3.355
   76CHL1  H18C 6760  -0.210   7.095   3.343
   76CHL1   C12 6761  -0.049   7.256   3.185
   76CHL1  H12A 6762  -0.123   7.312   3.246
   76CHL1  H12B 6763   0.042   7.319   3.178
   76CHL1   C11 6764  -0.111   7.228   3.047
   76CHL1  H11A 6765  -0.206   7.174   3.066
   76CHL1  H11B 6766  -0.138   7.325   3.001
   76CHL1    C9 6767  -0.019   7.143   2.952
   76CHL1    H9 6768   0.072   7.204   2.933
   76CHL1   C10 6769  -0.070   7.122   2.808
   76CHL1   C19 6770  -0.210   7.072   2.814
   76CHL1  H19A 6771  -0.213   6.989   2.885
   76CHL1  H19B 6772  -0.277   7.149   2.854
   76CHL1  H19C 6773  -0.255   7.039   2.717
   76CHL1    C1 6774  -0.074   7.257   2.735
   76CHL1   H1A 6775  -0.139   7.328   2.790
   76CHL1   H1B 6776   0.027   7.301   2.738
   76CHL1    C2 6777  -0.118   7.246   2.588
   76CHL1   H2A 6778  -0.111   7.347   2.542
   76CHL1   H2B 6779  -0.223   7.213   2.575
   76CHL1   C20 6780   0.029   7.175   3.514
   76CHL1   H20 6781  -0.042   7.097   3.549
   76CHL1   C21 6782  -0.053   7.306   3.507
   76CHL1  H21A 6783  -0.146   7.285   3.452
   76CHL1  H21B 6784   0.001   7.387   3.454
   76CHL1  H21C 6785  -0.086   7.343   3.607
   76CHL1   C22 6786   0.142   7.173   3.621
   76CHL1  H22A 6787   0.185   7.071   3.626
   76CHL1  H22B 6788   0.221   7.247   3.595
   76CHL1   C23 6789   0.095   7.204   3.762
   76CHL1  H23A 6790   0.065   7.311   3.766
   76CHL1  H23B 6791   0.009   7.140   3.791
   76CHL1   C24 6792   0.203   7.177   3.865
   76CHL1  H24A 6793   0.208   7.066   3.882
   76CHL1  H24B 6794   0.304   7.204   3.830
   76CHL1   C25 6795   0.161   7.246   3.996
   76CHL1   H25 6796   0.053   7.266   3.994
   76CHL1   C26 6797   0.201   7.153   4.112
   76CHL1  H26A 6798   0.301   7.107   4.097
   76CHL1  H26B 6799   0.201   7.212   4.204
   76CHL1  H26C 6800   0.129   7.070   4.126
   76CHL1   C27 6801   0.202   7.393   4.007
   76CHL1  H27A 6802   0.210   7.454   3.916
   76CHL1  H27B 6803   0.211   7.441   4.105
   76CHL1  H27C 6804   0.299   7.378   3.988
   77SOPE     N 6805   3.860   4.458   6.558
   77SOPE   HN1 6806   3.929   4.481   6.482
   77SOPE   HN2 6807   3.824   4.546   6.599
   77SOPE   HN3 6808   3.908   4.403   6.631
   77SOPE   C12 6809   3.738   4.388   6.502
   77SOPE  H12A 6810   3.682   4.465   6.443
   77SOPE  H12B 6811   3.673   4.360   6.587
   77SOPE   C11 6812   3.775   4.263   6.421
   77SOPE  H11A 6813   3.688   4.221   6.366
   77SOPE  H11B 6814   3.809   4.184   6.492
   77SOPE     P 6815   3.966   4.176   6.266
   77SOPE   O13 6816   4.005   4.086   6.378
   77SOPE   O14 6817   4.073   4.235   6.184
   77SOPE   O12 6818   3.878   4.295   6.330
   77SOPE   O11 6819   3.863   4.093   6.176
   77SOPE    C1 6820   3.798   4.159   6.067
   77SOPE    HA 6821   3.855   4.248   6.030
   77SOPE    HB 6822   3.699   4.194   6.103
   77SOPE    C2 6823   3.779   4.067   5.942
   77SOPE    HS 6824   3.744   3.968   5.979
   77SOPE   O21 6825   3.904   4.057   5.870
   77SOPE   C21 6826   3.945   3.940   5.826
   77SOPE   O22 6827   3.911   3.831   5.869
   77SOPE   C22 6828   4.027   3.964   5.699
   77SOPE   H2R 6829   4.075   3.868   5.671
   77SOPE   H2S 6830   4.106   4.037   5.726
   77SOPE    C3 6831   3.673   4.127   5.842
   77SOPE    HX 6832   3.575   4.145   5.892
   77SOPE    HY 6833   3.656   4.049   5.764
   77SOPE   O31 6834   3.717   4.254   5.786
   77SOPE   C31 6835   3.684   4.283   5.661
   77SOPE   O32 6836   3.625   4.208   5.585
   77SOPE   C32 6837   3.724   4.428   5.628
   77SOPE   H2X 6838   3.832   4.436   5.605
   77SOPE   H2Y 6839   3.706   4.491   5.718
   77SOPE   C23 6840   3.937   4.020   5.585
   77SOPE   H3R 6841   3.910   4.125   5.607
   77SOPE   H3S 6842   3.843   3.960   5.577
   77SOPE   C24 6843   4.001   4.015   5.447
   77SOPE   H4R 6844   4.090   4.081   5.443
   77SOPE   H4S 6845   4.033   3.909   5.429
   77SOPE   C25 6846   3.903   4.052   5.335
   77SOPE   H5R 6847   3.821   3.979   5.339
   77SOPE   H5S 6848   3.851   4.149   5.346
   77SOPE   C26 6849   3.966   4.053   5.197
   77SOPE   H6R 6850   4.031   4.138   5.173
   77SOPE   H6S 6851   4.048   3.978   5.206
   77SOPE   C27 6852   3.850   4.038   5.091
   77SOPE   H7R 6853   3.786   3.949   5.113
   77SOPE   H7S 6854   3.785   4.126   5.094
   77SOPE   C28 6855   3.889   4.039   4.942
   77SOPE   H8R 6856   3.972   4.111   4.926
   77SOPE   H8S 6857   3.913   3.939   4.917
   77SOPE   C29 6858   3.797   4.027   4.831
   77SOPE   H91 6859   3.709   4.079   4.862
   77SOPE  C210 6860   3.807   3.965   4.710
   77SOPE  H101 6861   3.723   3.965   4.645
   77SOPE  C211 6862   3.917   3.887   4.648
   77SOPE  H11R 6863   3.877   3.786   4.624
   77SOPE  H11S 6864   3.999   3.880   4.716
   77SOPE  C212 6865   3.986   3.932   4.521
   77SOPE  H12R 6866   3.927   3.889   4.439
   77SOPE  H12S 6867   4.083   3.883   4.520
   77SOPE  C213 6868   4.006   4.081   4.519
   77SOPE  H13R 6869   4.076   4.114   4.599
   77SOPE  H13S 6870   3.907   4.126   4.541
   77SOPE  C214 6871   4.055   4.132   4.384
   77SOPE  H14R 6872   4.061   4.243   4.396
   77SOPE  H14S 6873   3.982   4.109   4.304
   77SOPE  C215 6874   4.189   4.071   4.345
   77SOPE  H15R 6875   4.180   3.962   4.334
   77SOPE  H15S 6876   4.262   4.087   4.428
   77SOPE  C216 6877   4.245   4.128   4.215
   77SOPE  H16R 6878   4.234   4.238   4.222
   77SOPE  H16S 6879   4.182   4.097   4.128
   77SOPE  C217 6880   4.390   4.081   4.194
   77SOPE  H17R 6881   4.387   3.978   4.153
   77SOPE  H17S 6882   4.441   4.075   4.292
   77SOPE  C218 6883   4.477   4.166   4.102
   77SOPE  H18R 6884   4.580   4.125   4.105
   77SOPE  H18S 6885   4.483   4.272   4.135
   77SOPE  H18T 6886   4.439   4.162   3.997
   77SOPE   C33 6887   3.638   4.479   5.511
   77SOPE   H3X 6888   3.532   4.468   5.543
   77SOPE   H3Y 6889   3.651   4.417   5.419
   77SOPE   C34 6890   3.656   4.627   5.476
   77SOPE   H4X 6891   3.632   4.687   5.567
   77SOPE   H4Y 6892   3.583   4.655   5.397
   77SOPE   C35 6893   3.799   4.666   5.433
   77SOPE   H5X 6894   3.857   4.674   5.527
   77SOPE   H5Y 6895   3.792   4.768   5.395
   77SOPE   C36 6896   3.877   4.576   5.334
   77SOPE   H6X 6897   3.877   4.474   5.376
   77SOPE   H6Y 6898   3.983   4.613   5.326
   77SOPE   C37 6899   3.830   4.571   5.188
   77SOPE   H7X 6900   3.845   4.672   5.145
   77SOPE   H7Y 6901   3.722   4.547   5.189
   77SOPE   C38 6902   3.902   4.466   5.098
   77SOPE   H8X 6903   3.908   4.370   5.154
   77SOPE   H8Y 6904   4.006   4.496   5.073
   77SOPE   C39 6905   3.824   4.434   4.969
   77SOPE   H9X 6906   3.716   4.451   4.989
   77SOPE   H9Y 6907   3.840   4.326   4.946
   77SOPE  C310 6908   3.869   4.512   4.844
   77SOPE  H10X 6909   3.968   4.473   4.811
   77SOPE  H10Y 6910   3.883   4.619   4.871
   77SOPE  C311 6911   3.772   4.509   4.724
   77SOPE  H11X 6912   3.672   4.538   4.763
   77SOPE  H11Y 6913   3.760   4.406   4.684
   77SOPE  C312 6914   3.819   4.606   4.612
   77SOPE  H12X 6915   3.842   4.706   4.656
   77SOPE  H12Y 6916   3.738   4.622   4.537
   77SOPE  C313 6917   3.940   4.554   4.533
   77SOPE  H13X 6918   3.919   4.448   4.508
   77SOPE  H13Y 6919   4.031   4.554   4.597
   77SOPE  C314 6920   3.970   4.623   4.398
   77SOPE  H14X 6921   3.943   4.731   4.398
   77SOPE  H14Y 6922   3.905   4.582   4.317
   77SOPE  C315 6923   4.114   4.592   4.353
   77SOPE  H15X 6924   4.157   4.507   4.407
   77SOPE  H15Y 6925   4.179   4.667   4.399
   77SOPE  C316 6926   4.132   4.575   4.199
   77SOPE  H16X 6927   4.109   4.668   4.143
   77SOPE  H16Y 6928   4.056   4.502   4.166
   77SOPE  C317 6929   4.271   4.528   4.149
   77SOPE  H17X 6930   4.252   4.482   4.049
   77SOPE  H17Y 6931   4.313   4.452   4.217
   77SOPE  C318 6932   4.376   4.635   4.123
   77SOPE  H18X 6933   4.330   4.715   4.059
   77SOPE  H18Y 6934   4.467   4.600   4.073
   77SOPE  H18Z 6935   4.408   4.678   4.221
   78SOPE     N 6936   2.807   4.353   6.462
   78SOPE   HN1 6937   2.760   4.431   6.409
   78SOPE   HN2 6938   2.860   4.393   6.543
   78SOPE   HN3 6939   2.872   4.307   6.397
   78SOPE   C12 6940   2.697   4.263   6.512
   78SOPE  H12A 6941   2.635   4.320   6.584
   78SOPE  H12B 6942   2.746   4.180   6.568
   78SOPE   C11 6943   2.608   4.204   6.400
   78SOPE  H11A 6944   2.541   4.127   6.444
   78SOPE  H11B 6945   2.676   4.152   6.329
   78SOPE     P 6946   2.378   4.270   6.291
   78SOPE   O13 6947   2.291   4.294   6.408
   78SOPE   O14 6948   2.377   4.136   6.230
   78SOPE   O12 6949   2.532   4.303   6.330
   78SOPE   O11 6950   2.343   4.381   6.185
   78SOPE    C1 6951   2.426   4.396   6.071
   78SOPE    HA 6952   2.470   4.298   6.039
   78SOPE    HB 6953   2.509   4.466   6.094
   78SOPE    C2 6954   2.347   4.452   5.952
   78SOPE    HS 6955   2.323   4.559   5.978
   78SOPE   O21 6956   2.225   4.378   5.942
   78SOPE   C21 6957   2.146   4.408   5.846
   78SOPE   O22 6958   2.157   4.499   5.765
   78SOPE   C22 6959   2.035   4.307   5.848
   78SOPE   H2R 6960   1.984   4.298   5.946
   78SOPE   H2S 6961   2.084   4.209   5.827
   78SOPE    C3 6962   2.434   4.444   5.823
   78SOPE    HX 6963   2.534   4.485   5.849
   78SOPE    HY 6964   2.393   4.513   5.746
   78SOPE   O31 6965   2.439   4.310   5.765
   78SOPE   C31 6966   2.554   4.245   5.776
   78SOPE   O32 6967   2.649   4.280   5.843
   78SOPE   C32 6968   2.557   4.125   5.685
   78SOPE   H2X 6969   2.559   4.160   5.580
   78SOPE   H2Y 6970   2.469   4.058   5.701
   78SOPE   C23 6971   1.929   4.352   5.745
   78SOPE   H3R 6972   1.885   4.445   5.769
   78SOPE   H3S 6973   1.833   4.299   5.763
   78SOPE   C24 6974   1.984   4.328   5.604
   78SOPE   H4R 6975   2.083   4.368   5.579
   78SOPE   H4S 6976   2.024   4.225   5.605
   78SOPE   C25 6977   1.891   4.355   5.487
   78SOPE   H5R 6978   1.783   4.322   5.502
   78SOPE   H5S 6979   1.876   4.456   5.457
   78SOPE   C26 6980   1.948   4.286   5.366
   78SOPE   H6R 6981   1.983   4.181   5.384
   78SOPE   H6S 6982   1.856   4.295   5.305
   78SOPE   C27 6983   2.044   4.346   5.267
   78SOPE   H7R 6984   2.013   4.452   5.267
   78SOPE   H7S 6985   2.142   4.330   5.314
   78SOPE   C28 6986   2.050   4.293   5.119
   78SOPE   H8R 6987   1.959   4.318   5.059
   78SOPE   H8S 6988   2.127   4.357   5.074
   78SOPE   C29 6989   2.109   4.156   5.094
   78SOPE   H91 6990   2.168   4.118   5.177
   78SOPE  C210 6991   2.074   4.068   5.001
   78SOPE  H101 6992   2.069   3.960   5.032
   78SOPE  C211 6993   1.963   4.094   4.905
   78SOPE  H11R 6994   1.870   4.150   4.936
   78SOPE  H11S 6995   1.945   3.987   4.894
   78SOPE  C212 6996   1.968   4.140   4.772
   78SOPE  H12R 6997   1.947   4.251   4.773
   78SOPE  H12S 6998   1.887   4.090   4.713
   78SOPE  C213 6999   2.102   4.105   4.731
   78SOPE  H13R 7000   2.115   3.997   4.705
   78SOPE  H13S 7001   2.187   4.140   4.796
   78SOPE  C214 7002   2.093   4.196   4.622
   78SOPE  H14R 7003   2.205   4.195   4.613
   78SOPE  H14S 7004   2.069   4.302   4.637
   78SOPE  C215 7005   1.987   4.151   4.514
   78SOPE  H15R 7006   1.908   4.078   4.522
   78SOPE  H15S 7007   2.027   4.044   4.518
   78SOPE  C216 7008   1.982   4.229   4.372
   78SOPE  H16R 7009   2.049   4.209   4.294
   78SOPE  H16S 7010   2.069   4.247   4.295
   78SOPE  C217 7011   1.898   4.318   4.340
   78SOPE  H17R 7012   1.918   4.390   4.423
   78SOPE  H17S 7013   1.808   4.258   4.328
   78SOPE  C218 7014   1.949   4.366   4.216
   78SOPE  H18R 7015   2.054   4.410   4.229
   78SOPE  H18S 7016   1.865   4.427   4.226
   78SOPE  H18T 7017   1.954   4.323   4.115
   78SOPE   C33 7018   2.692   4.054   5.710
   78SOPE   H3X 7019   2.704   4.016   5.813
   78SOPE   H3Y 7020   2.778   4.108   5.666
   78SOPE   C34 7021   2.698   3.933   5.631
   78SOPE   H4X 7022   2.591   3.907   5.640
   78SOPE   H4Y 7023   2.771   3.858   5.672
   78SOPE   C35 7024   2.715   3.959   5.490
   78SOPE   H5X 7025   2.821   3.962   5.459
   78SOPE   H5Y 7026   2.636   4.024   5.443
   78SOPE   C36 7027   2.682   3.851   5.412
   78SOPE   H6X 7028   2.739   3.758   5.435
   78SOPE   H6Y 7029   2.726   3.873   5.315
   78SOPE   C37 7030   2.534   3.824   5.415
   78SOPE   H7X 7031   2.547   3.754   5.494
   78SOPE   H7Y 7032   2.506   3.757   5.341
   78SOPE   C38 7033   2.406   3.884   5.354
   78SOPE   H8X 7034   2.401   3.963   5.426
   78SOPE   H8Y 7035   2.314   3.818   5.361
   78SOPE   C39 7036   2.414   3.945   5.213
   78SOPE   H9X 7037   2.492   4.021   5.213
   78SOPE   H9Y 7038   2.311   3.975   5.181
   78SOPE  C310 7039   2.437   3.864   5.094
   78SOPE  H10X 7040   2.393   3.773   5.133
   78SOPE  H10Y 7041   2.512   3.797   5.066
   78SOPE  C311 7042   2.476   3.931   4.963
   78SOPE  H11X 7043   2.511   4.031   4.990
   78SOPE  H11Y 7044   2.387   3.933   4.898
   78SOPE  C312 7045   2.599   3.869   4.891
   78SOPE  H12X 7046   2.549   3.779   4.860
   78SOPE  H12Y 7047   2.686   3.841   4.955
   78SOPE  C313 7048   2.638   3.932   4.760
   78SOPE  H13X 7049   2.730   3.881   4.719
   78SOPE  H13Y 7050   2.656   4.037   4.786
   78SOPE  C314 7051   2.525   3.918   4.657
   78SOPE  H14X 7052   2.431   3.962   4.694
   78SOPE  H14Y 7053   2.500   3.812   4.652
   78SOPE  C315 7054   2.563   3.969   4.517
   78SOPE  H15X 7055   2.650   3.914   4.476
   78SOPE  H15Y 7056   2.588   4.076   4.528
   78SOPE  C316 7057   2.451   3.966   4.415
   78SOPE  H16X 7058   2.372   3.988   4.483
   78SOPE  H16Y 7059   2.390   3.883   4.380
   78SOPE  C317 7060   2.482   4.031   4.282
   78SOPE  H17X 7061   2.526   4.128   4.306
   78SOPE  H17Y 7062   2.393   4.042   4.215
   78SOPE  C318 7063   2.575   3.952   4.195
   78SOPE  H18X 7064   2.584   3.999   4.095
   78SOPE  H18Y 7065   2.529   3.855   4.187
   78SOPE  H18Z 7066   2.670   3.931   4.244
   79SOPE     N 7067   3.995   1.779   6.607
   79SOPE   HN1 7068   3.915   1.796   6.672
   79SOPE   HN2 7069   3.968   1.705   6.538
   79SOPE   HN3 7070   4.083   1.751   6.656
   79SOPE   C12 7071   4.023   1.902   6.525
   79SOPE  H12A 7072   4.097   1.873   6.449
   79SOPE  H12B 7073   4.071   1.978   6.591
   79SOPE   C11 7074   3.892   1.956   6.464
   79SOPE  H11A 7075   3.908   2.051   6.407
   79SOPE  H11B 7076   3.824   1.983   6.547
   79SOPE     P 7077   3.880   1.824   6.237
   79SOPE   O13 7078   3.941   1.691   6.259
   79SOPE   O14 7079   3.963   1.934   6.186
   79SOPE   O12 7080   3.825   1.863   6.380
   79SOPE   O11 7081   3.751   1.811   6.149
   79SOPE    C1 7082   3.635   1.741   6.192
   79SOPE    HA 7083   3.590   1.794   6.279
   79SOPE    HB 7084   3.660   1.637   6.218
   79SOPE    C2 7085   3.532   1.734   6.077
   79SOPE    HS 7086   3.464   1.648   6.087
   79SOPE   O21 7087   3.596   1.730   5.949
   79SOPE   C21 7088   3.681   1.633   5.924
   79SOPE   O22 7089   3.685   1.523   5.975
   79SOPE   C22 7090   3.776   1.679   5.810
   79SOPE   H2R 7091   3.869   1.717   5.858
   79SOPE   H2S 7092   3.730   1.765   5.758
   79SOPE    C3 7093   3.442   1.860   6.081
   79SOPE    HX 7094   3.377   1.855   6.171
   79SOPE    HY 7095   3.376   1.854   5.992
   79SOPE   O31 7096   3.522   1.980   6.088
   79SOPE   C31 7097   3.560   2.027   5.970
   79SOPE   O32 7098   3.521   1.987   5.862
   79SOPE   C32 7099   3.664   2.138   5.989
   79SOPE   H2X 7100   3.736   2.096   6.062
   79SOPE   H2Y 7101   3.618   2.227   6.036
   79SOPE   C23 7102   3.814   1.566   5.712
   79SOPE   H3R 7103   3.862   1.483   5.767
   79SOPE   H3S 7104   3.888   1.601   5.636
   79SOPE   C24 7105   3.696   1.509   5.634
   79SOPE   H4R 7106   3.733   1.415   5.587
   79SOPE   H4S 7107   3.613   1.482   5.702
   79SOPE   C25 7108   3.649   1.605   5.525
   79SOPE   H5R 7109   3.603   1.698   5.563
   79SOPE   H5S 7110   3.731   1.635   5.456
   79SOPE   C26 7111   3.549   1.546   5.435
   79SOPE   H6R 7112   3.455   1.507   5.482
   79SOPE   H6S 7113   3.522   1.635   5.374
   79SOPE   C27 7114   3.606   1.434   5.347
   79SOPE   H7R 7115   3.627   1.362   5.425
   79SOPE   H7S 7116   3.536   1.383   5.282
   79SOPE   C28 7117   3.726   1.449   5.256
   79SOPE   H8R 7118   3.810   1.451   5.328
   79SOPE   H8S 7119   3.734   1.351   5.202
   79SOPE   C29 7120   3.726   1.567   5.163
   79SOPE   H91 7121   3.726   1.667   5.208
   79SOPE  C210 7122   3.718   1.563   5.030
   79SOPE  H101 7123   3.740   1.653   4.970
   79SOPE  C211 7124   3.708   1.441   4.948
   79SOPE  H11R 7125   3.605   1.400   4.950
   79SOPE  H11S 7126   3.765   1.361   4.998
   79SOPE  C212 7127   3.764   1.482   4.807
   79SOPE  H12R 7128   3.703   1.550   4.747
   79SOPE  H12S 7129   3.740   1.394   4.744
   79SOPE  C213 7130   3.919   1.526   4.808
   79SOPE  H13R 7131   3.959   1.513   4.911
   79SOPE  H13S 7132   3.923   1.627   4.766
   79SOPE  C214 7133   4.027   1.448   4.727
   79SOPE  H14R 7134   4.009   1.452   4.631
   79SOPE  H14S 7135   4.040   1.343   4.737
   79SOPE  C215 7136   4.169   1.467   4.713
   79SOPE  H15R 7137   4.201   1.479   4.818
   79SOPE  H15S 7138   4.186   1.556   4.650
   79SOPE  C216 7139   4.225   1.335   4.649
   79SOPE  H16R 7140   4.250   1.256   4.720
   79SOPE  H16S 7141   4.304   1.395   4.608
   79SOPE  C217 7142   4.206   1.252   4.522
   79SOPE  H17R 7143   4.115   1.194   4.533
   79SOPE  H17S 7144   4.278   1.170   4.505
   79SOPE  C218 7145   4.215   1.343   4.405
   79SOPE  H18R 7146   4.309   1.349   4.348
   79SOPE  H18S 7147   4.171   1.441   4.432
   79SOPE  H18T 7148   4.145   1.301   4.336
   79SOPE   C33 7149   3.737   2.170   5.857
   79SOPE   H3X 7150   3.668   2.226   5.789
   79SOPE   H3Y 7151   3.767   2.076   5.806
   79SOPE   C34 7152   3.868   2.246   5.873
   79SOPE   H4X 7153   3.920   2.240   5.970
   79SOPE   H4Y 7154   3.843   2.349   5.864
   79SOPE   C35 7155   3.952   2.257   5.747
   79SOPE   H5X 7156   4.021   2.345   5.759
   79SOPE   H5Y 7157   3.876   2.273   5.666
   79SOPE   C36 7158   4.029   2.136   5.717
   79SOPE   H6X 7159   3.952   2.056   5.720
   79SOPE   H6Y 7160   4.101   2.125   5.800
   79SOPE   C37 7161   4.106   2.134   5.588
   79SOPE   H7X 7162   4.193   2.202   5.592
   79SOPE   H7Y 7163   4.050   2.170   5.499
   79SOPE   C38 7164   4.149   1.990   5.570
   79SOPE   H8X 7165   4.096   1.927   5.646
   79SOPE   H8Y 7166   4.257   1.984   5.596
   79SOPE   C39 7167   4.115   1.936   5.431
   79SOPE   H9X 7168   4.148   1.830   5.422
   79SOPE   H9Y 7169   4.172   1.996   5.357
   79SOPE  C310 7170   3.964   1.948   5.401
   79SOPE  H10X 7171   3.941   2.055   5.383
   79SOPE  H10Y 7172   3.904   1.919   5.490
   79SOPE  C311 7173   3.916   1.860   5.285
   79SOPE  H11X 7174   3.807   1.880   5.271
   79SOPE  H11Y 7175   3.926   1.753   5.312
   79SOPE  C312 7176   3.988   1.881   5.151
   79SOPE  H12X 7177   3.937   1.814   5.079
   79SOPE  H12Y 7178   4.095   1.850   5.158
   79SOPE  C313 7179   3.982   2.028   5.110
   79SOPE  H13X 7180   4.055   2.078   5.176
   79SOPE  H13Y 7181   3.880   2.066   5.135
   79SOPE  C314 7182   4.014   2.058   4.962
   79SOPE  H14X 7183   4.124   2.042   4.949
   79SOPE  H14Y 7184   3.992   2.165   4.941
   79SOPE  C315 7185   3.932   1.976   4.859
   79SOPE  H15X 7186   3.825   1.998   4.875
   79SOPE  H15Y 7187   3.951   1.869   4.882
   79SOPE  C316 7188   3.964   1.999   4.709
   79SOPE  H16X 7189   4.073   2.017   4.701
   79SOPE  H16Y 7190   3.916   2.092   4.670
   79SOPE  C317 7191   3.927   1.876   4.622
   79SOPE  H17X 7192   3.822   1.843   4.640
   79SOPE  H17Y 7193   3.991   1.790   4.651
   79SOPE  C318 7194   3.942   1.896   4.472
   79SOPE  H18X 7195   3.926   1.800   4.419
   79SOPE  H18Y 7196   4.044   1.932   4.446
   79SOPE  H18Z 7197   3.865   1.968   4.437
   80SOPE     N 7198   2.070   4.975   6.499
   80SOPE   HN1 7199   2.025   4.917   6.573
   80SOPE   HN2 7200   2.133   5.047   6.541
   80SOPE   HN3 7201   1.993   5.020   6.445
   80SOPE   C12 7202   2.155   4.887   6.410
   80SOPE  H12A 7203   2.085   4.825   6.350
   80SOPE  H12B 7204   2.212   4.820   6.476
   80SOPE   C11 7205   2.251   4.970   6.321
   80SOPE  H11A 7206   2.193   5.047   6.266
   80SOPE  H11B 7207   2.298   4.905   6.242
   80SOPE     P 7208   2.478   5.095   6.316
   80SOPE   O13 7209   2.533   4.992   6.226
   80SOPE   O14 7210   2.569   5.166   6.408
   80SOPE   O12 7211   2.351   5.036   6.398
   80SOPE   O11 7212   2.404   5.203   6.225
   80SOPE    C1 7213   2.469   5.250   6.106
   80SOPE    HA 7214   2.576   5.219   6.099
   80SOPE    HB 7215   2.471   5.362   6.106
   80SOPE    C2 7216   2.399   5.202   5.976
   80SOPE    HS 7217   2.300   5.254   5.970
   80SOPE   O21 7218   2.379   5.060   5.975
   80SOPE   C21 7219   2.294   5.021   5.881
   80SOPE   O22 7220   2.228   5.095   5.810
   80SOPE   C22 7221   2.294   4.869   5.875
   80SOPE   H2R 7222   2.223   4.839   5.795
   80SOPE   H2S 7223   2.263   4.830   5.974
   80SOPE    C3 7224   2.490   5.240   5.858
   80SOPE    HX 7225   2.448   5.201   5.763
   80SOPE    HY 7226   2.586   5.184   5.874
   80SOPE   O31 7227   2.505   5.383   5.846
   80SOPE   C31 7228   2.626   5.435   5.864
   80SOPE   O32 7229   2.724   5.373   5.900
   80SOPE   C32 7230   2.624   5.582   5.824
   80SOPE   H2X 7231   2.708   5.633   5.873
   80SOPE   H2Y 7232   2.534   5.631   5.862
   80SOPE   C23 7233   2.432   4.811   5.842
   80SOPE   H3R 7234   2.418   4.702   5.829
   80SOPE   H3S 7235   2.499   4.827   5.929
   80SOPE   C24 7236   2.484   4.868   5.710
   80SOPE   H4R 7237   2.402   4.854   5.635
   80SOPE   H4S 7238   2.502   4.977   5.720
   80SOPE   C25 7239   2.615   4.808   5.659
   80SOPE   H5R 7240   2.695   4.843   5.726
   80SOPE   H5S 7241   2.610   4.697   5.662
   80SOPE   C26 7242   2.645   4.855   5.515
   80SOPE   H6R 7243   2.704   4.781   5.461
   80SOPE   H6S 7244   2.552   4.851   5.456
   80SOPE   C27 7245   2.717   4.990   5.501
   80SOPE   H7R 7246   2.657   5.066   5.555
   80SOPE   H7S 7247   2.815   4.986   5.554
   80SOPE   C28 7248   2.734   5.034   5.352
   80SOPE   H8R 7249   2.633   5.026   5.309
   80SOPE   H8S 7250   2.761   5.141   5.345
   80SOPE   C29 7251   2.830   4.964   5.261
   80SOPE   H91 7252   2.931   4.940   5.300
   80SOPE  C210 7253   2.797   4.911   5.142
   80SOPE  H101 7254   2.878   4.865   5.083
   80SOPE  C211 7255   2.661   4.912   5.080
   80SOPE  H11R 7256   2.656   5.004   5.020
   80SOPE  H11S 7257   2.580   4.917   5.155
   80SOPE  C212 7258   2.620   4.786   5.000
   80SOPE  H12R 7259   2.521   4.808   4.956
   80SOPE  H12S 7260   2.608   4.701   5.072
   80SOPE  C213 7261   2.715   4.742   4.889
   80SOPE  H13R 7262   2.672   4.655   4.836
   80SOPE  H13S 7263   2.807   4.712   4.939
   80SOPE  C214 7264   2.762   4.848   4.789
   80SOPE  H14R 7265   2.845   4.802   4.731
   80SOPE  H14S 7266   2.803   4.934   4.848
   80SOPE  C215 7267   2.653   4.905   4.699
   80SOPE  H15R 7268   2.580   4.952   4.768
   80SOPE  H15S 7269   2.604   4.824   4.640
   80SOPE  C216 7270   2.703   5.019   4.610
   80SOPE  H16R 7271   2.776   5.084   4.662
   80SOPE  H16S 7272   2.619   5.078   4.567
   80SOPE  C217 7273   2.764   4.974   4.486
   80SOPE  H17R 7274   2.687   4.896   4.456
   80SOPE  H17S 7275   2.854   4.909   4.503
   80SOPE  C218 7276   2.792   5.090   4.381
   80SOPE  H18R 7277   2.881   5.062   4.321
   80SOPE  H18S 7278   2.836   5.183   4.415
   80SOPE  H18T 7279   2.720   5.103   4.296
   80SOPE   C33 7280   2.644   5.596   5.672
   80SOPE   H3X 7281   2.715   5.520   5.638
   80SOPE   H3Y 7282   2.685   5.698   5.651
   80SOPE   C34 7283   2.512   5.586   5.597
   80SOPE   H4X 7284   2.459   5.666   5.650
   80SOPE   H4Y 7285   2.462   5.488   5.612
   80SOPE   C35 7286   2.508   5.633   5.452
   80SOPE   H5X 7287   2.510   5.745   5.442
   80SOPE   H5Y 7288   2.411   5.602   5.408
   80SOPE   C36 7289   2.626   5.576   5.377
   80SOPE   H6X 7290   2.629   5.466   5.391
   80SOPE   H6Y 7291   2.715   5.622   5.424
   80SOPE   C37 7292   2.625   5.609   5.229
   80SOPE   H7X 7293   2.717   5.569   5.182
   80SOPE   H7Y 7294   2.621   5.721   5.222
   80SOPE   C38 7295   2.511   5.544   5.154
   80SOPE   H8X 7296   2.519   5.560   5.044
   80SOPE   H8Y 7297   2.423   5.600   5.186
   80SOPE   C39 7298   2.498   5.393   5.182
   80SOPE   H9X 7299   2.485   5.370   5.290
   80SOPE   H9Y 7300   2.587   5.340   5.145
   80SOPE  C310 7301   2.376   5.336   5.116
   80SOPE  H10X 7302   2.300   5.402   5.162
   80SOPE  H10Y 7303   2.354   5.231   5.143
   80SOPE  C311 7304   2.383   5.344   4.964
   80SOPE  H11X 7305   2.389   5.452   4.940
   80SOPE  H11Y 7306   2.294   5.295   4.919
   80SOPE  C312 7307   2.511   5.291   4.904
   80SOPE  H12X 7308   2.540   5.206   4.967
   80SOPE  H12Y 7309   2.593   5.366   4.918
   80SOPE  C313 7310   2.502   5.239   4.758
   80SOPE  H13X 7311   2.430   5.156   4.751
   80SOPE  H13Y 7312   2.604   5.216   4.725
   80SOPE  C314 7313   2.463   5.338   4.655
   80SOPE  H14X 7314   2.362   5.357   4.700
   80SOPE  H14Y 7315   2.444   5.320   4.548
   80SOPE  C315 7316   2.573   5.443   4.667
   80SOPE  H15X 7317   2.573   5.476   4.771
   80SOPE  H15Y 7318   2.546   5.523   4.601
   80SOPE  C316 7319   2.702   5.464   4.591
   80SOPE  H16X 7320   2.680   5.450   4.482
   80SOPE  H16Y 7321   2.762   5.385   4.636
   80SOPE  C317 7322   2.776   5.600   4.619
   80SOPE  H17X 7323   2.880   5.579   4.588
   80SOPE  H17Y 7324   2.780   5.617   4.730
   80SOPE  C318 7325   2.735   5.732   4.548
   80SOPE  H18X 7326   2.637   5.774   4.573
   80SOPE  H18Y 7327   2.732   5.716   4.438
   80SOPE  H18Z 7328   2.806   5.813   4.574
   81SOPE     N 7329   3.645   6.620   6.605
   81SOPE   HN1 7330   3.629   6.714   6.562
   81SOPE   HN2 7331   3.577   6.554   6.564
   81SOPE   HN3 7332   3.629   6.627   6.708
   81SOPE   C12 7333   3.781   6.566   6.568
   81SOPE  H12A 7334   3.762   6.467   6.522
   81SOPE  H12B 7335   3.837   6.549   6.661
   81SOPE   C11 7336   3.859   6.657   6.472
   81SOPE  H11A 7337   3.957   6.608   6.444
   81SOPE  H11B 7338   3.890   6.750   6.520
   81SOPE     P 7339   3.778   6.598   6.235
   81SOPE   O13 7340   3.642   6.539   6.239
   81SOPE   O14 7341   3.891   6.505   6.246
   81SOPE   O12 7342   3.782   6.697   6.359
   81SOPE   O11 7343   3.795   6.702   6.117
   81SOPE    C1 7344   3.686   6.774   6.058
   81SOPE    HA 7345   3.715   6.881   6.051
   81SOPE    HB 7346   3.591   6.768   6.114
   81SOPE    C2 7347   3.650   6.725   5.917
   81SOPE    HS 7348   3.618   6.618   5.921
   81SOPE   O21 7349   3.764   6.731   5.843
   81SOPE   C21 7350   3.764   6.642   5.748
   81SOPE   O22 7351   3.690   6.554   5.714
   81SOPE   C22 7352   3.877   6.662   5.685
   81SOPE   H2R 7353   3.935   6.622   5.776
   81SOPE   H2S 7354   3.906   6.768   5.685
   81SOPE    C3 7355   3.547   6.814   5.846
   81SOPE    HX 7356   3.575   6.920   5.862
   81SOPE    HY 7357   3.452   6.794   5.900
   81SOPE   O31 7358   3.539   6.793   5.703
   81SOPE   C31 7359   3.452   6.700   5.668
   81SOPE   O32 7360   3.375   6.641   5.741
   81SOPE   C32 7361   3.458   6.677   5.520
   81SOPE   H2X 7362   3.474   6.568   5.508
   81SOPE   H2Y 7363   3.545   6.732   5.479
   81SOPE   C23 7364   3.872   6.587   5.542
   81SOPE   H3R 7365   3.898   6.479   5.541
   81SOPE   H3S 7366   3.956   6.619   5.484
   81SOPE   C24 7367   3.847   6.652   5.409
   81SOPE   H4R 7368   3.892   6.601   5.315
   81SOPE   H4S 7369   3.744   6.629   5.432
   81SOPE   C25 7370   3.871   6.801   5.397
   81SOPE   H5R 7371   3.847   6.856   5.491
   81SOPE   H5S 7372   3.969   6.838   5.370
   81SOPE   C26 7373   3.789   6.822   5.276
   81SOPE   H6R 7374   3.834   6.788   5.182
   81SOPE   H6S 7375   3.693   6.773   5.305
   81SOPE   C27 7376   3.752   6.957   5.250
   81SOPE   H7R 7377   3.770   6.981   5.352
   81SOPE   H7S 7378   3.837   7.023   5.219
   81SOPE   C28 7379   3.600   6.939   5.184
   81SOPE   H8R 7380   3.626   6.892   5.094
   81SOPE   H8S 7381   3.526   6.889   5.237
   81SOPE   C29 7382   3.514   7.049   5.145
   81SOPE   H91 7383   3.595   7.093   5.198
   81SOPE  C210 7384   3.400   7.121   5.143
   81SOPE  H101 7385   3.389   7.230   5.096
   81SOPE  C211 7386   3.301   7.091   5.248
   81SOPE  H11R 7387   3.276   7.165   5.323
   81SOPE  H11S 7388   3.321   6.994   5.292
   81SOPE  C212 7389   3.194   7.101   5.164
   81SOPE  H12R 7390   3.188   7.207   5.128
   81SOPE  H12S 7391   3.106   7.064   5.224
   81SOPE  C213 7392   3.215   7.026   5.050
   81SOPE  H13R 7393   3.117   6.987   5.069
   81SOPE  H13S 7394   3.290   6.948   5.088
   81SOPE  C214 7395   3.251   7.108   4.918
   81SOPE  H14R 7396   3.266   7.213   4.945
   81SOPE  H14S 7397   3.165   7.097   4.853
   81SOPE  C215 7398   3.395   7.099   4.856
   81SOPE  H15R 7399   3.368   7.015   4.907
   81SOPE  H15S 7400   3.477   7.034   4.890
   81SOPE  C216 7401   3.408   7.101   4.700
   81SOPE  H16R 7402   3.398   7.205   4.674
   81SOPE  H16S 7403   3.308   7.084   4.657
   81SOPE  C217 7404   3.512   6.985   4.642
   81SOPE  H17R 7405   3.531   6.904   4.710
   81SOPE  H17S 7406   3.589   7.024   4.681
   81SOPE  C218 7407   3.556   6.914   4.502
   81SOPE  H18R 7408   3.627   6.945   4.426
   81SOPE  H18S 7409   3.490   6.939   4.434
   81SOPE  H18T 7410   3.492   6.833   4.464
   81SOPE   C33 7411   3.326   6.730   5.463
   81SOPE   H3X 7412   3.315   6.837   5.492
   81SOPE   H3Y 7413   3.241   6.672   5.508
   81SOPE   C34 7414   3.317   6.726   5.311
   81SOPE   H4X 7415   3.388   6.787   5.258
   81SOPE   H4Y 7416   3.214   6.749   5.277
   81SOPE   C35 7417   3.362   6.595   5.261
   81SOPE   H5X 7418   3.299   6.544   5.328
   81SOPE   H5Y 7419   3.458   6.550   5.284
   81SOPE   C36 7420   3.337   6.572   5.119
   81SOPE   H6X 7421   3.226   6.581   5.095
   81SOPE   H6Y 7422   3.381   6.471   5.111
   81SOPE   C37 7423   3.439   6.612   5.014
   81SOPE   H7X 7424   3.540   6.591   5.045
   81SOPE   H7Y 7425   3.453   6.720   5.032
   81SOPE   C38 7426   3.406   6.566   4.864
   81SOPE   H8X 7427   3.444   6.467   4.841
   81SOPE   H8Y 7428   3.475   6.629   4.805
   81SOPE   C39 7429   3.258   6.567   4.800
   81SOPE   H9X 7430   3.190   6.648   4.784
   81SOPE   H9Y 7431   3.180   6.545   4.874
   81SOPE  C310 7432   3.247   6.559   4.651
   81SOPE  H10X 7433   3.335   6.599   4.604
   81SOPE  H10Y 7434   3.148   6.601   4.612
   81SOPE  C311 7435   3.301   6.430   4.613
   81SOPE  H11X 7436   3.200   6.413   4.606
   81SOPE  H11Y 7437   3.337   6.370   4.696
   81SOPE  C312 7438   3.325   6.383   4.477
   81SOPE  H12X 7439   3.246   6.421   4.406
   81SOPE  H12Y 7440   3.338   6.269   4.483
   81SOPE  C313 7441   3.452   6.398   4.431
   81SOPE  H13X 7442   3.458   6.316   4.352
   81SOPE  H13Y 7443   3.514   6.388   4.521
   81SOPE  C314 7444   3.454   6.526   4.370
   81SOPE  H14X 7445   3.470   6.609   4.442
   81SOPE  H14Y 7446   3.357   6.546   4.322
   81SOPE  C315 7447   3.560   6.498   4.268
   81SOPE  H15X 7448   3.606   6.586   4.236
   81SOPE  H15Y 7449   3.519   6.446   4.178
   81SOPE  C316 7450   3.693   6.458   4.322
   81SOPE  H16X 7451   3.765   6.470   4.237
   81SOPE  H16Y 7452   3.680   6.352   4.348
   81SOPE  C317 7453   3.741   6.543   4.442
   81SOPE  H17X 7454   3.832   6.491   4.473
   81SOPE  H17Y 7455   3.667   6.544   4.525
   81SOPE  C318 7456   3.780   6.688   4.423
   81SOPE  H18X 7457   3.684   6.741   4.408
   81SOPE  H18Y 7458   3.849   6.699   4.336
   81SOPE  H18Z 7459   3.818   6.746   4.507
   82SOPE     N 7460   7.152   1.381   6.233
   82SOPE   HN1 7461   7.234   1.341   6.185
   82SOPE   HN2 7462   7.073   1.318   6.211
   82SOPE   HN3 7463   7.130   1.469   6.180
   82SOPE   C12 7464   7.169   1.408   6.372
   82SOPE  H12A 7465   7.084   1.473   6.399
   82SOPE  H12B 7466   7.262   1.469   6.374
   82SOPE   C11 7467   7.167   1.271   6.442
   82SOPE  H11A 7468   7.066   1.225   6.439
   82SOPE  H11B 7469   7.189   1.289   6.548
   82SOPE     P 7470   7.252   1.026   6.385
   82SOPE   O13 7471   7.245   0.966   6.518
   82SOPE   O14 7472   7.356   0.972   6.295
   82SOPE   O12 7473   7.262   1.180   6.384
   82SOPE   O11 7474   7.111   1.005   6.332
   82SOPE    C1 7475   7.074   0.882   6.276
   82SOPE    HA 7476   6.964   0.880   6.269
   82SOPE    HB 7477   7.089   0.804   6.350
   82SOPE    C2 7478   7.149   0.850   6.142
   82SOPE    HS 7479   7.247   0.841   6.117
   82SOPE   O21 7480   7.194   0.983   6.084
   82SOPE   C21 7481   7.210   1.094   5.973
   82SOPE   O22 7482   7.323   1.100   5.940
   82SOPE   C22 7483   7.068   1.187   5.880
   82SOPE   H2R 7484   7.117   1.224   5.802
   82SOPE   H2S 7485   7.060   1.244   5.958
   82SOPE    C3 7486   7.048   0.727   6.065
   82SOPE    HX 7487   6.941   0.717   6.085
   82SOPE    HY 7488   7.063   0.647   6.136
   82SOPE   O31 7489   7.065   0.662   5.934
   82SOPE   C31 7490   7.185   0.668   5.908
   82SOPE   O32 7491   7.275   0.698   5.981
   82SOPE   C32 7492   7.227   0.661   5.772
   82SOPE   H2X 7493   7.279   0.759   5.760
   82SOPE   H2Y 7494   7.164   0.628   5.691
   82SOPE   C23 7495   6.907   1.159   5.808
   82SOPE   H3R 7496   6.822   1.231   5.811
   82SOPE   H3S 7497   6.820   1.095   5.840
   82SOPE   C24 7498   6.933   1.073   5.689
   82SOPE   H4R 7499   6.994   0.980   5.706
   82SOPE   H4S 7500   6.839   1.040   5.647
   82SOPE   C25 7501   7.041   1.106   5.602
   82SOPE   H5R 7502   6.999   1.204   5.575
   82SOPE   H5S 7503   7.137   1.109   5.661
   82SOPE   C26 7504   7.047   0.994   5.501
   82SOPE   H6R 7505   7.072   0.893   5.544
   82SOPE   H6S 7506   6.946   0.983   5.455
   82SOPE   C27 7507   7.148   1.035   5.399
   82SOPE   H7R 7508   7.141   1.144   5.381
   82SOPE   H7S 7509   7.250   1.007   5.435
   82SOPE   C28 7510   7.115   0.965   5.271
   82SOPE   H8R 7511   7.132   0.866   5.309
   82SOPE   H8S 7512   7.009   0.975   5.243
   82SOPE   C29 7513   7.215   0.981   5.162
   82SOPE   H91 7514   7.315   1.006   5.199
   82SOPE  C210 7515   7.187   0.979   5.031
   82SOPE  H101 7516   7.271   0.988   4.961
   82SOPE  C211 7517   7.052   0.962   4.964
   82SOPE  H11R 7518   7.036   1.042   4.892
   82SOPE  H11S 7519   6.969   0.958   5.040
   82SOPE  C212 7520   7.036   0.847   4.866
   82SOPE  H12R 7521   7.136   0.811   4.832
   82SOPE  H12S 7522   6.953   0.830   4.794
   82SOPE  C213 7523   6.969   0.742   4.936
   82SOPE  H13R 7524   6.876   0.741   4.975
   82SOPE  H13S 7525   7.038   0.762   5.025
   82SOPE  C214 7526   6.951   0.618   4.839
   82SOPE  H14R 7527   6.957   0.518   4.895
   82SOPE  H14S 7528   7.044   0.647   4.784
   82SOPE  C215 7529   6.860   0.488   4.820
   82SOPE  H15R 7530   6.821   0.574   4.766
   82SOPE  H15S 7531   6.799   0.448   4.908
   82SOPE  C216 7532   6.903   0.358   4.734
   82SOPE  H16R 7533   6.951   0.396   4.643
   82SOPE  H16S 7534   6.806   0.319   4.697
   82SOPE  C217 7535   6.989   0.233   4.786
   82SOPE  H17R 7536   6.927   0.165   4.841
   82SOPE  H17S 7537   7.072   0.239   4.861
   82SOPE  C218 7538   7.067   0.155   4.684
   82SOPE  H18R 7539   6.998   0.126   4.615
   82SOPE  H18S 7540   7.147   0.090   4.729
   82SOPE  H18T 7541   7.114   0.210   4.607
   82SOPE   C33 7542   7.323   0.558   5.755
   82SOPE   H3X 7543   7.357   0.478   5.823
   82SOPE   H3Y 7544   7.386   0.565   5.848
   82SOPE   C34 7545   7.367   0.561   5.598
   82SOPE   H4X 7546   7.314   0.481   5.546
   82SOPE   H4Y 7547   7.474   0.540   5.578
   82SOPE   C35 7548   7.373   0.659   5.487
   82SOPE   H5X 7549   7.450   0.730   5.485
   82SOPE   H5Y 7550   7.315   0.749   5.490
   82SOPE   C36 7551   7.449   0.596   5.371
   82SOPE   H6X 7552   7.557   0.565   5.370
   82SOPE   H6Y 7553   7.443   0.679   5.306
   82SOPE   C37 7554   7.355   0.534   5.286
   82SOPE   H7X 7555   7.277   0.609   5.282
   82SOPE   H7Y 7556   7.325   0.459   5.354
   82SOPE   C38 7557   7.403   0.485   5.154
   82SOPE   H8X 7558   7.329   0.406   5.129
   82SOPE   H8Y 7559   7.501   0.439   5.166
   82SOPE   C39 7560   7.416   0.594   5.049
   82SOPE   H9X 7561   7.410   0.693   5.090
   82SOPE   H9Y 7562   7.335   0.625   4.995
   82SOPE  C310 7563   7.488   0.548   4.924
   82SOPE  H10X 7564   7.482   0.437   4.918
   82SOPE  H10Y 7565   7.584   0.563   4.947
   82SOPE  C311 7566   7.466   0.620   4.788
   82SOPE  H11X 7567   7.377   0.595   4.727
   82SOPE  H11Y 7568   7.546   0.583   4.723
   82SOPE  C312 7569   7.447   0.768   4.792
   82SOPE  H12X 7570   7.525   0.812   4.854
   82SOPE  H12Y 7571   7.349   0.797   4.838
   82SOPE  C313 7572   7.442   0.816   4.648
   82SOPE  H13X 7573   7.376   0.748   4.590
   82SOPE  H13Y 7574   7.542   0.812   4.598
   82SOPE  C314 7575   7.374   0.950   4.652
   82SOPE  H14X 7576   7.458   1.018   4.688
   82SOPE  H14Y 7577   7.294   0.968   4.724
   82SOPE  C315 7578   7.308   0.994   4.521
   82SOPE  H15X 7579   7.381   0.967   4.441
   82SOPE  H15Y 7580   7.283   1.103   4.537
   82SOPE  C316 7581   7.196   0.963   4.437
   82SOPE  H16X 7582   7.179   1.060   4.379
   82SOPE  H16Y 7583   7.129   0.944   4.522
   82SOPE  C317 7584   7.234   0.862   4.332
   82SOPE  H17X 7585   7.228   0.764   4.382
   82SOPE  H17Y 7586   7.336   0.870   4.286
   82SOPE  C318 7587   7.144   0.888   4.215
   82SOPE  H18X 7588   7.142   0.797   4.155
   82SOPE  H18Y 7589   7.184   0.973   4.156
   82SOPE  H18Z 7590   7.042   0.916   4.250
   83SOPE     N 7591   3.675   4.745   2.321
   83SOPE   HN1 7592   3.709   4.844   2.325
   83SOPE   HN2 7593   3.637   4.711   2.411
   83SOPE   HN3 7594   3.752   4.681   2.291
   83SOPE   C12 7595   3.572   4.731   2.213
   83SOPE  H12A 7596   3.617   4.781   2.126
   83SOPE  H12B 7597   3.478   4.783   2.240
   83SOPE   C11 7598   3.548   4.584   2.177
   83SOPE  H11A 7599   3.485   4.587   2.086
   83SOPE  H11B 7600   3.484   4.525   2.248
   83SOPE     P 7601   3.683   4.374   2.088
   83SOPE   O13 7602   3.806   4.370   2.006
   83SOPE   O14 7603   3.555   4.342   2.022
   83SOPE   O12 7604   3.674   4.521   2.155
   83SOPE   O11 7605   3.707   4.288   2.219
   83SOPE    C1 7606   3.607   4.200   2.271
   83SOPE    HA 7607   3.637   4.093   2.259
   83SOPE    HB 7608   3.511   4.212   2.218
   83SOPE    C2 7609   3.576   4.231   2.418
   83SOPE    HS 7610   3.501   4.155   2.452
   83SOPE   O21 7611   3.524   4.368   2.413
   83SOPE   C21 7612   3.461   4.412   2.517
   83SOPE   O22 7613   3.439   4.363   2.618
   83SOPE   C22 7614   3.419   4.552   2.532
   83SOPE   H2R 7615   3.319   4.556   2.486
   83SOPE   H2S 7616   3.500   4.604   2.482
   83SOPE    C3 7617   3.709   4.213   2.501
   83SOPE    HX 7618   3.788   4.267   2.445
   83SOPE    HY 7619   3.734   4.104   2.496
   83SOPE   O31 7620   3.699   4.255   2.640
   83SOPE   C31 7621   3.812   4.282   2.706
   83SOPE   O32 7622   3.924   4.282   2.657
   83SOPE   C32 7623   3.782   4.312   2.853
   83SOPE   H2X 7624   3.693   4.254   2.886
   83SOPE   H2Y 7625   3.756   4.419   2.864
   83SOPE   C23 7626   3.421   4.583   2.687
   83SOPE   H3R 7627   3.399   4.502   2.763
   83SOPE   H3S 7628   3.343   4.658   2.705
   83SOPE   C24 7629   3.557   4.636   2.731
   83SOPE   H4R 7630   3.630   4.553   2.712
   83SOPE   H4S 7631   3.578   4.722   2.665
   83SOPE   C25 7632   3.575   4.682   2.876
   83SOPE   H5R 7633   3.684   4.704   2.887
   83SOPE   H5S 7634   3.524   4.778   2.895
   83SOPE   C26 7635   3.534   4.581   2.985
   83SOPE   H6R 7636   3.424   4.565   2.988
   83SOPE   H6S 7637   3.580   4.482   2.964
   83SOPE   C27 7638   3.581   4.628   3.123
   83SOPE   H7R 7639   3.690   4.613   3.124
   83SOPE   H7S 7640   3.557   4.736   3.136
   83SOPE   C28 7641   3.526   4.553   3.246
   83SOPE   H8R 7642   3.577   4.597   3.335
   83SOPE   H8S 7643   3.420   4.580   3.258
   83SOPE   C29 7644   3.540   4.404   3.240
   83SOPE   H91 7645   3.480   4.355   3.162
   83SOPE  C210 7646   3.624   4.330   3.315
   83SOPE  H101 7647   3.616   4.222   3.313
   83SOPE  C211 7648   3.721   4.382   3.418
   83SOPE  H11R 7649   3.712   4.491   3.436
   83SOPE  H11S 7650   3.824   4.366   3.379
   83SOPE  C212 7651   3.722   4.306   3.549
   83SOPE  H12R 7652   3.810   4.337   3.611
   83SOPE  H12S 7653   3.728   4.200   3.529
   83SOPE  C213 7654   3.602   4.322   3.636
   83SOPE  H13R 7655   3.632   4.269   3.726
   83SOPE  H13S 7656   3.505   4.278   3.602
   83SOPE  C214 7657   3.598   4.465   3.673
   83SOPE  H14R 7658   3.574   4.529   3.586
   83SOPE  H14S 7659   3.671   4.504   3.745
   83SOPE  C215 7660   3.492   4.486   3.767
   83SOPE  H15R 7661   3.442   4.405   3.816
   83SOPE  H15S 7662   3.408   4.456   3.690
   83SOPE  C216 7663   3.486   4.615   3.882
   83SOPE  H16R 7664   3.474   4.727   3.851
   83SOPE  H16S 7665   3.584   4.643   3.923
   83SOPE  C217 7666   3.343   4.612   3.981
   83SOPE  H17R 7667   3.211   4.564   3.935
   83SOPE  H17S 7668   3.345   4.723   3.987
   83SOPE  C218 7669   3.345   4.552   4.081
   83SOPE  H18R 7670   3.346   4.459   4.060
   83SOPE  H18S 7671   3.246   4.540   4.082
   83SOPE  H18T 7672   3.376   4.625   4.152
   83SOPE   C33 7673   3.903   4.277   2.943
   83SOPE   H3X 7674   3.954   4.185   2.907
   83SOPE   H3Y 7675   3.865   4.254   3.046
   83SOPE   C34 7676   4.002   4.393   2.955
   83SOPE   H4X 7677   4.030   4.429   2.854
   83SOPE   H4Y 7678   4.096   4.361   3.005
   83SOPE   C35 7679   3.940   4.510   3.032
   83SOPE   H5X 7680   3.884   4.472   3.121
   83SOPE   H5Y 7681   3.865   4.562   2.968
   83SOPE   C36 7682   4.046   4.610   3.076
   83SOPE   H6X 7683   4.111   4.638   2.989
   83SOPE   H6Y 7684   4.116   4.561   3.148
   83SOPE   C37 7685   3.987   4.738   3.135
   83SOPE   H7X 7686   3.932   4.794   3.056
   83SOPE   H7Y 7687   4.079   4.792   3.163
   83SOPE   C38 7688   3.906   4.732   3.264
   83SOPE   H8X 7689   3.966   4.679   3.341
   83SOPE   H8Y 7690   3.820   4.668   3.244
   83SOPE   C39 7691   3.851   4.864   3.320
   83SOPE   H9X 7692   3.810   4.929   3.240
   83SOPE   H9Y 7693   3.929   4.923   3.371
   83SOPE  C310 7694   3.749   4.836   3.431
   83SOPE  H10X 7695   3.677   4.761   3.395
   83SOPE  H10Y 7696   3.691   4.927   3.455
   83SOPE  C311 7697   3.819   4.788   3.559
   83SOPE  H11X 7698   3.908   4.852   3.577
   83SOPE  H11Y 7699   3.854   4.683   3.550
   83SOPE  C312 7700   3.729   4.797   3.681
   83SOPE  H12X 7701   3.778   4.741   3.763
   83SOPE  H12Y 7702   3.632   4.751   3.653
   83SOPE  C313 7703   3.706   4.941   3.727
   83SOPE  H13X 7704   3.659   4.997   3.643
   83SOPE  H13Y 7705   3.806   4.984   3.748
   83SOPE  C314 7706   3.613   4.957   3.848
   83SOPE  H14X 7707   3.516   4.911   3.826
   83SOPE  H14Y 7708   3.591   5.065   3.862
   83SOPE  C315 7709   3.669   4.904   3.979
   83SOPE  H15X 7710   3.742   4.982   4.011
   83SOPE  H15Y 7711   3.728   4.811   3.967
   83SOPE  C316 7712   3.562   4.871   4.085
   83SOPE  H16X 7713   3.492   4.792   4.068
   83SOPE  H16Y 7714   3.503   4.965   4.107
   83SOPE  C317 7715   3.621   4.798   4.200
   83SOPE  H17X 7716   3.717   4.738   4.195
   83SOPE  H17Y 7717   3.558   4.793   4.296
   83SOPE  C318 7718   3.690   4.900   4.237
   83SOPE  H18X 7719   3.778   4.954   4.193
   83SOPE  H18Y 7720   3.726   4.856   4.339
   83SOPE  H18Z 7721   3.613   4.985   4.253
   84SOPE     N 7722   2.191   4.236   2.036
   84SOPE   HN1 7723   2.178   4.205   1.938
   84SOPE   HN2 7724   2.113   4.298   2.063
   84SOPE   HN3 7725   2.284   4.284   2.044
   84SOPE   C12 7726   2.190   4.117   2.124
   84SOPE  H12A 7727   2.207   4.028   2.059
   84SOPE  H12B 7728   2.090   4.113   2.171
   84SOPE   C11 7729   2.298   4.127   2.230
   84SOPE  H11A 7730   2.279   4.045   2.303
   84SOPE  H11B 7731   2.290   4.221   2.292
   84SOPE     P 7732   2.495   3.971   2.156
   84SOPE   O13 7733   2.633   3.987   2.102
   84SOPE   O14 7734   2.400   3.887   2.080
   84SOPE   O12 7735   2.426   4.116   2.164
   84SOPE   O11 7736   2.496   3.936   2.311
   84SOPE    C1 7737   2.555   4.039   2.393
   84SOPE    HA 7738   2.479   4.117   2.414
   84SOPE    HB 7739   2.643   4.086   2.344
   84SOPE    C2 7740   2.607   3.993   2.532
   84SOPE    HS 7741   2.699   3.931   2.510
   84SOPE   O21 7742   2.498   3.927   2.601
   84SOPE   C21 7743   2.546   3.841   2.687
   84SOPE   O22 7744   2.655   3.791   2.681
   84SOPE   C22 7745   2.440   3.799   2.783
   84SOPE   H2R 7746   2.379   3.731   2.720
   84SOPE   H2S 7747   2.378   3.880   2.823
   84SOPE    C3 7748   2.648   4.117   2.617
   84SOPE    HX 7749   2.710   4.185   2.555
   84SOPE    HY 7750   2.713   4.093   2.704
   84SOPE   O31 7751   2.528   4.188   2.654
   84SOPE   C31 7752   2.478   4.158   2.772
   84SOPE   O32 7753   2.534   4.103   2.864
   84SOPE   C32 7754   2.333   4.201   2.778
   84SOPE   H2X 7755   2.278   4.159   2.690
   84SOPE   H2Y 7756   2.332   4.311   2.767
   84SOPE   C23 7757   2.492   3.717   2.896
   84SOPE   H3R 7758   2.543   3.768   2.978
   84SOPE   H3S 7759   2.556   3.629   2.863
   84SOPE   C24 7760   2.372   3.661   2.961
   84SOPE   H4R 7761   2.322   3.602   2.885
   84SOPE   H4S 7762   2.437   3.599   3.026
   84SOPE   C25 7763   2.261   3.737   3.034
   84SOPE   H5R 7764   2.196   3.788   2.961
   84SOPE   H5S 7765   2.186   3.668   3.081
   84SOPE   C26 7766   2.310   3.833   3.143
   84SOPE   H6R 7767   2.363   3.915   3.093
   84SOPE   H6S 7768   2.216   3.861   3.196
   84SOPE   C27 7769   2.403   3.787   3.254
   84SOPE   H7R 7770   2.336   3.716   3.307
   84SOPE   H7S 7771   2.496   3.739   3.214
   84SOPE   C28 7772   2.443   3.889   3.366
   84SOPE   H8R 7773   2.490   3.974   3.312
   84SOPE   H8S 7774   2.350   3.925   3.410
   84SOPE   C29 7775   2.531   3.840   3.481
   84SOPE   H91 7776   2.635   3.863   3.485
   84SOPE  C210 7777   2.514   3.772   3.590
   84SOPE  H101 7778   2.606   3.739   3.642
   84SOPE  C211 7779   2.384   3.718   3.632
   84SOPE  H11R 7780   2.388   3.608   3.637
   84SOPE  H11S 7781   2.308   3.749   3.557
   84SOPE  C212 7782   2.359   3.769   3.772
   84SOPE  H12R 7783   2.263   3.725   3.805
   84SOPE  H12S 7784   2.354   3.879   3.778
   84SOPE  C213 7785   2.465   3.725   3.870
   84SOPE  H13R 7786   2.562   3.773   3.845
   84SOPE  H13S 7787   2.485   3.619   3.861
   84SOPE  C214 7788   2.421   3.754   4.013
   84SOPE  H14R 7789   2.394   3.862   4.025
   84SOPE  H14S 7790   2.511   3.720   4.070
   84SOPE  C215 7791   2.308   3.670   4.070
   84SOPE  H15R 7792   2.342   3.564   4.072
   84SOPE  H15S 7793   2.225   3.682   4.000
   84SOPE  C216 7794   2.255   3.710   4.209
   84SOPE  H16R 7795   2.222   3.814   4.221
   84SOPE  H16S 7796   2.341   3.711   4.269
   84SOPE  C217 7797   2.150   3.614   4.260
   84SOPE  H17R 7798   2.105   3.635   4.360
   84SOPE  H17S 7799   2.194   3.511   4.272
   84SOPE  C218 7800   2.049   3.601   4.149
   84SOPE  H18R 7801   2.012   3.508   4.174
   84SOPE  H18S 7802   2.079   3.575   4.048
   84SOPE  H18T 7803   1.967   3.669   4.144
   84SOPE   C33 7804   2.285   4.127   2.905
   84SOPE   H3X 7805   2.336   4.155   3.001
   84SOPE   H3Y 7806   2.259   4.023   2.878
   84SOPE   C34 7807   2.153   4.154   2.952
   84SOPE   H4X 7808   2.151   4.055   3.012
   84SOPE   H4Y 7809   2.175   4.264   2.966
   84SOPE   C35 7810   2.056   4.114   3.056
   84SOPE   H5X 7811   1.965   4.072   3.006
   84SOPE   H5Y 7812   1.973   4.170   3.058
   84SOPE   C36 7813   2.120   4.162   3.188
   84SOPE   H6X 7814   2.168   4.261   3.197
   84SOPE   H6Y 7815   2.201   4.085   3.197
   84SOPE   C37 7816   2.033   4.150   3.306
   84SOPE   H7X 7817   2.011   4.062   3.259
   84SOPE   H7Y 7818   1.932   4.193   3.306
   84SOPE   C38 7819   2.111   4.121   3.433
   84SOPE   H8X 7820   2.155   4.220   3.447
   84SOPE   H8Y 7821   2.182   4.038   3.412
   84SOPE   C39 7822   2.049   4.097   3.569
   84SOPE   H9X 7823   2.021   3.994   3.592
   84SOPE   H9Y 7824   1.959   4.162   3.579
   84SOPE  C310 7825   2.138   4.084   3.685
   84SOPE  H10X 7826   2.161   4.189   3.697
   84SOPE  H10Y 7827   2.216   4.012   3.651
   84SOPE  C311 7828   2.067   4.031   3.808
   84SOPE  H11X 7829   2.128   3.969   3.873
   84SOPE  H11Y 7830   2.006   3.948   3.770
   84SOPE  C312 7831   1.991   4.144   3.881
   84SOPE  H12X 7832   1.914   4.196   3.818
   84SOPE  H12Y 7833   2.055   4.222   3.922
   84SOPE  C313 7834   1.929   4.105   4.009
   84SOPE  H13X 7835   1.893   3.998   4.007
   84SOPE  H13Y 7836   1.850   4.177   4.050
   84SOPE  C314 7837   1.984   4.012   4.099
   84SOPE  H14X 7838   2.016   3.902   4.077
   84SOPE  H14Y 7839   1.904   4.047   4.176
   84SOPE  C315 7840   2.084   4.050   4.162
   84SOPE  H15X 7841   2.064   4.157   4.134
   84SOPE  H15Y 7842   2.175   4.045   4.115
   84SOPE  C316 7843   2.078   4.001   4.307
   84SOPE  H16X 7844   2.033   3.905   4.335
   84SOPE  H16Y 7845   1.965   4.018   4.335
   84SOPE  C317 7846   2.204   4.103   4.390
   84SOPE  H17X 7847   2.265   4.072   4.322
   84SOPE  H17Y 7848   2.211   4.052   4.486
   84SOPE  C318 7849   2.238   4.283   4.411
   84SOPE  H18X 7850   2.223   4.351   4.325
   84SOPE  H18Y 7851   2.289   4.327   4.496
   84SOPE  H18Z 7852   2.146   4.341   4.456
   85SOPE     N 7853   5.166   4.910   2.266
   85SOPE   HN1 7854   5.208   4.899   2.171
   85SOPE   HN2 7855   5.125   5.005   2.272
   85SOPE   HN3 7856   5.243   4.905   2.336
   85SOPE   C12 7857   5.062   4.802   2.286
   85SOPE  H12A 7858   5.019   4.812   2.388
   85SOPE  H12B 7859   5.116   4.705   2.279
   85SOPE   C11 7860   4.950   4.812   2.180
   85SOPE  H11A 7861   4.878   4.727   2.190
   85SOPE  H11B 7862   4.992   4.801   2.077
   85SOPE     P 7863   4.868   5.048   2.090
   85SOPE   O13 7864   4.819   4.991   1.963
   85SOPE   O14 7865   4.999   5.118   2.085
   85SOPE   O12 7866   4.881   4.934   2.198
   85SOPE   O11 7867   4.760   5.142   2.153
   85SOPE    C1 7868   4.660   5.091   2.240
   85SOPE    HA 7869   4.647   4.980   2.231
   85SOPE    HB 7870   4.563   5.134   2.210
   85SOPE    C2 7871   4.681   5.129   2.390
   85SOPE    HS 7872   4.644   5.234   2.405
   85SOPE   O21 7873   4.817   5.114   2.429
   85SOPE   C21 7874   4.896   5.218   2.430
   85SOPE   O22 7875   4.869   5.334   2.406
   85SOPE   C22 7876   5.033   5.168   2.476
   85SOPE   H2R 7877   5.095   5.255   2.503
   85SOPE   H2S 7878   5.082   5.115   2.393
   85SOPE    C3 7879   4.598   5.035   2.478
   85SOPE    HX 7880   4.499   5.037   2.432
   85SOPE    HY 7881   4.595   5.069   2.584
   85SOPE   O31 7882   4.638   4.898   2.464
   85SOPE   C31 7883   4.732   4.853   2.542
   85SOPE   O32 7884   4.779   4.908   2.640
   85SOPE   C32 7885   4.759   4.709   2.489
   85SOPE   H2X 7886   4.791   4.719   2.385
   85SOPE   H2Y 7887   4.664   4.661   2.465
   85SOPE   C23 7888   5.025   5.075   2.599
   85SOPE   H3R 7889   5.003   4.970   2.566
   85SOPE   H3S 7890   4.941   5.104   2.666
   85SOPE   C24 7891   5.157   5.076   2.676
   85SOPE   H4R 7892   5.232   5.032   2.607
   85SOPE   H4S 7893   5.190   5.177   2.707
   85SOPE   C25 7894   5.142   5.001   2.806
   85SOPE   H5R 7895   5.046   5.023   2.857
   85SOPE   H5S 7896   5.112   4.902   2.779
   85SOPE   C26 7897   5.254   5.013   2.909
   85SOPE   H6R 7898   5.208   4.967   2.996
   85SOPE   H6S 7899   5.351   4.964   2.892
   85SOPE   C27 7900   5.272   5.151   2.967
   85SOPE   H7R 7901   5.370   5.190   2.932
   85SOPE   H7S 7902   5.188   5.209   2.925
   85SOPE   C28 7903   5.264   5.157   3.119
   85SOPE   H8R 7904   5.281   5.262   3.145
   85SOPE   H8S 7905   5.162   5.130   3.157
   85SOPE   C29 7906   5.378   5.091   3.188
   85SOPE   H91 7907   5.464   5.065   3.127
   85SOPE  C210 7908   5.367   5.037   3.306
   85SOPE  H101 7909   5.448   4.974   3.348
   85SOPE  C211 7910   5.240   5.033   3.382
   85SOPE  H11R 7911   5.253   4.943   3.430
   85SOPE  H11S 7912   5.142   4.997   3.342
   85SOPE  C212 7913   5.247   5.115   3.500
   85SOPE  H12R 7914   5.255   5.212   3.452
   85SOPE  H12S 7915   5.335   5.094   3.566
   85SOPE  C213 7916   5.120   5.097   3.570
   85SOPE  H13R 7917   5.113   5.010   3.640
   85SOPE  H13S 7918   5.030   5.096   3.502
   85SOPE  C214 7919   5.117   5.216   3.654
   85SOPE  H14R 7920   5.088   5.299   3.588
   85SOPE  H14S 7921   5.208   5.251   3.705
   85SOPE  C215 7922   5.023   5.171   3.758
   85SOPE  H15R 7923   5.017   5.079   3.815
   85SOPE  H15S 7924   4.928   5.170   3.697
   85SOPE  C216 7925   5.049   5.262   3.873
   85SOPE  H16R 7926   4.944   5.249   3.916
   85SOPE  H16S 7927   5.082   5.365   3.838
   85SOPE  C217 7928   5.146   5.260   3.982
   85SOPE  H17R 7929   5.146   5.162   4.000
   85SOPE  H17S 7930   5.111   5.278   4.085
   85SOPE  C218 7931   5.255   5.365   3.973
   85SOPE  H18R 7932   5.234   5.469   4.008
   85SOPE  H18S 7933   5.287   5.386   3.869
   85SOPE  H18T 7934   5.328   5.331   4.047
   85SOPE   C33 7935   4.861   4.620   2.569
   85SOPE   H3X 7936   4.946   4.685   2.588
   85SOPE   H3Y 7937   4.872   4.528   2.508
   85SOPE   C34 7938   4.838   4.552   2.703
   85SOPE   H4X 7939   4.768   4.478   2.683
   85SOPE   H4Y 7940   4.796   4.620   2.767
   85SOPE   C35 7941   4.940   4.511   2.809
   85SOPE   H5X 7942   5.005   4.449   2.750
   85SOPE   H5Y 7943   4.901   4.455   2.898
   85SOPE   C36 7944   4.994   4.636   2.873
   85SOPE   H6X 7945   4.996   4.715   2.796
   85SOPE   H6Y 7946   5.086   4.610   2.919
   85SOPE   C37 7947   4.913   4.699   2.981
   85SOPE   H7X 7948   4.869   4.617   3.032
   85SOPE   H7Y 7949   4.841   4.753   2.922
   85SOPE   C38 7950   4.973   4.788   3.085
   85SOPE   H8X 7951   4.915   4.839   3.158
   85SOPE   H8Y 7952   5.029   4.871   3.041
   85SOPE   C39 7953   5.042   4.703   3.178
   85SOPE   H9X 7954   5.077   4.762   3.262
   85SOPE   H9Y 7955   5.103   4.651   3.103
   85SOPE  C310 7956   4.999   4.582   3.238
   85SOPE  H10X 7957   4.979   4.496   3.166
   85SOPE  H10Y 7958   4.925   4.625   3.310
   85SOPE  C311 7959   5.070   4.523   3.345
   85SOPE  H11X 7960   5.136   4.456   3.288
   85SOPE  H11Y 7961   4.983   4.476   3.385
   85SOPE  C312 7962   5.098   4.601   3.469
   85SOPE  H12X 7963   5.048   4.696   3.490
   85SOPE  H12Y 7964   5.161   4.643   3.395
   85SOPE  C313 7965   5.161   4.527   3.591
   85SOPE  H13X 7966   5.260   4.476   3.576
   85SOPE  H13Y 7967   5.103   4.459   3.655
   85SOPE  C314 7968   5.145   4.595   3.710
   85SOPE  H14X 7969   5.085   4.683   3.696
   85SOPE  H14Y 7970   5.232   4.617   3.658
   85SOPE  C315 7971   5.196   4.556   3.846
   85SOPE  H15X 7972   5.304   4.526   3.848
   85SOPE  H15Y 7973   5.151   4.461   3.873
   85SOPE  C316 7974   5.130   4.663   3.941
   85SOPE  H16X 7975   5.163   4.641   4.045
   85SOPE  H16Y 7976   5.024   4.642   3.933
   85SOPE  C317 7977   5.150   4.817   3.924
   85SOPE  H17X 7978   5.129   4.857   3.822
   85SOPE  H17Y 7979   5.246   4.856   3.960
   85SOPE  C318 7980   5.090   4.912   4.018
   85SOPE  H18X 7981   4.992   4.928   3.972
   85SOPE  H18Y 7982   5.156   4.999   4.011
   85SOPE  H18Z 7983   5.103   4.868   4.118
   86SOPE     N 7984   5.494   0.899   1.975
   86SOPE   HN1 7985   5.582   0.933   1.934
   86SOPE   HN2 7986   5.490   0.796   1.965
   86SOPE   HN3 7987   5.415   0.942   1.923
   86SOPE   C12 7988   5.499   0.936   2.121
   86SOPE  H12A 7989   5.576   0.871   2.167
   86SOPE  H12B 7990   5.400   0.920   2.169
   86SOPE   C11 7991   5.542   1.081   2.138
   86SOPE  H11A 7992   5.637   1.097   2.084
   86SOPE  H11B 7993   5.565   1.097   2.247
   86SOPE     P 7994   5.352   1.247   2.198
   86SOPE   O13 7995   5.301   1.148   2.295
   86SOPE   O14 7996   5.254   1.334   2.128
   86SOPE   O12 7997   5.438   1.166   2.087
   86SOPE   O11 7998   5.465   1.332   2.266
   86SOPE    C1 7999   5.566   1.410   2.202
   86SOPE    HA 8000   5.520   1.476   2.123
   86SOPE    HB 8001   5.637   1.344   2.147
   86SOPE    C2 8002   5.641   1.505   2.308
   86SOPE    HS 8003   5.726   1.549   2.250
   86SOPE   O21 8004   5.690   1.464   2.441
   86SOPE   C21 8005   5.760   1.359   2.438
   86SOPE   O22 8006   5.777   1.292   2.341
   86SOPE   C22 8007   5.818   1.293   2.562
   86SOPE   H2R 8008   5.888   1.355   2.619
   86SOPE   H2S 8009   5.871   1.196   2.536
   86SOPE    C3 8010   5.547   1.615   2.348
   86SOPE    HX 8011   5.517   1.671   2.257
   86SOPE    HY 8012   5.599   1.686   2.415
   86SOPE   O31 8013   5.435   1.549   2.412
   86SOPE   C31 8014   5.444   1.515   2.541
   86SOPE   O32 8015   5.532   1.554   2.616
   86SOPE   C32 8016   5.328   1.423   2.585
   86SOPE   H2X 8017   5.353   1.319   2.552
   86SOPE   H2Y 8018   5.234   1.452   2.535
   86SOPE   C23 8019   5.702   1.229   2.620
   86SOPE   H3R 8020   5.666   1.146   2.553
   86SOPE   H3S 8021   5.624   1.308   2.626
   86SOPE   C24 8022   5.744   1.178   2.754
   86SOPE   H4R 8023   5.818   1.096   2.749
   86SOPE   H4S 8024   5.792   1.261   2.812
   86SOPE   C25 8025   5.616   1.132   2.817
   86SOPE   H5R 8026   5.544   1.217   2.815
   86SOPE   H5S 8027   5.569   1.048   2.762
   86SOPE   C26 8028   5.650   1.087   2.956
   86SOPE   H6R 8029   5.717   0.999   2.947
   86SOPE   H6S 8030   5.708   1.169   3.005
   86SOPE   C27 8031   5.525   1.064   3.040
   86SOPE   H7R 8032   5.468   1.159   3.038
   86SOPE   H7S 8033   5.459   0.986   2.995
   86SOPE   C28 8034   5.566   1.024   3.183
   86SOPE   H8R 8035   5.480   0.981   3.239
   86SOPE   H8S 8036   5.638   0.940   3.169
   86SOPE   C29 8037   5.623   1.145   3.254
   86SOPE   H91 8038   5.578   1.241   3.223
   86SOPE  C210 8039   5.719   1.145   3.347
   86SOPE  H101 8040   5.756   1.241   3.388
   86SOPE  C211 8041   5.789   1.023   3.400
   86SOPE  H11R 8042   5.891   1.048   3.433
   86SOPE  H11S 8043   5.802   0.948   3.319
   86SOPE  C212 8044   5.711   0.960   3.517
   86SOPE  H12R 8045   5.753   0.858   3.531
   86SOPE  H12S 8046   5.602   0.953   3.496
   86SOPE  C213 8047   5.719   1.037   3.649
   86SOPE  H13R 8048   5.667   1.134   3.645
   86SOPE  H13S 8049   5.821   1.059   3.672
   86SOPE  C214 8050   5.670   0.959   3.770
   86SOPE  H14R 8051   5.720   0.860   3.771
   86SOPE  H14S 8052   5.560   0.948   3.761
   86SOPE  C215 8053   5.700   1.036   3.898
   86SOPE  H15R 8054   5.629   1.121   3.908
   86SOPE  H15S 8055   5.802   1.079   3.889
   86SOPE  C216 8056   5.695   0.947   4.022
   86SOPE  H16R 8057   5.712   1.008   4.115
   86SOPE  H16S 8058   5.771   0.868   4.019
   86SOPE  C217 8059   5.565   0.878   4.043
   86SOPE  H17R 8060   5.577   0.804   4.126
   86SOPE  H17S 8061   5.517   0.826   3.958
   86SOPE  C218 8062   5.478   0.983   4.094
   86SOPE  H18R 8063   5.411   1.031   4.018
   86SOPE  H18S 8064   5.524   1.059   4.159
   86SOPE  H18T 8065   5.427   0.924   4.171
   86SOPE   C33 8066   5.313   1.411   2.739
   86SOPE   H3X 8067   5.406   1.448   2.788
   86SOPE   H3Y 8068   5.307   1.304   2.766
   86SOPE   C34 8069   5.183   1.465   2.801
   86SOPE   H4X 8070   5.092   1.422   2.758
   86SOPE   H4Y 8071   5.159   1.568   2.779
   86SOPE   C35 8072   5.180   1.445   2.952
   86SOPE   H5X 8073   5.156   1.341   2.976
   86SOPE   H5Y 8074   5.094   1.508   2.989
   86SOPE   C36 8075   5.315   1.466   3.028
   86SOPE   H6X 8076   5.377   1.560   3.024
   86SOPE   H6Y 8077   5.398   1.402   3.006
   86SOPE   C37 8078   5.277   1.480   3.168
   86SOPE   H7X 8079   5.219   1.572   3.131
   86SOPE   H7Y 8080   5.364   1.496   3.235
   86SOPE   C38 8081   5.170   1.403   3.237
   86SOPE   H8X 8082   5.191   1.305   3.192
   86SOPE   H8Y 8083   5.072   1.447   3.207
   86SOPE   C39 8084   5.177   1.406   3.391
   86SOPE   H9X 8085   5.150   1.504   3.435
   86SOPE   H9Y 8086   5.281   1.385   3.424
   86SOPE  C310 8087   5.076   1.314   3.456
   86SOPE  H10X 8088   4.973   1.347   3.441
   86SOPE  H10Y 8089   5.086   1.318   3.566
   86SOPE  C311 8090   5.087   1.171   3.414
   86SOPE  H11X 8091   5.092   1.155   3.303
   86SOPE  H11Y 8092   4.993   1.122   3.448
   86SOPE  C312 8093   5.219   1.118   3.475
   86SOPE  H12X 8094   5.306   1.167   3.431
   86SOPE  H12Y 8095   5.238   1.023   3.428
   86SOPE  C313 8096   5.233   1.103   3.630
   86SOPE  H13X 8097   5.243   1.206   3.667
   86SOPE  H13Y 8098   5.311   1.028   3.654
   86SOPE  C314 8099   5.117   1.062   3.718
   86SOPE  H14X 8100   5.112   0.952   3.729
   86SOPE  H14Y 8101   5.028   1.103   3.666
   86SOPE  C315 8102   5.128   1.061   3.865
   86SOPE  H15X 8103   5.155   1.165   3.883
   86SOPE  H15Y 8104   5.197   0.977   3.894
   86SOPE  C316 8105   5.000   1.045   3.935
   86SOPE  H16X 8106   4.947   0.954   3.926
   86SOPE  H16Y 8107   4.930   1.128   3.924
   86SOPE  C317 8108   5.008   0.993   4.060
   86SOPE  H17X 8109   4.929   1.001   4.122
   86SOPE  H17Y 8110   5.034   1.089   4.107
   86SOPE  C318 8111   5.062   0.849   4.081
   86SOPE  H18X 8112   5.014   0.759   4.040
   86SOPE  H18Y 8113   5.040   0.857   4.189
   86SOPE  H18Z 8114   5.168   0.827   4.068
   87SOPE     N 8115   6.047   0.681   1.975
   87SOPE   HN1 8116   6.095   0.599   1.933
   87SOPE   HN2 8117   5.944   0.672   1.965
   87SOPE   HN3 8118   6.080   0.767   1.925
   87SOPE   C12 8119   6.082   0.682   2.121
   87SOPE  H12A 8120   6.028   0.597   2.167
   87SOPE  H12B 8121   6.051   0.777   2.169
   87SOPE   C11 8122   6.230   0.662   2.140
   87SOPE  H11A 8123   6.262   0.572   2.084
   87SOPE  H11B 8124   6.251   0.642   2.248
   87SOPE     P 8125   6.352   0.886   2.193
   87SOPE   O13 8126   6.250   0.922   2.294
   87SOPE   O14 8127   6.432   0.989   2.127
   87SOPE   O12 8128   6.294   0.779   2.089
   87SOPE   O11 8129   6.448   0.803   2.267
   87SOPE    C1 8130   6.539   0.725   2.196
   87SOPE    HA 8131   6.603   0.769   2.115
   87SOPE    HB 8132   6.496   0.629   2.153
   87SOPE    C2 8133   6.637   0.704   2.300
   87SOPE    HS 8134   6.713   0.647   2.322
   87SOPE   O21 8135   6.545   0.617   2.368
   87SOPE   C21 8136   6.504   0.480   2.365
   87SOPE   O22 8137   6.520   0.412   2.269
   87SOPE   C22 8138   6.439   0.418   2.501
   87SOPE   H2R 8139   6.511   0.342   2.545
   87SOPE   H2S 8140   6.384   0.324   2.494
   87SOPE    C3 8141   6.725   0.797   2.378
   87SOPE    HX 8142   6.778   0.829   2.288
   87SOPE    HY 8143   6.824   0.771   2.427
   87SOPE   O31 8144   6.655   0.893   2.430
   87SOPE   C31 8145   6.638   0.849   2.550
   87SOPE   O32 8146   6.716   0.786   2.618
   87SOPE   C32 8147   6.526   0.925   2.592
   87SOPE   H2X 8148   6.432   0.882   2.553
   87SOPE   H2Y 8149   6.540   1.020   2.538
   87SOPE   C23 8150   6.370   0.537   2.596
   87SOPE   H3R 8151   6.284   0.554   2.535
   87SOPE   H3S 8152   6.419   0.633   2.590
   87SOPE   C24 8153   6.332   0.544   2.754
   87SOPE   H4R 8154   6.251   0.478   2.776
   87SOPE   H4S 8155   6.391   0.510   2.839
   87SOPE   C25 8156   6.273   0.646   2.830
   87SOPE   H5R 8157   6.363   0.711   2.821
   87SOPE   H5S 8158   6.186   0.659   2.763
   87SOPE   C26 8159   6.245   0.573   2.965
   87SOPE   H6R 8160   6.171   0.489   2.956
   87SOPE   H6S 8161   6.335   0.525   3.015
   87SOPE   C27 8162   6.209   0.690   3.042
   87SOPE   H7R 8163   6.301   0.752   3.032
   87SOPE   H7S 8164   6.121   0.736   2.994
   87SOPE   C28 8165   6.182   0.654   3.178
   87SOPE   H8R 8166   6.124   0.721   3.242
   87SOPE   H8S 8167   6.108   0.573   3.161
   87SOPE   C29 8168   6.319   0.624   3.234
   87SOPE   H91 8169   6.412   0.669   3.204
   87SOPE  C210 8170   6.325   0.554   3.339
   87SOPE  H101 8171   6.410   0.511   3.390
   87SOPE  C211 8172   6.214   0.509   3.395
   87SOPE  H11R 8173   6.278   0.418   3.388
   87SOPE  H11S 8174   6.142   0.487   3.318
   87SOPE  C212 8175   6.146   0.551   3.525
   87SOPE  H12R 8176   6.054   0.518   3.575
   87SOPE  H12S 8177   6.100   0.643   3.493
   87SOPE  C213 8178   6.223   0.530   3.650
   87SOPE  H13R 8179   6.313   0.584   3.649
   87SOPE  H13S 8180   6.271   0.439   3.644
   87SOPE  C214 8181   6.142   0.541   3.778
   87SOPE  H14R 8182   6.052   0.478   3.777
   87SOPE  H14S 8183   6.101   0.642   3.772
   87SOPE  C215 8184   6.225   0.518   3.904
   87SOPE  H15R 8185   6.299   0.598   3.907
   87SOPE  H15S 8186   6.279   0.420   3.907
   87SOPE  C216 8187   6.149   0.521   4.035
   87SOPE  H16R 8188   6.206   0.491   4.124
   87SOPE  H16S 8189   6.101   0.431   4.033
   87SOPE  C217 8190   6.043   0.627   4.052
   87SOPE  H17R 8191   5.970   0.593   4.130
   87SOPE  H17S 8192   5.982   0.652   3.962
   87SOPE  C218 8193   6.123   0.742   4.106
   87SOPE  H18R 8194   6.166   0.801   4.023
   87SOPE  H18S 8195   6.204   0.695   4.167
   87SOPE  H18T 8196   6.064   0.805   4.175
   87SOPE   C33 8197   6.526   0.923   2.742
   87SOPE   H3X 8198   6.577   0.837   2.789
   87SOPE   H3Y 8199   6.420   0.917   2.771
   87SOPE   C34 8200   6.580   1.046   2.806
   87SOPE   H4X 8201   6.543   1.140   2.772
   87SOPE   H4Y 8202   6.652   1.086   2.753
   87SOPE   C35 8203   6.551   1.067   2.947
   87SOPE   H5X 8204   6.448   1.058   2.944
   87SOPE   H5Y 8205   6.553   1.170   2.991
   87SOPE   C36 8206   6.586   0.947   3.023
   87SOPE   H6X 8207   6.684   0.935   2.983
   87SOPE   H6Y 8208   6.540   0.853   3.002
   87SOPE   C37 8209   6.619   0.964   3.163
   87SOPE   H7X 8210   6.680   1.052   3.146
   87SOPE   H7Y 8211   6.657   0.879   3.219
   87SOPE   C38 8212   6.538   1.038   3.255
   87SOPE   H8X 8213   6.470   0.961   3.216
   87SOPE   H8Y 8214   6.530   1.141   3.214
   87SOPE   C39 8215   6.520   1.018   3.401
   87SOPE   H9X 8216   6.600   1.082   3.436
   87SOPE   H9Y 8217   6.509   0.917   3.434
   87SOPE  C310 8218   6.403   1.065   3.492
   87SOPE  H10X 8219   6.466   1.164   3.498
   87SOPE  H10Y 8220   6.456   1.086   3.586
   87SOPE  C311 8221   6.212   1.084   3.475
   87SOPE  H11X 8222   6.153   1.160   3.397
   87SOPE  H11Y 8223   6.150   1.182   3.466
   87SOPE  C312 8224   6.155   0.968   3.492
   87SOPE  H12X 8225   6.234   0.899   3.455
   87SOPE  H12Y 8226   6.063   0.960   3.433
   87SOPE  C313 8227   6.158   0.973   3.640
   87SOPE  H13X 8228   6.263   0.964   3.676
   87SOPE  H13Y 8229   6.113   0.876   3.663
   87SOPE  C314 8230   6.088   1.092   3.710
   87SOPE  H14X 8231   5.989   1.096   3.673
   87SOPE  H14Y 8232   6.102   1.199   3.698
   87SOPE  C315 8233   6.111   1.084   3.859
   87SOPE  H15X 8234   6.220   1.064   3.873
   87SOPE  H15Y 8235   6.058   0.993   3.890
   87SOPE  C316 8236   6.064   1.211   3.933
   87SOPE  H16X 8237   5.971   1.250   3.887
   87SOPE  H16Y 8238   6.131   1.300   3.927
   87SOPE  C317 8239   6.053   1.189   4.082
   87SOPE  H17X 8240   6.044   1.289   4.130
   87SOPE  H17Y 8241   6.145   1.140   4.122
   87SOPE  C318 8242   5.933   1.110   4.122
   87SOPE  H18X 8243   5.844   1.155   4.072
   87SOPE  H18Y 8244   5.917   1.118   4.231
   87SOPE  H18Z 8245   5.940   1.002   4.092
   88SOPE     N 8246   0.288   1.377   2.158
   88SOPE   HN1 8247   0.373   1.376   2.097
   88SOPE   HN2 8248   0.308   1.437   2.241
   88SOPE   HN3 8249   0.266   1.281   2.193
   88SOPE   C12 8250   0.171   1.446   2.092
   88SOPE  H12A 8251   0.086   1.437   2.163
   88SOPE  H12B 8252   0.150   1.393   1.997
   88SOPE   C11 8253   0.189   1.597   2.069
   88SOPE  H11A 8254   0.087   1.633   2.041
   88SOPE  H11B 8255   0.256   1.621   1.983
   88SOPE     P 8256   0.239   1.825   2.168
   88SOPE   O13 8257   0.103   1.881   2.168
   88SOPE   O14 8258   0.321   1.840   2.046
   88SOPE   O12 8259   0.229   1.665   2.189
   88SOPE   O11 8260   0.321   1.876   2.294
   88SOPE    C1 8261   0.451   1.825   2.319
   88SOPE    HA 8262   0.500   1.894   2.391
   88SOPE    HB 8263   0.513   1.823   2.227
   88SOPE    C2 8264   0.449   1.683   2.381
   88SOPE    HS 8265   0.438   1.613   2.295
   88SOPE   O21 8266   0.337   1.669   2.470
   88SOPE   C21 8267   0.310   1.548   2.509
   88SOPE   O22 8268   0.381   1.449   2.494
   88SOPE   C22 8269   0.167   1.544   2.556
   88SOPE   H2R 8270   0.110   1.481   2.485
   88SOPE   H2S 8271   0.122   1.645   2.552
   88SOPE    C3 8272   0.581   1.658   2.453
   88SOPE    HX 8273   0.669   1.687   2.396
   88SOPE    HY 8274   0.590   1.552   2.486
   88SOPE   O31 8275   0.577   1.749   2.559
   88SOPE   C31 8276   0.646   1.705   2.653
   88SOPE   O32 8277   0.744   1.631   2.644
   88SOPE   C32 8278   0.589   1.770   2.779
   88SOPE   H2X 8279   0.582   1.882   2.752
   88SOPE   H2Y 8280   0.662   1.740   2.858
   88SOPE   C23 8281   0.166   1.491   2.699
   88SOPE   H3R 8282   0.213   1.558   2.772
   88SOPE   H3S 8283   0.227   1.397   2.701
   88SOPE   C24 8284   0.023   1.476   2.750
   88SOPE   H4R 8285  -0.044   1.561   2.742
   88SOPE   H4S 8286  -0.021   1.390   2.691
   88SOPE   C25 8287   0.018   1.452   2.901
   88SOPE   H5R 8288  -0.084   1.410   2.916
   88SOPE   H5S 8289   0.111   1.394   2.930
   88SOPE   C26 8290   0.046   1.534   3.021
   88SOPE   H6R 8291   0.149   1.572   3.006
   88SOPE   H6S 8292  -0.035   1.607   3.012
   88SOPE   C27 8293   0.031   1.453   3.154
   88SOPE   H7R 8294  -0.062   1.391   3.155
   88SOPE   H7S 8295   0.114   1.380   3.174
   88SOPE   C28 8296   0.020   1.546   3.273
   88SOPE   H8R 8297  -0.073   1.606   3.258
   88SOPE   H8S 8298   0.008   1.486   3.365
   88SOPE   C29 8299   0.139   1.636   3.284
   88SOPE   H91 8300   0.170   1.688   3.192
   88SOPE  C210 8301   0.205   1.659   3.398
   88SOPE  H101 8302   0.290   1.723   3.389
   88SOPE  C211 8303   0.183   1.607   3.537
   88SOPE  H11R 8304   0.278   1.617   3.594
   88SOPE  H11S 8305   0.160   1.499   3.539
   88SOPE  C212 8306   0.077   1.685   3.615
   88SOPE  H12R 8307  -0.017   1.700   3.556
   88SOPE  H12S 8308   0.112   1.788   3.637
   88SOPE  C213 8309   0.044   1.609   3.744
   88SOPE  H13R 8310   0.131   1.600   3.813
   88SOPE  H13S 8311   0.005   1.509   3.716
   88SOPE  C214 8312  -0.063   1.680   3.821
   88SOPE  H14R 8313  -0.121   1.611   3.887
   88SOPE  H14S 8314  -0.132   1.703   3.740
   88SOPE  C215 8315  -0.007   1.804   3.891
   88SOPE  H15R 8316  -0.078   1.891   3.900
   88SOPE  H15S 8317   0.068   1.861   3.835
   88SOPE  C216 8318   0.043   1.765   4.029
   88SOPE  H16R 8319   0.135   1.705   4.022
   88SOPE  H16S 8320  -0.029   1.706   4.092
   88SOPE  C217 8321   0.078   1.894   4.094
   88SOPE  H17R 8322  -0.010   1.963   4.098
   88SOPE  H17S 8323   0.160   1.944   4.042
   88SOPE  C218 8324   0.127   1.872   4.228
   88SOPE  H18R 8325   0.075   1.953   4.286
   88SOPE  H18S 8326   0.235   1.877   4.245
   88SOPE  H18T 8327   0.114   1.769   4.266
   88SOPE   C33 8328   0.455   1.828   2.818
   88SOPE   H3X 8329   0.414   1.733   2.787
   88SOPE   H3Y 8330   0.409   1.911   2.758
   88SOPE   C34 8331   0.467   1.873   2.966
   88SOPE   H4X 8332   0.542   1.805   3.016
   88SOPE   H4Y 8333   0.365   1.861   3.003
   88SOPE   C35 8334   0.501   2.022   3.003
   88SOPE   H5X 8335   0.502   2.095   2.922
   88SOPE   H5Y 8336   0.602   2.038   3.037
   88SOPE   C36 8337   0.454   2.061   3.137
   88SOPE   H6X 8338   0.348   2.048   3.128
   88SOPE   H6Y 8339   0.492   2.163   3.165
   88SOPE   C37 8340   0.506   1.967   3.240
   88SOPE   H7X 8341   0.604   2.020   3.237
   88SOPE   H7Y 8342   0.521   1.860   3.216
   88SOPE   C38 8343   0.432   1.979   3.372
   88SOPE   H8X 8344   0.325   1.988   3.352
   88SOPE   H8Y 8345   0.460   2.081   3.407
   88SOPE   C39 8346   0.457   1.860   3.473
   88SOPE   H9X 8347   0.564   1.846   3.482
   88SOPE   H9Y 8348   0.453   1.760   3.432
   88SOPE  C310 8349   0.402   1.885   3.617
   88SOPE  H10X 8350   0.298   1.854   3.622
   88SOPE  H10Y 8351   0.395   1.996   3.634
   88SOPE  C311 8352   0.476   1.826   3.740
   88SOPE  H11X 8353   0.586   1.839   3.741
   88SOPE  H11Y 8354   0.472   1.717   3.746
   88SOPE  C312 8355   0.415   1.887   3.869
   88SOPE  H12X 8356   0.468   1.836   3.952
   88SOPE  H12Y 8357   0.313   1.858   3.885
   88SOPE  C313 8358   0.409   2.042   3.885
   88SOPE  H13X 8359   0.351   2.098   3.811
   88SOPE  H13Y 8360   0.513   2.057   3.855
   88SOPE  C314 8361   0.394   2.104   4.028
   88SOPE  H14X 8362   0.461   2.076   4.106
   88SOPE  H14Y 8363   0.319   2.046   4.079
   88SOPE  C315 8364   0.408   2.257   4.061
   88SOPE  H15X 8365   0.496   2.317   4.034
   88SOPE  H15Y 8366   0.411   2.255   4.171
   88SOPE  C316 8367   0.298   2.335   4.015
   88SOPE  H16X 8368   0.297   2.326   3.904
   88SOPE  H16Y 8369   0.309   2.441   4.045
   88SOPE  C317 8370   0.191   2.255   4.079
   88SOPE  H17X 8371   0.168   2.270   4.187
   88SOPE  H17Y 8372   0.180   2.150   4.050
   88SOPE  C318 8373   0.087   2.249   3.986
   88SOPE  H18X 8374   0.083   2.349   3.986
   88SOPE  H18Y 8375  -0.005   2.221   4.036
   88SOPE  H18Z 8376   0.090   2.300   3.889
   89SAPC     N 8377   4.628   4.024   6.399
   89SAPC   C12 8378   4.582   4.054   6.257
   89SAPC  H12A 8379   4.633   4.141   6.219
   89SAPC  H12B 8380   4.478   4.082   6.266
   89SAPC   C13 8381   4.606   4.148   6.475
   89SAPC  H13A 8382   4.503   4.178   6.466
   89SAPC  H13B 8383   4.625   4.130   6.581
   89SAPC  H13C 8384   4.672   4.226   6.441
   89SAPC   C14 8385   4.537   3.920   6.459
   89SAPC  H14A 8386   4.552   3.910   6.565
   89SAPC  H14B 8387   4.434   3.946   6.441
   89SAPC  H14C 8388   4.551   3.823   6.410
   89SAPC   C15 8389   4.772   3.991   6.398
   89SAPC  H15A 8390   4.789   3.889   6.365
   89SAPC  H15B 8391   4.818   4.055   6.324
   89SAPC  H15C 8392   4.818   4.008   6.495
   89SAPC   C11 8393   4.604   3.944   6.153
   89SAPC  H11A 8394   4.703   3.958   6.106
   89SAPC  H11B 8395   4.529   3.953   6.070
   89SAPC     P 8396   4.618   3.693   6.127
   89SAPC   O13 8397   4.675   3.584   6.209
   89SAPC   O14 8398   4.491   3.695   6.056
   89SAPC   O12 8399   4.603   3.817   6.217
   89SAPC   O11 8400   4.735   3.734   6.027
   89SAPC    C1 8401   4.867   3.716   6.080
   89SAPC    HA 8402   4.879   3.776   6.173
   89SAPC    HB 8403   4.886   3.609   6.105
   89SAPC    C2 8404   4.980   3.759   5.982
   89SAPC    HS 8405   5.070   3.768   6.038
   89SAPC   O21 8406   4.960   3.880   5.910
   89SAPC   C21 8407   4.974   3.989   5.980
   89SAPC   O22 8408   5.018   3.998   6.093
   89SAPC   C22 8409   4.931   4.104   5.890
   89SAPC   H2R 8410   4.958   4.195   5.948
   89SAPC   H2S 8411   4.994   4.104   5.798
   89SAPC    C3 8412   5.011   3.648   5.881
   89SAPC    HX 8413   5.029   3.556   5.939
   89SAPC    HY 8414   5.099   3.675   5.821
   89SAPC   O31 8415   4.910   3.625   5.792
   89SAPC   C31 8416   4.882   3.498   5.767
   89SAPC   O32 8417   4.912   3.398   5.826
   89SAPC   C32 8418   4.783   3.505   5.674
   89SAPC   H2X 8419   4.729   3.530   5.767
   89SAPC   H2Y 8420   4.721   3.415   5.648
   89SAPC   C23 8421   4.778   4.103   5.860
   89SAPC   H3R 8422   4.752   4.200   5.812
   89SAPC   H3S 8423   4.723   4.097   5.956
   89SAPC   C24 8424   4.722   3.991   5.768
   89SAPC   H4R 8425   4.750   3.889   5.804
   89SAPC   H4S 8426   4.771   4.007   5.670
   89SAPC   C25 8427   4.572   3.989   5.752
   89SAPC   H5R 8428   4.513   3.999   5.846
   89SAPC   C26 8429   4.505   3.971   5.637
   89SAPC   H6R 8430   4.395   3.964   5.643
   89SAPC   C27 8431   4.563   3.949   5.497
   89SAPC   H7R 8432   4.546   3.848   5.460
   89SAPC   H7S 8433   4.673   3.961   5.496
   89SAPC   C28 8434   4.500   4.039   5.396
   89SAPC   H8R 8435   4.434   4.110   5.440
   89SAPC   C29 8436   4.470   4.027   5.268
   89SAPC   H9R 8437   4.422   4.112   5.216
   89SAPC  C210 8438   4.501   3.902   5.197
   89SAPC  H10R 8439   4.461   3.820   5.262
   89SAPC  H10S 8440   4.611   3.894   5.192
   89SAPC  C211 8441   4.433   3.892   5.064
   89SAPC  H11R 8442   4.329   3.859   5.074
   89SAPC  C212 8443   4.483   3.905   4.941
   89SAPC  H12R 8444   4.418   3.888   4.854
   89SAPC  C213 8445   4.623   3.934   4.900
   89SAPC  H13R 8446   4.677   4.004   4.966
   89SAPC  H13S 8447   4.620   3.980   4.798
   89SAPC  C214 8448   4.701   3.807   4.903
   89SAPC  H14R 8449   4.752   3.782   4.997
   89SAPC  C215 8450   4.704   3.718   4.807
   89SAPC  H15R 8451   4.786   3.647   4.809
   89SAPC  C216 8452   4.636   3.723   4.677
   89SAPC  H16R 8453   4.710   3.692   4.599
   89SAPC  H16S 8454   4.596   3.821   4.656
   89SAPC  C217 8455   4.506   3.649   4.663
   89SAPC  H17R 8456   4.431   3.626   4.741
   89SAPC  H17S 8457   4.534   3.557   4.660
   89SAPC  C218 8458   4.481   3.612   4.520
   89SAPC  H18R 8459   4.419   3.515   4.526
   89SAPC  H18S 8460   4.561   3.576   4.455
   89SAPC  C219 8461   4.442   3.746   4.470
   89SAPC  H19R 8462   4.492   3.837   4.494
   89SAPC  H19S 8463   4.365   3.766   4.556
   89SAPC  C220 8464   4.418   3.752   4.312
   89SAPC  H20R 8465   4.345   3.834   4.290
   89SAPC  H20S 8466   4.364   3.665   4.266
   89SAPC  H20T 8467   4.493   3.726   4.241
   89SAPC   C33 8468   4.801   3.632   5.585
   89SAPC   H3X 8469   4.797   3.732   5.624
   89SAPC   H3Y 8470   4.707   3.675   5.566
   89SAPC   C34 8471   4.887   3.611   5.462
   89SAPC   H4X 8472   4.840   3.574   5.375
   89SAPC   H4Y 8473   4.950   3.529   5.492
   89SAPC   C35 8474   4.898   3.713   5.352
   89SAPC   H5X 8475   4.805   3.759   5.310
   89SAPC   H5Y 8476   4.939   3.669   5.258
   89SAPC   C36 8477   4.985   3.802   5.425
   89SAPC   H6X 8478   5.069   3.736   5.460
   89SAPC   H6Y 8479   4.930   3.837   5.515
   89SAPC   C37 8480   5.033   3.909   5.335
   89SAPC   H7X 8481   5.082   3.860   5.247
   89SAPC   H7Y 8482   5.110   3.960   5.395
   89SAPC   C38 8483   4.926   4.009   5.293
   89SAPC   H8X 8484   4.874   4.055   5.379
   89SAPC   H8Y 8485   4.852   3.968   5.219
   89SAPC   C39 8486   4.995   4.121   5.228
   89SAPC   H9X 8487   5.078   4.164   5.289
   89SAPC   H9Y 8488   4.931   4.210   5.216
   89SAPC  C310 8489   5.041   4.063   5.098
   89SAPC  H10X 8490   5.096   3.970   5.083
   89SAPC  H10Y 8491   5.140   4.107   5.101
   89SAPC  C311 8492   4.927   4.074   4.992
   89SAPC  H11X 8493   4.859   4.153   5.005
   89SAPC  H11Y 8494   4.899   3.975   4.961
   89SAPC  C312 8495   4.960   4.118   4.858
   89SAPC  H12X 8496   5.062   4.108   4.891
   89SAPC  H12Y 8497   4.974   4.219   4.867
   89SAPC  C313 8498   4.902   4.172   4.724
   89SAPC  H13X 8499   4.981   4.240   4.676
   89SAPC  H13Y 8500   4.814   4.228   4.714
   89SAPC  C314 8501   4.845   4.069   4.638
   89SAPC  H14X 8502   4.797   4.007   4.713
   89SAPC  H14Y 8503   4.918   4.009   4.587
   89SAPC  C315 8504   4.755   4.124   4.530
   89SAPC  H15X 8505   4.813   4.188   4.460
   89SAPC  H15Y 8506   4.674   4.184   4.578
   89SAPC  C316 8507   4.702   4.007   4.451
   89SAPC  H16X 8508   4.639   4.053   4.373
   89SAPC  H16Y 8509   4.640   3.948   4.518
   89SAPC  C317 8510   4.809   3.917   4.388
   89SAPC  H17X 8511   4.758   3.837   4.330
   89SAPC  H17Y 8512   4.868   3.863   4.465
   89SAPC  C318 8513   4.898   3.996   4.294
   89SAPC  H18X 8514   4.962   4.066   4.341
   89SAPC  H18Y 8515   4.841   4.067   4.232
   89SAPC  H18Z 8516   4.971   3.934   4.241
   90SAPC     N 8517   1.308   1.037   6.415
   90SAPC   C12 8518   1.280   1.185   6.417
   90SAPC  H12A 8519   1.364   1.232   6.465
   90SAPC  H12B 8520   1.191   1.198   6.478
   90SAPC   C13 8521   1.220   0.961   6.319
   90SAPC  H13A 8522   1.116   0.966   6.348
   90SAPC  H13B 8523   1.219   1.010   6.221
   90SAPC  H13C 8524   1.248   0.858   6.302
   90SAPC   C14 8525   1.446   1.028   6.372
   90SAPC  H14A 8526   1.471   1.085   6.283
   90SAPC  H14B 8527   1.516   1.055   6.450
   90SAPC  H14C 8528   1.467   0.924   6.346
   90SAPC   C15 8529   1.298   0.982   6.554
   90SAPC  H15A 8530   1.349   1.047   6.624
   90SAPC  H15B 8531   1.195   0.975   6.586
   90SAPC  H15C 8532   1.345   0.885   6.563
   90SAPC   C11 8533   1.256   1.255   6.283
   90SAPC  H11A 8534   1.337   1.235   6.209
   90SAPC  H11B 8535   1.244   1.364   6.295
   90SAPC     P 8536   1.098   1.200   6.087
   90SAPC   O13 8537   1.201   1.140   6.000
   90SAPC   O14 8538   0.963   1.140   6.085
   90SAPC   O12 8539   1.136   1.205   6.238
   90SAPC   O11 8540   1.106   1.359   6.060
   90SAPC    C1 8541   1.225   1.427   6.018
   90SAPC    HA 8542   1.246   1.511   6.087
   90SAPC    HB 8543   1.312   1.359   6.020
   90SAPC    C2 8544   1.216   1.486   5.874
   90SAPC    HS 8545   1.206   1.597   5.882
   90SAPC   O21 8546   1.102   1.429   5.811
   90SAPC   C21 8547   1.063   1.486   5.701
   90SAPC   O22 8548   1.100   1.589   5.658
   90SAPC   C22 8549   0.975   1.407   5.622
   90SAPC   H2R 8550   0.873   1.434   5.657
   90SAPC   H2S 8551   0.964   1.444   5.518
   90SAPC    C3 8552   1.343   1.456   5.793
   90SAPC    HX 8553   1.427   1.504   5.846
   90SAPC    HY 8554   1.336   1.495   5.690
   90SAPC   O31 8555   1.363   1.315   5.791
   90SAPC   C31 8556   1.474   1.274   5.739
   90SAPC   O32 8557   1.567   1.341   5.697
   90SAPC   C32 8558   1.470   1.128   5.755
   90SAPC   H2X 8559   1.448   1.105   5.863
   90SAPC   H2Y 8560   1.575   1.097   5.737
   90SAPC   C23 8561   1.027   1.260   5.643
   90SAPC   H3R 8562   0.950   1.185   5.634
   90SAPC   H3S 8563   1.053   1.225   5.745
   90SAPC   C24 8564   1.132   1.215   5.554
   90SAPC   H4R 8565   1.127   1.104   5.571
   90SAPC   H4S 8566   1.217   1.270   5.593
   90SAPC   C25 8567   1.117   1.235   5.412
   90SAPC   H5R 8568   1.045   1.161   5.376
   90SAPC   C26 8569   1.173   1.329   5.335
   90SAPC   H6R 8570   1.152   1.332   5.226
   90SAPC   C27 8571   1.264   1.434   5.385
   90SAPC   H7R 8572   1.230   1.470   5.483
   90SAPC   H7S 8573   1.268   1.519   5.314
   90SAPC   C28 8574   1.391   1.358   5.402
   90SAPC   H8R 8575   1.387   1.283   5.482
   90SAPC   C29 8576   1.499   1.359   5.325
   90SAPC   H9R 8577   1.577   1.286   5.350
   90SAPC  C210 8578   1.519   1.438   5.199
   90SAPC  H10R 8579   1.623   1.479   5.194
   90SAPC  H10S 8580   1.450   1.524   5.191
   90SAPC  C211 8581   1.502   1.341   5.087
   90SAPC  H11R 8582   1.572   1.257   5.094
   90SAPC  C212 8583   1.423   1.350   4.979
   90SAPC  H12R 8584   1.432   1.273   4.900
   90SAPC  C213 8585   1.328   1.462   4.944
   90SAPC  H13R 8586   1.272   1.488   5.036
   90SAPC  H13S 8587   1.256   1.418   4.873
   90SAPC  C214 8588   1.360   1.591   4.877
   90SAPC  H14R 8589   1.356   1.684   4.935
   90SAPC  C215 8590   1.431   1.597   4.767
   90SAPC  H15R 8591   1.421   1.684   4.703
   90SAPC  C216 8592   1.489   1.485   4.696
   90SAPC  H16R 8593   1.470   1.504   4.595
   90SAPC  H16S 8594   1.452   1.386   4.726
   90SAPC  C217 8595   1.616   1.480   4.622
   90SAPC  H17R 8596   1.678   1.525   4.702
   90SAPC  H17S 8597   1.647   1.550   4.544
   90SAPC  C218 8598   1.614   1.332   4.579
   90SAPC  H18R 8599   1.601   1.257   4.650
   90SAPC  H18S 8600   1.708   1.284   4.581
   90SAPC  C219 8601   1.589   1.293   4.440
   90SAPC  H19R 8602   1.675   1.237   4.398
   90SAPC  H19S 8603   1.580   1.389   4.389
   90SAPC  C220 8604   1.476   1.201   4.451
   90SAPC  H20R 8605   1.499   1.095   4.467
   90SAPC  H20S 8606   1.424   1.210   4.357
   90SAPC  H20T 8607   1.424   1.220   4.546
   90SAPC   C33 8608   1.362   1.067   5.658
   90SAPC   H3X 8609   1.376   1.104   5.555
   90SAPC   H3Y 8610   1.262   1.068   5.704
   90SAPC   C34 8611   1.370   0.922   5.634
   90SAPC   H4X 8612   1.342   0.874   5.732
   90SAPC   H4Y 8613   1.475   0.937   5.594
   90SAPC   C35 8614   1.314   0.820   5.542
   90SAPC   H5X 8615   1.208   0.833   5.568
   90SAPC   H5Y 8616   1.342   0.715   5.574
   90SAPC   C36 8617   1.368   0.844   5.404
   90SAPC   H6X 8618   1.350   0.747   5.351
   90SAPC   H6Y 8619   1.476   0.868   5.399
   90SAPC   C37 8620   1.301   0.963   5.340
   90SAPC   H7X 8621   1.336   1.065   5.356
   90SAPC   H7Y 8622   1.210   0.972   5.407
   90SAPC   C38 8623   1.286   0.941   5.186
   90SAPC   H8X 8624   1.251   0.836   5.168
   90SAPC   H8Y 8625   1.375   0.924   5.128
   90SAPC   C39 8626   1.194   1.050   5.126
   90SAPC   H9X 8627   1.235   1.150   5.138
   90SAPC   H9Y 8628   1.102   1.053   5.190
   90SAPC  C310 8629   1.153   1.029   4.977
   90SAPC  H10X 8630   1.094   0.941   4.961
   90SAPC  H10Y 8631   1.228   0.986   4.911
   90SAPC  C311 8632   1.102   1.160   4.916
   90SAPC  H11X 8633   1.191   1.213   4.893
   90SAPC  H11Y 8634   1.055   1.231   4.984
   90SAPC  C312 8635   1.035   1.161   4.781
   90SAPC  H12X 8636   0.966   1.242   4.750
   90SAPC  H12Y 8637   0.962   1.105   4.817
   90SAPC  C313 8638   1.071   1.053   4.686
   90SAPC  H13X 8639   1.001   1.018   4.607
   90SAPC  H13Y 8640   1.108   0.963   4.735
   90SAPC  C314 8641   1.142   1.129   4.597
   90SAPC  H14X 8642   1.190   1.050   4.536
   90SAPC  H14Y 8643   1.210   1.192   4.658
   90SAPC  C315 8644   1.042   1.208   4.513
   90SAPC  H15X 8645   1.001   1.300   4.562
   90SAPC  H15Y 8646   0.962   1.148   4.469
   90SAPC  C316 8647   1.123   1.244   4.399
   90SAPC  H16X 8648   1.161   1.173   4.325
   90SAPC  H16Y 8649   1.216   1.247   4.452
   90SAPC  C317 8650   1.071   1.369   4.339
   90SAPC  H17X 8651   0.971   1.360   4.314
   90SAPC  H17Y 8652   1.131   1.382   4.251
   90SAPC  C318 8653   1.029   1.493   4.411
   90SAPC  H18X 8654   0.958   1.495   4.493
   90SAPC  H18Y 8655   1.021   1.569   4.335
   90SAPC  H18Z 8656   1.094   1.552   4.465
   91SAPC     N 8657   5.762   6.979   6.460
   91SAPC   C12 8658   5.685   6.987   6.329
   91SAPC  H12A 8659   5.694   7.086   6.288
   91SAPC  H12B 8660   5.583   6.965   6.351
   91SAPC   C13 8661   5.900   7.030   6.441
   91SAPC  H13A 8662   5.900   7.129   6.398
   91SAPC  H13B 8663   5.955   7.025   6.533
   91SAPC  H13C 8664   5.949   6.969   6.365
   91SAPC   C14 8665   5.704   7.057   6.571
   91SAPC  H14A 8666   5.760   7.036   6.662
   91SAPC  H14B 8667   5.710   7.163   6.551
   91SAPC  H14C 8668   5.601   7.030   6.593
   91SAPC   C15 8669   5.773   6.837   6.501
   91SAPC  H15A 8670   5.677   6.786   6.487
   91SAPC  H15B 8671   5.845   6.787   6.436
   91SAPC  H15C 8672   5.803   6.827   6.604
   91SAPC   C11 8673   5.718   6.882   6.218
   91SAPC  H11A 8674   5.641   6.884   6.137
   91SAPC  H11B 8675   5.709   6.781   6.263
   91SAPC     P 8676   5.869   6.989   6.041
   91SAPC   O13 8677   5.822   6.927   5.915
   91SAPC   O14 8678   5.811   7.120   6.082
   91SAPC   O12 8679   5.849   6.894   6.166
   91SAPC   O11 8680   6.023   7.004   6.035
   91SAPC    C1 8681   6.090   7.006   6.163
   91SAPC    HA 8682   6.037   7.071   6.235
   91SAPC    HB 8683   6.100   6.907   6.212
   91SAPC    C2 8684   6.228   7.065   6.143
   91SAPC    HS 8685   6.256   7.101   6.241
   91SAPC   O21 8686   6.230   7.158   6.039
   91SAPC   C21 8687   6.135   7.247   6.046
   91SAPC   O22 8688   6.099   7.305   6.148
   91SAPC   C22 8689   6.107   7.292   5.903
   91SAPC   H2R 8690   6.208   7.300   5.889
   91SAPC   H2S 8691   6.127   7.227   5.818
   91SAPC    C3 8692   6.339   6.976   6.107
   91SAPC    HX 8693   6.375   6.930   6.200
   91SAPC    HY 8694   6.436   7.026   6.090
   91SAPC   O31 8695   6.301   6.900   5.992
   91SAPC   C31 8696   6.208   6.807   5.982
   91SAPC   O32 8697   6.122   6.766   6.056
   91SAPC   C32 8698   6.232   6.733   5.859
   91SAPC   H2X 8699   6.269   6.627   5.865
   91SAPC   H2Y 8700   6.300   6.795   5.805
   91SAPC   C23 8701   6.053   7.438   5.893
   91SAPC   H3R 8702   6.105   7.518   5.952
   91SAPC   H3S 8703   5.955   7.419   5.938
   91SAPC   C24 8704   6.014   7.495   5.757
   91SAPC   H4R 8705   5.961   7.591   5.776
   91SAPC   H4S 8706   5.955   7.419   5.704
   91SAPC   C25 8707   6.113   7.541   5.664
   91SAPC   H5R 8708   6.189   7.612   5.706
   91SAPC   C26 8709   6.131   7.483   5.548
   91SAPC   H6R 8710   6.172   7.545   5.478
   91SAPC   C27 8711   6.095   7.381   5.451
   91SAPC   H7R 8712   6.120   7.422   5.349
   91SAPC   H7S 8713   5.988   7.393   5.451
   91SAPC   C28 8714   6.154   7.244   5.464
   91SAPC   H8R 8715   6.176   7.210   5.567
   91SAPC   C29 8716   6.182   7.163   5.360
   91SAPC   H9R 8717   6.210   7.060   5.383
   91SAPC  C210 8718   6.163   7.185   5.211
   91SAPC  H10R 8719   6.092   7.266   5.184
   91SAPC  H10S 8720   6.138   7.095   5.157
   91SAPC  C211 8721   6.289   7.216   5.152
   91SAPC  H11R 8722   6.350   7.273   5.218
   91SAPC  C212 8723   6.326   7.206   5.026
   91SAPC  H12R 8724   6.417   7.257   4.987
   91SAPC  C213 8725   6.236   7.156   4.926
   91SAPC  H13R 8726   6.172   7.074   4.955
   91SAPC  H13S 8727   6.299   7.077   4.895
   91SAPC  C214 8728   6.185   7.246   4.816
   91SAPC  H14R 8729   6.075   7.252   4.819
   91SAPC  C215 8730   6.249   7.299   4.705
   91SAPC  H15R 8731   6.171   7.333   4.640
   91SAPC  C216 8732   6.400   7.303   4.629
   91SAPC  H16R 8733   6.465   7.331   4.712
   91SAPC  H16S 8734   6.482   7.373   4.627
   91SAPC  C217 8735   6.494   7.228   4.520
   91SAPC  H17R 8736   6.521   7.124   4.535
   91SAPC  H17S 8737   6.601   7.257   4.531
   91SAPC  C218 8738   6.427   7.200   4.401
   91SAPC  H18R 8739   6.475   7.296   4.391
   91SAPC  H18S 8740   6.316   7.192   4.413
   91SAPC  C219 8741   6.492   7.108   4.312
   91SAPC  H19R 8742   6.477   7.002   4.329
   91SAPC  H19S 8743   6.601   7.127   4.323
   91SAPC  C220 8744   6.429   7.131   4.181
   91SAPC  H20R 8745   6.401   7.237   4.174
   91SAPC  H20S 8746   6.338   7.067   4.174
   91SAPC  H20T 8747   6.509   7.098   4.113
   91SAPC   C33 8748   6.092   6.744   5.827
   91SAPC   H3X 8749   6.062   6.849   5.803
   91SAPC   H3Y 8750   6.019   6.682   5.886
   91SAPC   C34 8751   6.077   6.683   5.708
   91SAPC   H4X 8752   6.121   6.579   5.720
   91SAPC   H4Y 8753   6.154   6.700   5.641
   91SAPC   C35 8754   5.935   6.725   5.657
   91SAPC   H5X 8755   5.857   6.682   5.721
   91SAPC   H5Y 8756   5.910   6.691   5.556
   91SAPC   C36 8757   5.896   6.833   5.560
   91SAPC   H6X 8758   5.967   6.848   5.474
   91SAPC   H6Y 8759   5.907   6.907   5.638
   91SAPC   C37 8760   5.749   6.815   5.507
   91SAPC   H7X 8761   5.683   6.780   5.590
   91SAPC   H7Y 8762   5.732   6.737   5.429
   91SAPC   C38 8763   5.713   6.954   5.458
   91SAPC   H8X 8764   5.766   7.030   5.521
   91SAPC   H8Y 8765   5.604   6.969   5.470
   91SAPC   C39 8766   5.763   6.978   5.315
   91SAPC   H9X 8767   5.867   6.941   5.307
   91SAPC   H9Y 8768   5.766   7.087   5.293
   91SAPC  C310 8769   5.673   6.909   5.212
   91SAPC  H10X 8770   5.568   6.938   5.236
   91SAPC  H10Y 8771   5.682   6.799   5.220
   91SAPC  C311 8772   5.706   6.950   5.068
   91SAPC  H11X 8773   5.814   6.975   5.058
   91SAPC  H11Y 8774   5.645   7.040   5.044
   91SAPC  C312 8775   5.675   6.837   4.969
   91SAPC  H12X 8776   5.576   6.793   4.998
   91SAPC  H12Y 8777   5.752   6.759   4.980
   91SAPC  C313 8778   5.665   6.886   4.823
   91SAPC  H13X 8779   5.634   6.993   4.825
   91SAPC  H13Y 8780   5.588   6.827   4.771
   91SAPC  C314 8781   5.790   6.869   4.735
   91SAPC  H14X 8782   5.816   6.761   4.729
   91SAPC  H14Y 8783   5.874   6.923   4.784
   91SAPC  C315 8784   5.764   6.926   4.592
   91SAPC  H15X 8785   5.750   7.036   4.602
   91SAPC  H15Y 8786   5.680   6.878   4.538
   91SAPC  C316 8787   5.874   6.910   4.491
   91SAPC  H16X 8788   5.859   6.963   4.395
   91SAPC  H16Y 8789   5.885   6.801   4.472
   91SAPC  C317 8790   5.993   6.992   4.531
   91SAPC  H17X 8791   6.022   6.944   4.629
   91SAPC  H17Y 8792   5.968   7.091   4.558
   91SAPC  C318 8793   6.092   7.020   4.411
   91SAPC  H18X 8794   6.203   7.032   4.415
   91SAPC  H18Y 8795   6.060   7.062   4.319
   91SAPC  H18Z 8796   6.085   6.919   4.425
   92SAPC     N 8797   7.171   6.144   6.445
   92SAPC   C12 8798   7.134   6.081   6.315
   92SAPC  H12A 8799   7.109   5.977   6.334
   92SAPC  H12B 8800   7.221   6.079   6.249
   92SAPC   C13 8801   7.066   6.138   6.549
   92SAPC  H13A 8802   6.977   6.184   6.511
   92SAPC  H13B 8803   7.045   6.034   6.578
   92SAPC  H13C 8804   7.102   6.190   6.637
   92SAPC   C14 8805   7.271   6.060   6.494
   92SAPC  H14A 8806   7.256   5.952   6.500
   92SAPC  H14B 8807   7.362   6.074   6.437
   92SAPC  H14C 8808   7.289   6.092   6.598
   92SAPC   C15 8809   7.219   6.285   6.424
   92SAPC  H15A 8810   7.142   6.333   6.362
   92SAPC  H15B 8811   7.231   6.344   6.514
   92SAPC  H15C 8812   7.309   6.291   6.362
   92SAPC   C11 8813   7.021   6.147   6.237
   92SAPC  H11A 8814   6.930   6.157   6.301
   92SAPC  H11B 8815   6.997   6.076   6.155
   92SAPC     P 8816   7.129   6.281   6.045
   92SAPC   O13 8817   7.266   6.228   6.068
   92SAPC   O14 8818   7.050   6.219   5.936
   92SAPC   O12 8819   7.057   6.276   6.187
   92SAPC   O11 8820   7.145   6.435   6.019
   92SAPC    C1 8821   7.223   6.512   6.111
   92SAPC    HA 8822   7.155   6.563   6.181
   92SAPC    HB 8823   7.294   6.452   6.173
   92SAPC    C2 8824   7.316   6.611   6.036
   92SAPC    HS 8825   7.370   6.675   6.109
   92SAPC   O21 8826   7.255   6.695   5.933
   92SAPC   C21 8827   7.150   6.756   5.974
   92SAPC   O22 8828   7.108   6.750   6.086
   92SAPC   C22 8829   7.086   6.856   5.878
   92SAPC   H2R 8830   7.055   6.951   5.929
   92SAPC   H2S 8831   7.157   6.884   5.801
   92SAPC    C3 8832   7.415   6.519   5.967
   92SAPC    HX 8833   7.451   6.434   6.028
   92SAPC    HY 8834   7.519   6.556   5.956
   92SAPC   O31 8835   7.349   6.499   5.837
   92SAPC   C31 8836   7.398   6.401   5.780
   92SAPC   O32 8837   7.500   6.349   5.818
   92SAPC   C32 8838   7.314   6.350   5.667
   92SAPC   H2X 8839   7.273   6.429   5.603
   92SAPC   H2Y 8840   7.247   6.280   5.718
   92SAPC   C23 8841   6.960   6.789   5.825
   92SAPC   H3R 8842   6.919   6.856   5.747
   92SAPC   H3S 8843   6.883   6.778   5.906
   92SAPC   C24 8844   6.997   6.655   5.760
   92SAPC   H4R 8845   6.906   6.606   5.726
   92SAPC   H4S 8846   7.039   6.584   5.835
   92SAPC   C25 8847   7.099   6.670   5.651
   92SAPC   H5R 8848   7.193   6.708   5.685
   92SAPC   C26 8849   7.101   6.626   5.525
   92SAPC   H6R 8850   7.185   6.641   5.459
   92SAPC   C27 8851   7.005   6.550   5.453
   92SAPC   H7R 8852   7.000   6.597   5.355
   92SAPC   H7S 8853   6.922   6.584   5.514
   92SAPC   C28 8854   7.034   6.401   5.452
   92SAPC   H8R 8855   7.037   6.358   5.554
   92SAPC   C29 8856   7.030   6.313   5.348
   92SAPC   H9R 8857   7.014   6.208   5.370
   92SAPC  C210 8858   6.995   6.338   5.205
   92SAPC  H10R 8859   6.938   6.420   5.226
   92SAPC  H10S 8860   6.913   6.273   5.161
   92SAPC  C211 8861   7.060   6.437   5.120
   92SAPC  H11R 8862   7.101   6.522   5.178
   92SAPC  C212 8863   7.048   6.443   4.989
   92SAPC  H12R 8864   7.132   6.493   4.942
   92SAPC  C213 8865   6.968   6.354   4.897
   92SAPC  H13R 8866   6.921   6.266   4.948
   92SAPC  H13S 8867   7.041   6.310   4.828
   92SAPC  C214 8868   6.867   6.424   4.812
   92SAPC  H14R 8869   6.769   6.403   4.843
   92SAPC  C215 8870   6.878   6.503   4.705
   92SAPC  H15R 8871   6.789   6.545   4.658
   92SAPC  C216 8872   7.002   6.544   4.639
   92SAPC  H16R 8873   7.089   6.493   4.684
   92SAPC  H16S 8874   7.007   6.648   4.670
   92SAPC  C217 8875   7.000   6.518   4.487
   92SAPC  H17R 8876   7.082   6.570   4.433
   92SAPC  H17S 8877   6.906   6.555   4.439
   92SAPC  C218 8878   7.024   6.369   4.464
   92SAPC  H18R 8879   6.945   6.309   4.514
   92SAPC  H18S 8880   7.122   6.342   4.510
   92SAPC  C219 8881   7.035   6.328   4.319
   92SAPC  H19R 8882   7.071   6.223   4.310
   92SAPC  H19S 8883   7.115   6.386   4.277
   92SAPC  C220 8884   6.909   6.345   4.237
   92SAPC  H20R 8885   6.919   6.302   4.135
   92SAPC  H20S 8886   6.867   6.446   4.233
   92SAPC  H20T 8887   6.834   6.298   4.298
   92SAPC   C33 8888   7.373   6.255   5.574
   92SAPC   H3X 8889   7.322   6.158   5.552
   92SAPC   H3Y 8890   7.457   6.231   5.636
   92SAPC   C34 8891   7.412   6.328   5.451
   92SAPC   H4X 8892   7.460   6.229   5.452
   92SAPC   H4Y 8893   7.487   6.408   5.455
   92SAPC   C35 8894   7.356   6.319   5.310
   92SAPC   H5X 8895   7.280   6.396   5.310
   92SAPC   H5Y 8896   7.341   6.211   5.286
   92SAPC   C36 8897   7.441   6.364   5.192
   92SAPC   H6X 8898   7.506   6.282   5.177
   92SAPC   H6Y 8899   7.503   6.452   5.215
   92SAPC   C37 8900   7.402   6.344   5.047
   92SAPC   H7X 8901   7.472   6.397   4.982
   92SAPC   H7Y 8902   7.302   6.384   5.038
   92SAPC   C38 8903   7.409   6.198   4.999
   92SAPC   H8X 8904   7.391   6.135   5.088
   92SAPC   H8Y 8905   7.506   6.166   4.954
   92SAPC   C39 8906   7.292   6.177   4.906
   92SAPC   H9X 8907   7.202   6.205   4.964
   92SAPC   H9Y 8908   7.286   6.070   4.877
   92SAPC  C310 8909   7.289   6.265   4.784
   92SAPC  H10X 8910   7.263   6.371   4.810
   92SAPC  H10Y 8911   7.210   6.231   4.713
   92SAPC  C311 8912   7.423   6.264   4.720
   92SAPC  H11X 8913   7.461   6.168   4.682
   92SAPC  H11Y 8914   7.495   6.315   4.788
   92SAPC  C312 8915   7.416   6.346   4.602
   92SAPC  H12X 8916   7.340   6.424   4.637
   92SAPC  H12Y 8917   7.373   6.296   4.513
   92SAPC  C313 8918   7.560   6.399   4.569
   92SAPC  H13X 8919   7.618   6.348   4.499
   92SAPC  H13Y 8920   7.603   6.403   4.668
   92SAPC  C314 8921   7.604   6.531   4.482
   92SAPC  H14X 8922   7.690   6.576   4.469
   92SAPC  H14Y 8923   7.544   6.556   4.590
   92SAPC  C315 8924   7.497   6.649   4.303
   92SAPC  H15X 8925   7.460   6.761   4.317
   92SAPC  H15Y 8926   7.364   6.603   4.288
   92SAPC  C316 8927   7.552   6.652   4.189
   92SAPC  H16X 8928   7.640   6.584   4.224
   92SAPC  H16Y 8929   7.649   6.690   4.195
   92SAPC  C317 8930   7.436   6.601   4.072
   92SAPC  H17X 8931   7.370   6.485   4.047
   92SAPC  H17Y 8932   7.484   6.606   3.973
   92SAPC  C318 8933   7.398   6.702   4.124
   92SAPC  H18X 8934   7.417   6.796   4.105
   92SAPC  H18Y 8935   7.310   6.720   4.182
   92SAPC  H18Z 8936   7.343   6.638   4.066
   93SAPC     N 8937   7.350   0.576   6.230
   93SAPC   C12 8938   7.398   0.477   6.317
   93SAPC  H12A 8939   7.409   0.540   6.403
   93SAPC  H12B 8940   7.488   0.438   6.274
   93SAPC   C13 8941   7.225   0.617   6.297
   93SAPC  H13A 8942   7.137   0.561   6.264
   93SAPC  H13B 8943   7.223   0.654   6.398
   93SAPC  H13C 8944   7.204   0.712   6.258
   93SAPC   C14 8945   7.436   0.696   6.211
   93SAPC  H14A 8946   7.469   0.735   6.305
   93SAPC  H14B 8947   7.523   0.675   6.148
   93SAPC  H14C 8948   7.386   0.779   6.159
   93SAPC   C15 8949   7.339   0.495   6.108
   93SAPC  H15A 8950   7.420   0.432   6.074
   93SAPC  H15B 8951   7.240   0.456   6.093
   93SAPC  H15C 8952   7.365   0.562   6.027
   93SAPC   C11 8953   7.297   0.365   6.354
   93SAPC  H11A 8954   7.226   0.404   6.431
   93SAPC  H11B 8955   7.357   0.288   6.405
   93SAPC     P 8956   7.076   0.263   6.266
   93SAPC   O13 8957   7.066   0.199   6.399
   93SAPC   O14 8958   6.997   0.383   6.238
   93SAPC   O12 8959   7.227   0.304   6.246
   93SAPC   O11 8960   7.059   0.160   6.148
   93SAPC    C1 8961   7.049   0.025   6.187
   93SAPC    HA 8962   7.149  -0.003   6.228
   93SAPC    HB 8963   6.975   0.014   6.270
   93SAPC    C2 8964   7.000  -0.066   6.070
   93SAPC    HS 8965   6.988  -0.173   6.098
   93SAPC   O21 8966   7.078  -0.062   5.953
   93SAPC   C21 8967   7.206  -0.048   5.956
   93SAPC   O22 8968   7.283  -0.037   6.048
   93SAPC   C22 8969   7.249  -0.048   5.818
   93SAPC   H2R 8970   7.354  -0.079   5.837
   93SAPC   H2S 8971   7.210  -0.127   5.751
   93SAPC    C3 8972   6.862  -0.045   6.027
   93SAPC    HX 8973   6.799  -0.068   6.114
   93SAPC    HY 8974   6.835  -0.123   5.952
   93SAPC   O31 8975   6.845   0.091   5.991
   93SAPC   C31 8976   6.871   0.122   5.867
   93SAPC   O32 8977   6.897   0.044   5.777
   93SAPC   C32 8978   6.857   0.271   5.853
   93SAPC   H2X 8979   6.950   0.313   5.894
   93SAPC   H2Y 8980   6.770   0.304   5.913
   93SAPC   C23 8981   7.211   0.094   5.764
   93SAPC   H3R 8982   7.106   0.084   5.738
   93SAPC   H3S 8983   7.257   0.120   5.667
   93SAPC   C24 8984   7.232   0.215   5.856
   93SAPC   H4R 8985   7.175   0.206   5.949
   93SAPC   H4S 8986   7.196   0.306   5.804
   93SAPC   C25 8987   7.376   0.230   5.889
   93SAPC   H5R 8988   7.418   0.179   5.976
   93SAPC   C26 8989   7.461   0.268   5.797
   93SAPC   H6R 8990   7.572   0.266   5.809
   93SAPC   C27 8991   7.433   0.300   5.661
   93SAPC   H7R 8992   7.450   0.390   5.697
   93SAPC   H7S 8993   7.325   0.319   5.637
   93SAPC   C28 8994   7.551   0.329   5.574
   93SAPC   H8R 8995   7.632   0.395   5.610
   93SAPC   C29 8996   7.538   0.297   5.449
   93SAPC   H9R 8997   7.616   0.330   5.379
   93SAPC  C210 8998   7.411   0.233   5.405
   93SAPC  H10R 8999   7.321   0.296   5.414
   93SAPC  H10S 9000   7.384   0.152   5.475
   93SAPC  C211 9001   7.434   0.173   5.271
   93SAPC  H11R 9002   7.537   0.139   5.252
   93SAPC  C212 9003   7.337   0.136   5.188
   93SAPC  H12R 9004   7.360   0.082   5.095
   93SAPC  C213 9005   7.192   0.150   5.223
   93SAPC  H13R 9006   7.175   0.207   5.316
   93SAPC  H13S 9007   7.155   0.047   5.241
   93SAPC  C214 9008   7.097   0.214   5.131
   93SAPC  H14R 9009   7.120   0.319   5.104
   93SAPC  C215 9010   7.002   0.149   5.066
   93SAPC  H15R 9011   6.928   0.214   5.019
   93SAPC  C216 9012   6.966   0.002   5.064
   93SAPC  H16R 9013   6.899  -0.010   5.151
   93SAPC  H16S 9014   7.056  -0.062   5.074
   93SAPC  C217 9015   6.885  -0.056   4.944
   93SAPC  H17R 9016   6.799   0.013   4.926
   93SAPC  H17S 9017   6.846  -0.155   4.968
   93SAPC  C218 9018   6.955  -0.077   4.809
   93SAPC  H18R 9019   7.009  -0.170   4.789
   93SAPC  H18S 9020   7.042  -0.017   4.828
   93SAPC  C219 9021   6.858  -0.040   4.693
   93SAPC  H19R 9022   6.821   0.065   4.705
   93SAPC  H19S 9023   6.773  -0.105   4.707
   93SAPC  C220 9024   6.895  -0.061   4.545
   93SAPC  H20R 9025   6.991  -0.016   4.514
   93SAPC  H20S 9026   6.821  -0.008   4.483
   93SAPC  H20T 9027   6.904  -0.168   4.523
   93SAPC   C33 9028   6.845   0.311   5.706
   93SAPC   H3X 9029   6.809   0.226   5.643
   93SAPC   H3Y 9030   6.942   0.347   5.669
   93SAPC   C34 9031   6.749   0.423   5.692
   93SAPC   H4X 9032   6.763   0.512   5.753
   93SAPC   H4Y 9033   6.669   0.389   5.750
   93SAPC   C35 9034   6.729   0.460   5.548
   93SAPC   H5X 9035   6.642   0.530   5.548
   93SAPC   H5Y 9036   6.694   0.382   5.483
   93SAPC   C36 9037   6.868   0.509   5.497
   93SAPC   H6X 9038   6.923   0.576   5.563
   93SAPC   H6Y 9039   6.858   0.569   5.411
   93SAPC   C37 9040   6.944   0.429   5.398
   93SAPC   H7X 9041   6.871   0.395   5.320
   93SAPC   H7Y 9042   6.982   0.346   5.459
   93SAPC   C38 9043   7.061   0.512   5.342
   93SAPC   H8X 9044   7.105   0.452   5.261
   93SAPC   H8Y 9045   7.135   0.533   5.419
   93SAPC   C39 9046   7.046   0.657   5.299
   93SAPC   H9X 9047   7.132   0.697   5.243
   93SAPC   H9Y 9048   7.011   0.732   5.371
   93SAPC  C310 9049   6.954   0.663   5.198
   93SAPC  H10X 9050   6.919   0.769   5.178
   93SAPC  H10Y 9051   6.868   0.624   5.228
   93SAPC  C311 9052   6.982   0.546   5.102
   93SAPC  H11X 9053   6.877   0.556   5.056
   93SAPC  H11Y 9054   6.947   0.447   5.131
   93SAPC  C312 9055   7.128   0.544   5.008
   93SAPC  H12X 9056   7.201   0.498   5.057
   93SAPC  H12Y 9057   7.165   0.642   4.967
   93SAPC  C313 9058   7.159   0.476   4.855
   93SAPC  H13X 9059   7.112   0.493   4.751
   93SAPC  H13Y 9060   7.090   0.407   4.851
   93SAPC  C314 9061   7.268   0.404   4.823
   93SAPC  H14X 9062   7.261   0.329   4.905
   93SAPC  H14Y 9063   7.295   0.498   4.851
   93SAPC  C315 9064   7.266   0.383   4.673
   93SAPC  H15X 9065   7.199   0.425   4.593
   93SAPC  H15Y 9066   7.203   0.314   4.711
   93SAPC  C316 9067   7.386   0.308   4.644
   93SAPC  H16X 9068   7.439   0.308   4.742
   93SAPC  H16Y 9069   7.427   0.371   4.564
   93SAPC  C317 9070   7.367   0.169   4.597
   93SAPC  H17X 9071   7.321   0.098   4.669
   93SAPC  H17Y 9072   7.469   0.129   4.589
   93SAPC  C318 9073   7.297   0.171   4.463
   93SAPC  H18X 9074   7.350   0.222   4.382
   93SAPC  H18Y 9075   7.189   0.184   4.450
   93SAPC  H18Z 9076   7.287   0.071   4.443
   94SAPC     N 9077  -0.238   7.005   6.317
   94SAPC   C12 9078  -0.133   7.068   6.227
   94SAPC  H12A 9079  -0.087   7.156   6.274
   94SAPC  H12B 9080  -0.183   7.115   6.150
   94SAPC   C13 9081  -0.341   7.099   6.363
   94SAPC  H13A 9082  -0.402   7.054   6.439
   94SAPC  H13B 9083  -0.299   7.191   6.404
   94SAPC  H13C 9084  -0.403   7.127   6.279
   94SAPC   C14 9085  -0.309   6.887   6.269
   94SAPC  H14A 9086  -0.378   6.898   6.187
   94SAPC  H14B 9087  -0.227   6.824   6.235
   94SAPC  H14C 9088  -0.347   6.821   6.346
   94SAPC   C15 9089  -0.156   6.958   6.427
   94SAPC  H15A 9090  -0.073   6.903   6.381
   94SAPC  H15B 9091  -0.104   7.040   6.476
   94SAPC  H15C 9092  -0.211   6.896   6.495
   94SAPC   C11 9093  -0.037   7.001   6.131
   94SAPC  H11A 9094  -0.002   7.055   6.044
   94SAPC  H11B 9095  -0.087   6.942   6.063
   94SAPC     P 9096   0.196   7.047   6.197
   94SAPC   O13 9097   0.154   7.164   6.277
   94SAPC   O14 9098   0.288   6.949   6.258
   94SAPC   O12 9099   0.073   6.947   6.191
   94SAPC   O11 9100   0.231   7.084   6.049
   94SAPC    C1 9101   0.361   7.145   6.051
   94SAPC    HA 9102   0.364   7.241   6.109
   94SAPC    HB 9103   0.435   7.070   6.086
   94SAPC    C2 9104   0.421   7.166   5.917
   94SAPC    HS 9105   0.493   7.253   5.919
   94SAPC   O21 9106   0.318   7.184   5.825
   94SAPC   C21 9107   0.277   7.302   5.833
   94SAPC   O22 9108   0.311   7.386   5.916
   94SAPC   C22 9109   0.214   7.318   5.696
   94SAPC   H2R 9110   0.110   7.321   5.688
   94SAPC   H2S 9111   0.236   7.411   5.657
   94SAPC    C3 9112   0.496   7.041   5.880
   94SAPC    HX 9113   0.580   7.029   5.952
   94SAPC    HY 9114   0.529   7.055   5.774
   94SAPC   O31 9115   0.419   6.930   5.900
   94SAPC   C31 9116   0.463   6.834   5.832
   94SAPC   O32 9117   0.555   6.835   5.751
   94SAPC   C32 9118   0.374   6.729   5.881
   94SAPC   H2X 9119   0.415   6.705   5.981
   94SAPC   H2Y 9120   0.390   6.635   5.838
   94SAPC   C23 9121   0.254   7.236   5.580
   94SAPC   H3R 9122   0.166   7.241   5.511
   94SAPC   H3S 9123   0.265   7.132   5.611
   94SAPC   C24 9124   0.375   7.308   5.520
   94SAPC   H4R 9125   0.369   7.417   5.527
   94SAPC   H4S 9126   0.370   7.294   5.411
   94SAPC   C25 9127   0.506   7.274   5.582
   94SAPC   H5R 9128   0.530   7.315   5.680
   94SAPC   C26 9129   0.595   7.191   5.530
   94SAPC   H6R 9130   0.694   7.167   5.558
   94SAPC   C27 9131   0.602   7.112   5.416
   94SAPC   H7R 9132   0.615   7.011   5.464
   94SAPC   H7S 9133   0.674   7.150   5.339
   94SAPC   C28 9134   0.496   7.111   5.330
   94SAPC   H8R 9135   0.415   7.090   5.412
   94SAPC   C29 9136   0.490   7.036   5.216
   94SAPC   H9R 9137   0.434   6.955   5.192
   94SAPC  C210 9138   0.540   6.955   5.108
   94SAPC  H10R 9139   0.540   6.836   5.118
   94SAPC  H10S 9140   0.621   6.986   5.112
   94SAPC  C211 9141   0.518   7.001   4.972
   94SAPC  H11R 9142   0.509   6.914   4.904
   94SAPC  C212 9143   0.512   7.122   4.924
   94SAPC  H12R 9144   0.492   7.129   4.817
   94SAPC  C213 9145   0.527   7.250   4.999
   94SAPC  H13R 9146   0.624   7.287   4.966
   94SAPC  H13S 9147   0.535   7.239   5.107
   94SAPC  C214 9148   0.426   7.355   4.968
   94SAPC  H14R 9149   0.347   7.369   5.042
   94SAPC  C215 9150   0.418   7.416   4.850
   94SAPC  H15R 9151   0.341   7.494   4.833
   94SAPC  C216 9152   0.509   7.386   4.735
   94SAPC  H16R 9153   0.571   7.295   4.744
   94SAPC  H16S 9154   0.586   7.462   4.723
   94SAPC  C217 9155   0.417   7.370   4.616
   94SAPC  H17R 9156   0.374   7.469   4.584
   94SAPC  H17S 9157   0.331   7.302   4.635
   94SAPC  C218 9158   0.485   7.319   4.495
   94SAPC  H18R 9159   0.494   7.208   4.493
   94SAPC  H18S 9160   0.586   7.364   4.476
   94SAPC  C219 9161   0.392   7.358   4.388
   94SAPC  H19R 9162   0.396   7.467   4.358
   94SAPC  H19S 9163   0.286   7.323   4.388
   94SAPC  C220 9164   0.453   7.285   4.285
   94SAPC  H20R 9165   0.372   7.315   4.214
   94SAPC  H20S 9166   0.461   7.177   4.264
   94SAPC  H20T 9167   0.553   7.335   4.268
   94SAPC   C33 9168   0.226   6.775   5.880
   94SAPC   H3X 9169   0.207   6.810   5.982
   94SAPC   H3Y 9170   0.163   6.693   5.852
   94SAPC   C34 9171   0.141   6.841   5.767
   94SAPC   H4X 9172   0.191   6.938   5.752
   94SAPC   H4Y 9173   0.036   6.836   5.791
   94SAPC   C35 9174   0.104   6.757   5.642
   94SAPC   H5X 9175   0.088   6.648   5.633
   94SAPC   H5Y 9176   0.203   6.766   5.673
   94SAPC   C36 9177   0.069   6.811   5.504
   94SAPC   H6X 9178   0.114   6.911   5.491
   94SAPC   H6Y 9179  -0.038   6.818   5.515
   94SAPC   C37 9180   0.093   6.711   5.388
   94SAPC   H7X 9181   0.074   6.603   5.397
   94SAPC   H7Y 9182   0.190   6.681   5.406
   94SAPC   C38 9183   0.063   6.756   5.246
   94SAPC   H8X 9184   0.079   6.858   5.209
   94SAPC   H8Y 9185  -0.042   6.765   5.238
   94SAPC   C39 9186   0.144   6.676   5.149
   94SAPC   H9X 9187   0.101   6.581   5.150
   94SAPC   H9Y 9188   0.256   6.677   5.156
   94SAPC  C310 9189   0.087   6.697   5.018
   94SAPC  H10X 9190   0.165   6.758   4.992
   94SAPC  H10Y 9191  -0.002   6.761   5.007
   94SAPC  C311 9192   0.148   6.633   4.906
   94SAPC  H11X 9193   0.109   6.536   4.891
   94SAPC  H11Y 9194   0.263   6.642   4.893
   94SAPC  C312 9195   0.097   6.706   4.794
   94SAPC  H12X 9196   0.143   6.629   4.732
   94SAPC  H12Y 9197   0.171   6.784   4.794
   94SAPC  C313 9198  -0.047   6.756   4.741
   94SAPC  H13X 9199  -0.080   6.848   4.784
   94SAPC  H13Y 9200  -0.106   6.672   4.778
   94SAPC  C314 9201  -0.100   6.785   4.591
   94SAPC  H14X 9202  -0.207   6.777   4.579
   94SAPC  H14Y 9203  -0.085   6.688   4.556
   94SAPC  C315 9204  -0.072   6.910   4.493
   94SAPC  H15X 9205  -0.108   6.890   4.392
   94SAPC  H15Y 9206   0.029   6.942   4.455
   94SAPC  C316 9207  -0.100   7.039   4.557
   94SAPC  H16X 9208  -0.037   7.059   4.645
   94SAPC  H16Y 9209  -0.202   7.029   4.596
   94SAPC  C317 9210  -0.081   7.144   4.450
   94SAPC  H17X 9211  -0.134   7.231   4.493
   94SAPC  H17Y 9212  -0.135   7.118   4.357
   94SAPC  C318 9213   0.064   7.176   4.407
   94SAPC  H18X 9214   0.056   7.253   4.327
   94SAPC  H18Y 9215   0.124   7.095   4.363
   94SAPC  H18Z 9216   0.120   7.224   4.490
   95SAPC     N 9217   4.871   2.583   2.145
   95SAPC   C12 9218   4.940   2.709   2.093
   95SAPC  H12A 9219   4.934   2.710   1.986
   95SAPC  H12B 9220   5.046   2.703   2.119
   95SAPC   C13 9221   4.895   2.577   2.292
   95SAPC  H13A 9222   4.854   2.669   2.336
   95SAPC  H13B 9223   4.849   2.494   2.343
   95SAPC  H13C 9224   5.001   2.583   2.316
   95SAPC   C14 9225   4.725   2.591   2.119
   95SAPC  H14A 9226   4.678   2.517   2.182
   95SAPC  H14B 9227   4.686   2.689   2.146
   95SAPC  H14C 9228   4.703   2.571   2.015
   95SAPC   C15 9229   4.921   2.463   2.073
   95SAPC  H15A 9230   4.892   2.371   2.122
   95SAPC  H15B 9231   4.882   2.467   1.972
   95SAPC  H15C 9232   5.029   2.466   2.063
   95SAPC   C11 9233   4.891   2.849   2.143
   95SAPC  H11A 9234   4.793   2.872   2.097
   95SAPC  H11B 9235   4.965   2.924   2.105
   95SAPC     P 9236   4.977   2.909   2.387
   95SAPC   O13 9237   5.005   3.053   2.369
   95SAPC   O14 9238   4.946   2.859   2.522
   95SAPC   O12 9239   4.870   2.858   2.284
   95SAPC   O11 9240   5.094   2.821   2.337
   95SAPC    C1 9241   5.201   2.883   2.274
   95SAPC    HA 9242   5.239   2.814   2.193
   95SAPC    HB 9243   5.189   2.984   2.227
   95SAPC    C2 9244   5.313   2.900   2.371
   95SAPC    HS 9245   5.378   2.890   2.286
   95SAPC   O21 9246   5.336   2.802   2.472
   95SAPC   C21 9247   5.342   2.675   2.433
   95SAPC   O22 9248   5.372   2.628   2.326
   95SAPC   C22 9249   5.317   2.597   2.555
   95SAPC   H2R 9250   5.355   2.493   2.542
   95SAPC   H2S 9251   5.366   2.651   2.637
   95SAPC    C3 9252   5.317   3.039   2.450
   95SAPC    HX 9253   5.299   3.115   2.378
   95SAPC    HY 9254   5.409   3.094   2.478
   95SAPC   O31 9255   5.254   3.035   2.574
   95SAPC   C31 9256   5.240   3.146   2.639
   95SAPC   O32 9257   5.290   3.254   2.620
   95SAPC   C32 9258   5.164   3.106   2.757
   95SAPC   H2X 9259   5.229   3.041   2.818
   95SAPC   H2Y 9260   5.075   3.056   2.712
   95SAPC   C23 9261   5.183   2.617   2.613
   95SAPC   H3R 9262   5.114   2.643   2.530
   95SAPC   H3S 9263   5.188   2.704   2.683
   95SAPC   C24 9264   5.140   2.489   2.679
   95SAPC   H4R 9265   5.149   2.409   2.603
   95SAPC   H4S 9266   5.034   2.506   2.703
   95SAPC   C25 9267   5.204   2.444   2.805
   95SAPC   H5R 9268   5.250   2.343   2.802
   95SAPC   C26 9269   5.229   2.515   2.915
   95SAPC   H6R 9270   5.279   2.452   2.989
   95SAPC   C27 9271   5.211   2.657   2.964
   95SAPC   H7R 9272   5.271   2.734   2.907
   95SAPC   H7S 9273   5.256   2.662   3.065
   95SAPC   C28 9274   5.069   2.700   2.977
   95SAPC   H8R 9275   5.039   2.769   2.897
   95SAPC   C29 9276   4.981   2.665   3.073
   95SAPC   H9R 9277   4.878   2.699   3.060
   95SAPC  C210 9278   5.005   2.574   3.191
   95SAPC  H10R 9279   5.114   2.569   3.211
   95SAPC  H10S 9280   4.972   2.473   3.157
   95SAPC  C211 9281   4.932   2.606   3.320
   95SAPC  H11R 9282   4.828   2.640   3.307
   95SAPC  C212 9283   4.982   2.603   3.446
   95SAPC  H12R 9284   4.912   2.623   3.530
   95SAPC  C213 9285   5.124   2.568   3.487
   95SAPC  H13R 9286   5.176   2.662   3.519
   95SAPC  H13S 9287   5.183   2.532   3.401
   95SAPC  C214 9288   5.134   2.463   3.595
   95SAPC  H14R 9289   5.124   2.359   3.562
   95SAPC  C215 9290   5.172   2.481   3.722
   95SAPC  H15R 9291   5.184   2.392   3.786
   95SAPC  C216 9292   5.211   2.613   3.779
   95SAPC  H16R 9293   5.209   2.618   3.890
   95SAPC  H16S 9294   5.148   2.696   3.740
   95SAPC  C217 9295   5.352   2.637   3.729
   95SAPC  H17R 9296   5.353   2.749   3.732
   95SAPC  H17S 9297   5.375   2.611   3.624
   95SAPC  C218 9298   5.457   2.563   3.812
   95SAPC  H18R 9299   5.560   2.586   3.772
   95SAPC  H18S 9300   5.444   2.454   3.802
   95SAPC  C219 9301   5.456   2.591   3.958
   95SAPC  H19R 9302   5.376   2.555   4.025
   95SAPC  H19S 9303   5.420   2.699   3.968
   95SAPC  C220 9304   5.595   2.541   4.010
   95SAPC  H20R 9305   5.679   2.611   4.020
   95SAPC  H20S 9306   5.648   2.452   3.998
   95SAPC  H20T 9307   5.573   2.506   4.110
   95SAPC   C33 9308   5.123   3.222   2.841
   95SAPC   H3X 9309   5.133   3.305   2.772
   95SAPC   H3Y 9310   5.191   3.256   2.919
   95SAPC   C34 9311   4.985   3.194   2.900
   95SAPC   H4X 9312   4.915   3.162   2.820
   95SAPC   H4Y 9313   4.945   3.288   2.944
   95SAPC   C35 9314   4.994   3.093   3.014
   95SAPC   H5X 9315   5.049   3.001   2.985
   95SAPC   H5Y 9316   4.892   3.068   3.050
   95SAPC   C36 9317   5.068   3.148   3.134
   95SAPC   H6X 9318   5.021   3.241   3.163
   95SAPC   H6Y 9319   5.173   3.178   3.110
   95SAPC   C37 9320   5.051   3.063   3.258
   95SAPC   H7X 9321   5.124   2.980   3.247
   95SAPC   H7Y 9322   4.959   3.007   3.260
   95SAPC   C38 9323   5.052   3.148   3.390
   95SAPC   H8X 9324   4.999   3.239   3.393
   95SAPC   H8Y 9325   5.134   3.216   3.355
   95SAPC   C39 9326   5.063   3.053   3.528
   95SAPC   H9X 9327   5.120   2.960   3.509
   95SAPC   H9Y 9328   4.961   3.035   3.548
   95SAPC  C310 9329   5.121   3.074   3.678
   95SAPC  H10X 9330   5.227   3.083   3.693
   95SAPC  H10Y 9331   5.152   3.001   3.750
   95SAPC  C311 9332   5.112   3.208   3.723
   95SAPC  H11X 9333   5.113   3.225   3.618
   95SAPC  H11Y 9334   5.199   3.262   3.754
   95SAPC  C312 9335   5.000   3.261   3.793
   95SAPC  H12X 9336   4.914   3.226   3.733
   95SAPC  H12Y 9337   4.995   3.373   3.804
   95SAPC  C313 9338   5.037   3.205   3.921
   95SAPC  H13X 9339   5.115   3.273   3.963
   95SAPC  H13Y 9340   5.082   3.104   3.910
   95SAPC  C314 9341   4.904   3.194   3.979
   95SAPC  H14X 9342   4.851   3.116   3.922
   95SAPC  H14Y 9343   4.853   3.293   3.965
   95SAPC  C315 9344   4.911   3.158   4.122
   95SAPC  H15X 9345   4.811   3.169   4.168
   95SAPC  H15Y 9346   4.979   3.235   4.163
   95SAPC  C316 9347   4.964   3.017   4.148
   95SAPC  H16X 9348   4.990   3.007   4.256
   95SAPC  H16Y 9349   5.055   3.006   4.087
   95SAPC  C317 9350   4.867   2.903   4.116
   95SAPC  H17X 9351   4.824   2.918   4.015
   95SAPC  H17Y 9352   4.783   2.901   4.190
   95SAPC  C318 9353   4.939   2.768   4.113
   95SAPC  H18X 9354   5.000   2.750   4.204
   95SAPC  H18Y 9355   5.011   2.770   4.027
   95SAPC  H18Z 9356   4.866   2.686   4.098
   96SAPC     N 9357   4.535   2.118   2.423
   96SAPC   C12 9358   4.568   2.026   2.306
   96SAPC  H12A 9359   4.615   1.937   2.345
   96SAPC  H12B 9360   4.642   2.073   2.241
   96SAPC   C13 9361   4.413   2.072   2.496
   96SAPC  H13A 9362   4.418   1.968   2.525
   96SAPC  H13B 9363   4.398   2.133   2.584
   96SAPC  H13C 9364   4.324   2.082   2.433
   96SAPC   C14 9365   4.652   2.128   2.514
   96SAPC  H14A 9366   4.622   2.178   2.606
   96SAPC  H14B 9367   4.695   2.032   2.535
   96SAPC  H14C 9368   4.730   2.187   2.466
   96SAPC   C15 9369   4.506   2.255   2.374
   96SAPC  H15A 9370   4.418   2.253   2.310
   96SAPC  H15B 9371   4.487   2.321   2.458
   96SAPC  H15C 9372   4.589   2.290   2.315
   96SAPC   C11 9373   4.458   1.985   2.205
   96SAPC  H11A 9374   4.367   1.941   2.254
   96SAPC  H11B 9375   4.502   1.905   2.143
   96SAPC     P 9376   4.292   2.139   2.071
   96SAPC   O13 9377   4.289   2.277   2.019
   96SAPC   O14 9378   4.227   2.035   1.988
   96SAPC   O12 9379   4.434   2.097   2.120
   96SAPC   O11 9380   4.229   2.138   2.218
   96SAPC    C1 9381   4.093   2.164   2.233
   96SAPC    HA 9382   4.040   2.108   2.155
   96SAPC    HB 9383   4.046   2.107   2.315
   96SAPC    C2 9384   4.066   2.318   2.248
   96SAPC    HS 9385   4.091   2.373   2.155
   96SAPC   O21 9386   4.148   2.372   2.341
   96SAPC   C21 9387   4.130   2.492   2.373
   96SAPC   O22 9388   4.055   2.579   2.330
   96SAPC   C22 9389   4.231   2.499   2.477
   96SAPC   H2R 9390   4.259   2.399   2.518
   96SAPC   H2S 9391   4.320   2.553   2.438
   96SAPC    C3 9392   3.923   2.333   2.295
   96SAPC    HX 9393   3.848   2.288   2.241
   96SAPC    HY 9394   3.890   2.442   2.287
   96SAPC   O31 9395   3.912   2.260   2.419
   96SAPC   C31 9396   3.828   2.156   2.448
   96SAPC   O32 9397   3.770   2.097   2.358
   96SAPC   C32 9398   3.814   2.125   2.608
   96SAPC   H2X 9399   3.745   2.151   2.688
   96SAPC   H2Y 9400   3.767   2.197   2.676
   96SAPC   C23 9401   4.159   2.561   2.587
   96SAPC   H3R 9402   4.060   2.530   2.623
   96SAPC   H3S 9403   4.122   2.652   2.540
   96SAPC   C24 9404   4.247   2.559   2.707
   96SAPC   H4R 9405   4.229   2.483   2.784
   96SAPC   H4S 9406   4.174   2.630   2.748
   96SAPC   C25 9407   4.395   2.598   2.692
   96SAPC   H5R 9408   4.412   2.690   2.633
   96SAPC   C26 9409   4.499   2.535   2.751
   96SAPC   H6R 9410   4.602   2.570   2.732
   96SAPC   C27 9411   4.488   2.415   2.841
   96SAPC   H7R 9412   4.536   2.330   2.790
   96SAPC   H7S 9413   4.383   2.383   2.853
   96SAPC   C28 9414   4.551   2.430   2.978
   96SAPC   H8R 9415   4.661   2.430   2.978
   96SAPC   C29 9416   4.486   2.429   3.096
   96SAPC   H9R 9417   4.543   2.443   3.189
   96SAPC  C210 9418   4.337   2.411   3.114
   96SAPC  H10R 9419   4.319   2.326   3.181
   96SAPC  H10S 9420   4.286   2.388   3.020
   96SAPC  C211 9421   4.266   2.527   3.174
   96SAPC  H11R 9422   4.279   2.618   3.118
   96SAPC  C212 9423   4.207   2.531   3.294
   96SAPC  H12R 9424   4.145   2.615   3.320
   96SAPC  C213 9425   4.199   2.422   3.396
   96SAPC  H13R 9426   4.176   2.328   3.342
   96SAPC  H13S 9427   4.114   2.442   3.464
   96SAPC  C214 9428   4.322   2.396   3.478
   96SAPC  H14R 9429   4.358   2.294   3.463
   96SAPC  C215 9430   4.388   2.478   3.562
   96SAPC  H15R 9431   4.475   2.441   3.618
   96SAPC  C216 9432   4.350   2.620   3.593
   96SAPC  H16R 9433   4.244   2.639   3.565
   96SAPC  H16S 9434   4.412   2.689   3.532
   96SAPC  C217 9435   4.370   2.650   3.743
   96SAPC  H17R 9436   4.361   2.760   3.761
   96SAPC  H17S 9437   4.470   2.619   3.779
   96SAPC  C218 9438   4.263   2.578   3.822
   96SAPC  H18R 9439   4.268   2.467   3.809
   96SAPC  H18S 9440   4.169   2.616   3.778
   96SAPC  C219 9441   4.261   2.602   3.972
   96SAPC  H19R 9442   4.172   2.553   4.016
   96SAPC  H19S 9443   4.253   2.711   3.988
   96SAPC  C220 9444   4.387   2.553   4.038
   96SAPC  H20R 9445   4.375   2.536   4.147
   96SAPC  H20S 9446   4.464   2.631   4.020
   96SAPC  H20T 9447   4.419   2.460   3.987
   96SAPC   C33 9448   3.931   2.113   2.688
   96SAPC   H3X 9449   3.903   2.015   2.650
   96SAPC   H3Y 9450   3.880   2.117   2.795
   96SAPC   C34 9451   4.072   2.194   2.648
   96SAPC   H4X 9452   4.089   2.307   2.655
   96SAPC   H4Y 9453   4.085   2.203   2.541
   96SAPC   C35 9454   4.197   2.175   2.727
   96SAPC   H5X 9455   4.188   2.194   2.833
   96SAPC   H5Y 9456   4.274   2.251   2.734
   96SAPC   C36 9457   4.197   2.033   2.748
   96SAPC   H6X 9458   4.186   1.982   2.651
   96SAPC   H6Y 9459   4.098   2.023   2.778
   96SAPC   C37 9460   4.277   1.994   2.872
   96SAPC   H7X 9461   4.360   2.064   2.853
   96SAPC   H7Y 9462   4.289   1.887   2.850
   96SAPC   C38 9463   4.234   2.010   3.023
   96SAPC   H8X 9464   4.175   1.925   3.064
   96SAPC   H8Y 9465   4.179   2.101   3.045
   96SAPC   C39 9466   4.334   1.972   3.126
   96SAPC   H9X 9467   4.400   2.060   3.119
   96SAPC   H9Y 9468   4.379   1.880   3.082
   96SAPC  C310 9469   4.272   1.944   3.265
   96SAPC  H10X 9470   4.208   1.852   3.268
   96SAPC  H10Y 9471   4.205   2.027   3.299
   96SAPC  C311 9472   4.388   1.927   3.361
   96SAPC  H11X 9473   4.441   2.024   3.358
   96SAPC  H11Y 9474   4.455   1.848   3.321
   96SAPC  C312 9475   4.348   1.882   3.502
   96SAPC  H12X 9476   4.440   1.858   3.560
   96SAPC  H12Y 9477   4.291   1.787   3.494
   96SAPC  C313 9478   4.266   1.989   3.575
   96SAPC  H13X 9479   4.162   1.987   3.534
   96SAPC  H13Y 9480   4.304   2.090   3.550
   96SAPC  C314 9481   4.270   1.969   3.727
   96SAPC  H14X 9482   4.374   1.946   3.762
   96SAPC  H14Y 9483   4.206   1.883   3.752
   96SAPC  C315 9484   4.226   2.090   3.807
   96SAPC  H15X 9485   4.276   2.180   3.764
   96SAPC  H15Y 9486   4.255   2.083   3.914
   96SAPC  C316 9487   4.075   2.113   3.806
   96SAPC  H16X 9488   4.044   2.130   3.700
   96SAPC  H16Y 9489   4.067   2.207   3.864
   96SAPC  C317 9490   3.984   2.020   3.887
   96SAPC  H17X 9491   3.990   1.919   3.842
   96SAPC  H17Y 9492   3.878   2.052   3.880
   96SAPC  C318 9493   4.012   2.018   4.038
   96SAPC  H18X 9494   4.109   1.968   4.058
   96SAPC  H18Y 9495   3.933   1.961   4.091
   96SAPC  H18Z 9496   4.013   2.121   4.082
   97SAPC     N 9497   2.271   2.054   2.206
   97SAPC   C12 9498   2.416   2.014   2.173
   97SAPC  H12A 9499   2.481   2.031   2.259
   97SAPC  H12B 9500   2.452   2.078   2.095
   97SAPC   C13 9501   2.256   2.200   2.233
   97SAPC  H13A 9502   2.267   2.260   2.143
   97SAPC  H13B 9503   2.157   2.222   2.270
   97SAPC  H13C 9504   2.325   2.233   2.309
   97SAPC   C14 9505   2.183   2.025   2.089
   97SAPC  H14A 9506   2.178   1.918   2.074
   97SAPC  H14B 9507   2.084   2.062   2.107
   97SAPC  H14C 9508   2.225   2.071   2.000
   97SAPC   C15 9509   2.221   1.981   2.327
   97SAPC  H15A 9510   2.222   1.873   2.311
   97SAPC  H15B 9511   2.284   2.000   2.413
   97SAPC  H15C 9512   2.120   2.013   2.351
   97SAPC   C11 9513   2.445   1.870   2.125
   97SAPC  H11A 9514   2.552   1.866   2.089
   97SAPC  H11B 9515   2.389   1.846   2.035
   97SAPC     P 9516   2.534   1.727   2.315
   97SAPC   O13 9517   2.570   1.593   2.263
   97SAPC   O14 9518   2.634   1.834   2.318
   97SAPC   O12 9519   2.412   1.775   2.226
   97SAPC   O11 9520   2.469   1.708   2.459
   97SAPC    C1 9521   2.373   1.606   2.481
   97SAPC    HA 9522   2.333   1.559   2.387
   97SAPC    HB 9523   2.420   1.524   2.539
   97SAPC    C2 9524   2.253   1.666   2.557
   97SAPC    HS 9525   2.201   1.735   2.487
   97SAPC   O21 9526   2.295   1.737   2.675
   97SAPC   C21 9527   2.196   1.800   2.735
   97SAPC   O22 9528   2.083   1.814   2.690
   97SAPC   C22 9529   2.248   1.857   2.864
   97SAPC   H2R 9530   2.268   1.774   2.935
   97SAPC   H2S 9531   2.345   1.906   2.843
   97SAPC    C3 9532   2.164   1.552   2.602
   97SAPC    HX 9533   2.124   1.502   2.510
   97SAPC    HY 9534   2.080   1.593   2.654
   97SAPC   O31 9535   2.240   1.471   2.695
   97SAPC   C31 9536   2.181   1.390   2.793
   97SAPC   O32 9537   2.073   1.391   2.826
   97SAPC   C32 9538   2.242   1.273   2.860
   97SAPC   H2X 9539   2.247   1.168   2.838
   97SAPC   H2Y 9540   2.221   1.215   2.947
   97SAPC   C23 9541   2.151   1.960   2.923
   97SAPC   H3R 9542   2.049   1.916   2.939
   97SAPC   H3S 9543   2.138   2.044   2.850
   97SAPC   C24 9544   2.208   2.015   3.053
   97SAPC   H4R 9545   2.312   2.045   3.040
   97SAPC   H4S 9546   2.210   1.933   3.128
   97SAPC   C25 9547   2.119   2.131   3.084
   97SAPC   H5R 9548   2.141   2.228   3.042
   97SAPC   C26 9549   2.044   2.136   3.193
   97SAPC   H6R 9550   1.966   2.213   3.197
   97SAPC   C27 9551   2.022   2.047   3.309
   97SAPC   H7R 9552   1.944   2.090   3.380
   97SAPC   H7S 9553   2.108   2.017   3.371
   97SAPC   C28 9554   1.982   1.937   3.223
   97SAPC   H8R 9555   1.886   1.951   3.181
   97SAPC   C29 9556   2.029   1.816   3.223
   97SAPC   H9R 9557   1.934   1.765   3.223
   97SAPC  C210 9558   2.132   1.739   3.297
   97SAPC  H10R 9559   2.204   1.815   3.314
   97SAPC  H10S 9560   2.152   1.650   3.237
   97SAPC  C211 9561   2.122   1.678   3.430
   97SAPC  H11R 9562   2.034   1.684   3.466
   97SAPC  C212 9563   2.181   1.624   3.526
   97SAPC  H12R 9564   2.133   1.593   3.623
   97SAPC  C213 9565   2.318   1.615   3.504
   97SAPC  H13R 9566   2.356   1.671   3.416
   97SAPC  H13S 9567   2.323   1.507   3.488
   97SAPC  C214 9568   2.359   1.667   3.635
   97SAPC  H14R 9569   2.451   1.730   3.627
   97SAPC  C215 9570   2.350   1.580   3.737
   97SAPC  H15R 9571   2.387   1.630   3.827
   97SAPC  C216 9572   2.306   1.424   3.748
   97SAPC  H16R 9573   2.283   1.377   3.652
   97SAPC  H16S 9574   2.205   1.448   3.780
   97SAPC  C217 9575   2.385   1.291   3.834
   97SAPC  H17R 9576   2.492   1.265   3.810
   97SAPC  H17S 9577   2.388   1.191   3.819
   97SAPC  C218 9578   2.422   1.275   3.978
   97SAPC  H18R 9579   2.469   1.375   3.968
   97SAPC  H18S 9580   2.491   1.196   3.999
   97SAPC  C219 9581   2.326   1.241   4.093
   97SAPC  H19R 9582   2.284   1.150   4.070
   97SAPC  H19S 9583   2.225   1.263   4.075
   97SAPC  C220 9584   2.332   1.309   4.232
   97SAPC  H20R 9585   2.368   1.410   4.247
   97SAPC  H20S 9586   2.367   1.235   4.298
   97SAPC  H20T 9587   2.236   1.350   4.265
   97SAPC   C33 9588   2.363   1.314   2.852
   97SAPC   H3X 9589   2.413   1.377   2.761
   97SAPC   H3Y 9590   2.420   1.233   2.864
   97SAPC   C34 9591   2.427   1.304   3.001
   97SAPC   H4X 9592   2.418   1.229   3.054
   97SAPC   H4Y 9593   2.321   1.358   3.007
   97SAPC   C35 9594   2.623   1.436   3.068
   97SAPC   H5X 9595   2.675   1.491   2.975
   97SAPC   H5Y 9596   2.702   1.375   3.087
   97SAPC   C36 9597   2.627   1.612   3.084
   97SAPC   H6X 9598   2.716   1.628   3.077
   97SAPC   H6Y 9599   2.601   1.568   3.171
   97SAPC   C37 9600   2.532   1.745   3.063
   97SAPC   H7X 9601   2.426   1.742   3.095
   97SAPC   H7Y 9602   2.524   1.764   2.955
   97SAPC   C38 9603   2.558   1.866   3.142
   97SAPC   H8X 9604   2.547   1.953   3.076
   97SAPC   H8Y 9605   2.662   1.866   3.151
   97SAPC   C39 9606   2.489   1.879   3.277
   97SAPC   H9X 9607   2.516   1.805   3.355
   97SAPC   H9Y 9608   2.380   1.875   3.264
   97SAPC  C310 9609   2.535   2.013   3.327
   97SAPC  H10X 9610   2.485   2.091   3.267
   97SAPC  H10Y 9611   2.645   2.022   3.308
   97SAPC  C311 9612   2.511   2.032   3.476
   97SAPC  H11X 9613   2.552   2.133   3.480
   97SAPC  H11Y 9614   2.577   1.966   3.536
   97SAPC  C312 9615   2.366   2.025   3.526
   97SAPC  H12X 9616   2.324   1.926   3.497
   97SAPC  H12Y 9617   2.304   2.102   3.475
   97SAPC  C313 9618   2.353   2.034   3.679
   97SAPC  H13X 9619   2.353   2.141   3.708
   97SAPC  H13Y 9620   2.444   1.990   3.725
   97SAPC  C314 9621   2.228   1.965   3.736
   97SAPC  H14X 9622   2.198   1.871   3.685
   97SAPC  H14Y 9623   2.143   2.034   3.722
   97SAPC  C315 9624   2.237   1.932   3.885
   97SAPC  H15X 9625   2.262   2.022   3.945
   97SAPC  H15Y 9626   2.313   1.853   3.906
   97SAPC  C316 9627   2.104   1.876   3.930
   97SAPC  H16X 9628   2.105   1.774   3.886
   97SAPC  H16Y 9629   2.014   1.933   3.896
   97SAPC  C317 9630   2.092   1.874   4.079
   97SAPC  H17X 9631   2.062   1.974   4.114
   97SAPC  H17Y 9632   2.191   1.848   4.124
   97SAPC  C318 9633   1.981   1.783   4.120
   97SAPC  H18X 9634   1.985   1.781   4.222
   97SAPC  H18Y 9635   1.998   1.678   4.111
   97SAPC  H18Z 9636   1.879   1.816   4.100
   98SAPC     N 9637   0.630   2.854   2.092
   98SAPC   C12 9638   0.512   2.945   2.084
   98SAPC  H12A 9639   0.432   2.891   2.035
   98SAPC  H12B 9640   0.540   3.027   2.018
   98SAPC   C13 9641   0.607   2.758   2.204
   98SAPC  H13A 9642   0.589   2.814   2.296
   98SAPC  H13B 9643   0.518   2.697   2.186
   98SAPC  H13C 9644   0.691   2.692   2.216
   98SAPC   C14 9645   0.646   2.781   1.963
   98SAPC  H14A 9646   0.745   2.740   1.954
   98SAPC  H14B 9647   0.574   2.701   1.952
   98SAPC  H14C 9648   0.632   2.849   1.879
   98SAPC   C15 9649   0.750   2.940   2.110
   98SAPC  H15A 9650   0.746   3.021   2.039
   98SAPC  H15B 9651   0.745   2.986   2.209
   98SAPC  H15C 9652   0.840   2.885   2.093
   98SAPC   C11 9653   0.459   3.006   2.216
   98SAPC  H11A 9654   0.421   2.930   2.289
   98SAPC  H11B 9655   0.370   3.063   2.184
   98SAPC     P 9656   0.522   3.171   2.414
   98SAPC   O13 9657   0.652   3.216   2.469
   98SAPC   O14 9658   0.419   3.273   2.385
   98SAPC   O12 9659   0.555   3.092   2.277
   98SAPC   O11 9660   0.456   3.062   2.509
   98SAPC    C1 9661   0.540   2.962   2.565
   98SAPC    HA 9662   0.613   2.924   2.491
   98SAPC    HB 9663   0.592   3.003   2.655
   98SAPC    C2 9664   0.460   2.845   2.622
   98SAPC    HS 9665   0.397   2.798   2.542
   98SAPC   O21 9666   0.382   2.906   2.720
   98SAPC   C21 9667   0.283   2.837   2.756
   98SAPC   O22 9668   0.227   2.751   2.693
   98SAPC   C22 9669   0.249   2.892   2.886
   98SAPC   H2R 9670   0.229   2.996   2.852
   98SAPC   H2S 9671   0.172   2.825   2.932
   98SAPC    C3 9672   0.546   2.736   2.691
   98SAPC    HX 9673   0.602   2.677   2.617
   98SAPC    HY 9674   0.477   2.668   2.740
   98SAPC   O31 9675   0.629   2.786   2.797
   98SAPC   C31 9676   0.757   2.802   2.769
   98SAPC   O32 9677   0.810   2.774   2.663
   98SAPC   C32 9678   0.826   2.869   2.887
   98SAPC   H2X 9679   0.920   2.908   2.844
   98SAPC   H2Y 9680   0.854   2.791   2.960
   98SAPC   C23 9681   0.348   2.925   2.991
   98SAPC   H3R 9682   0.308   2.998   3.063
   98SAPC   H3S 9683   0.431   2.978   2.942
   98SAPC   C24 9684   0.386   2.792   3.047
   98SAPC   H4R 9685   0.486   2.814   3.086
   98SAPC   H4S 9686   0.392   2.720   2.963
   98SAPC   C25 9687   0.296   2.730   3.148
   98SAPC   H5R 9688   0.200   2.698   3.109
   98SAPC   C26 9689   0.311   2.722   3.280
   98SAPC   H6R 9690   0.238   2.662   3.336
   98SAPC   C27 9691   0.425   2.775   3.358
   98SAPC   H7R 9692   0.388   2.812   3.454
   98SAPC   H7S 9693   0.476   2.858   3.304
   98SAPC   C28 9694   0.517   2.665   3.390
   98SAPC   H8R 9695   0.474   2.566   3.411
   98SAPC   C29 9696   0.648   2.678   3.371
   98SAPC   H9R 9697   0.706   2.584   3.379
   98SAPC  C210 9698   0.721   2.798   3.318
   98SAPC  H10R 9699   0.706   2.877   3.394
   98SAPC  H10S 9700   0.686   2.837   3.219
   98SAPC  C211 9701   0.860   2.748   3.308
   98SAPC  H11R 9702   0.903   2.730   3.207
   98SAPC  C212 9703   0.939   2.736   3.414
   98SAPC  H12R 9704   1.041   2.698   3.392
   98SAPC  C213 9705   0.910   2.772   3.556
   98SAPC  H13R 9706   0.826   2.841   3.568
   98SAPC  H13S 9707   0.992   2.816   3.614
   98SAPC  C214 9708   0.896   2.645   3.621
   98SAPC  H14R 9709   0.988   2.593   3.599
   98SAPC  C215 9710   0.804   2.606   3.707
   98SAPC  H15R 9711   0.814   2.506   3.749
   98SAPC  C216 9712   0.691   2.692   3.758
   98SAPC  H16R 9713   0.596   2.669   3.705
   98SAPC  H16S 9714   0.712   2.801   3.742
   98SAPC  C217 9715   0.665   2.661   3.907
   98SAPC  H17R 9716   0.687   2.554   3.929
   98SAPC  H17S 9717   0.566   2.697   3.937
   98SAPC  C218 9718   0.759   2.732   3.999
   98SAPC  H18R 9719   0.764   2.839   3.968
   98SAPC  H18S 9720   0.845   2.675   3.958
   98SAPC  C219 9721   0.758   2.707   4.156
   98SAPC  H19R 9722   0.768   2.599   4.171
   98SAPC  H19S 9723   0.660   2.745   4.185
   98SAPC  C220 9724   0.859   2.764   4.263
   98SAPC  H20R 9725   0.870   2.874   4.241
   98SAPC  H20S 9726   0.963   2.727   4.262
   98SAPC  H20T 9727   0.847   2.744   4.370
   98SAPC   C33 9728   0.741   2.986   2.946
   98SAPC   H3X 9729   0.650   2.947   2.997
   98SAPC   H3Y 9730   0.706   3.056   2.867
   98SAPC   C34 9731   0.819   3.079   3.037
   98SAPC   H4X 9732   0.906   3.111   2.977
   98SAPC   H4Y 9733   0.848   3.024   3.130
   98SAPC   C35 9734   0.749   3.210   3.069
   98SAPC   H5X 9735   0.754   3.277   2.980
   98SAPC   H5Y 9736   0.804   3.265   3.150
   98SAPC   C36 9737   0.604   3.186   3.104
   98SAPC   H6X 9738   0.581   3.093   3.160
   98SAPC   H6Y 9739   0.539   3.193   3.013
   98SAPC   C37 9740   0.554   3.289   3.197
   98SAPC   H7X 9741   0.539   3.370   3.127
   98SAPC   H7Y 9742   0.626   3.315   3.279
   98SAPC   C38 9743   0.406   3.275   3.220
   98SAPC   H8X 9744   0.352   3.250   3.128
   98SAPC   H8Y 9745   0.360   3.372   3.225
   98SAPC   C39 9746   0.375   3.187   3.337
   98SAPC   H9X 9747   0.412   3.087   3.308
   98SAPC   H9Y 9748   0.264   3.192   3.348
   98SAPC  C310 9749   0.440   3.211   3.472
   98SAPC  H10X 9750   0.413   3.314   3.494
   98SAPC  H10Y 9751   0.550   3.219   3.477
   98SAPC  C311 9752   0.392   3.100   3.569
   98SAPC  H11X 9753   0.435   3.005   3.537
   98SAPC  H11Y 9754   0.279   3.098   3.569
   98SAPC  C312 9755   0.448   3.112   3.710
   98SAPC  H12X 9756   0.379   3.177   3.751
   98SAPC  H12Y 9757   0.543   3.164   3.724
   98SAPC  C313 9758   0.401   3.028   3.823
   98SAPC  H13X 9759   0.418   2.925   3.793
   98SAPC  H13Y 9760   0.290   3.043   3.835
   98SAPC  C314 9761   0.494   3.059   3.943
   98SAPC  H14X 9762   0.493   3.162   3.989
   98SAPC  H14Y 9763   0.593   3.027   3.914
   98SAPC  C315 9764   0.475   2.970   4.058
   98SAPC  H15X 9765   0.453   2.862   4.050
   98SAPC  H15Y 9766   0.383   3.022   4.043
   98SAPC  C316 9767   0.529   3.017   4.192
   98SAPC  H16X 9768   0.635   3.001   4.185
   98SAPC  H16Y 9769   0.519   2.945   4.273
   98SAPC  C317 9770   0.469   3.149   4.256
   98SAPC  H17X 9771   0.361   3.176   4.269
   98SAPC  H17Y 9772   0.514   3.227   4.202
   98SAPC  C318 9773   0.494   3.155   4.398
   98SAPC  H18X 9774   0.571   3.082   4.387
   98SAPC  H18Y 9775   0.472   3.090   4.481
   98SAPC  H18Z 9776   0.525   3.253   4.433
   99SAPC     N 9777   1.690   6.435   2.056
   99SAPC   C12 9778   1.756   6.374   2.178
   99SAPC  H12A 9779   1.862   6.366   2.154
   99SAPC  H12B 9780   1.715   6.275   2.195
   99SAPC   C13 9781   1.693   6.585   2.069
   99SAPC  H13A 9782   1.657   6.619   2.168
   99SAPC  H13B 9783   1.792   6.621   2.052
   99SAPC  H13C 9784   1.628   6.631   1.998
   99SAPC   C14 9785   1.760   6.388   1.932
   99SAPC  H14A 9786   1.867   6.398   1.939
   99SAPC  H14B 9787   1.736   6.283   1.912
   99SAPC  H14C 9788   1.725   6.446   1.847
   99SAPC   C15 9789   1.547   6.389   2.049
   99SAPC  H15A 9790   1.503   6.399   2.148
   99SAPC  H15B 9791   1.486   6.453   1.986
   99SAPC  H15C 9792   1.537   6.288   2.011
   99SAPC   C11 9793   1.756   6.453   2.312
   99SAPC  H11A 9794   1.832   6.533   2.298
   99SAPC  H11B 9795   1.792   6.386   2.394
   99SAPC     P 9796   1.527   6.440   2.431
   99SAPC   O13 9797   1.440   6.376   2.330
   99SAPC   O14 9798   1.594   6.351   2.528
   99SAPC   O12 9799   1.634   6.519   2.345
   99SAPC   O11 9800   1.452   6.557   2.506
   99SAPC    C1 9801   1.401   6.673   2.440
   99SAPC    HA 9802   1.476   6.711   2.367
   99SAPC    HB 9803   1.306   6.649   2.386
   99SAPC    C2 9804   1.364   6.788   2.540
   99SAPC    HS 9805   1.335   6.877   2.481
   99SAPC   O21 9806   1.471   6.825   2.626
   99SAPC   C21 9807   1.583   6.861   2.573
   99SAPC   O22 9808   1.611   6.876   2.456
   99SAPC   C22 9809   1.674   6.900   2.686
   99SAPC   H2R 9810   1.728   6.984   2.641
   99SAPC   H2S 9811   1.621   6.936   2.776
   99SAPC    C3 9812   1.248   6.751   2.637
   99SAPC    HX 9813   1.148   6.744   2.589
   99SAPC    HY 9814   1.241   6.835   2.710
   99SAPC   O31 9815   1.280   6.634   2.714
   99SAPC   C31 9816   1.234   6.518   2.671
   99SAPC   O32 9817   1.150   6.503   2.584
   99SAPC   C32 9818   1.303   6.412   2.758
   99SAPC   H2X 9819   1.370   6.459   2.833
   99SAPC   H2Y 9820   1.346   6.325   2.707
   99SAPC   C23 9821   1.773   6.788   2.711
   99SAPC   H3R 9822   1.865   6.832   2.739
   99SAPC   H3S 9823   1.802   6.737   2.617
   99SAPC   C24 9824   1.741   6.696   2.829
   99SAPC   H4R 9825   1.789   6.602   2.792
   99SAPC   H4S 9826   1.631   6.686   2.829
   99SAPC   C25 9827   1.797   6.728   2.967
   99SAPC   H5R 9828   1.906   6.741   2.969
   99SAPC   C26 9829   1.731   6.740   3.084
   99SAPC   H6R 9830   1.784   6.753   3.180
   99SAPC   C27 9831   1.583   6.724   3.103
   99SAPC   H7R 9832   1.566   6.716   3.212
   99SAPC   H7S 9833   1.552   6.626   3.063
   99SAPC   C28 9834   1.493   6.825   3.040
   99SAPC   H8R 9835   1.485   6.833   2.931
   99SAPC   C29 9836   1.429   6.914   3.111
   99SAPC   H9R 9837   1.361   6.979   3.059
   99SAPC  C210 9838   1.432   6.931   3.258
   99SAPC  H10R 9839   1.347   6.988   3.269
   99SAPC  H10S 9840   1.500   7.004   3.298
   99SAPC  C211 9841   1.395   6.824   3.348
   99SAPC  H11R 9842   1.316   6.776   3.301
   99SAPC  C212 9843   1.427   6.794   3.472
   99SAPC  H12R 9844   1.377   6.709   3.521
   99SAPC  C213 9845   1.521   6.875   3.551
   99SAPC  H13R 9846   1.557   6.962   3.492
   99SAPC  H13S 9847   1.607   6.809   3.565
   99SAPC  C214 9848   1.461   6.916   3.683
   99SAPC  H14R 9849   1.356   6.948   3.678
   99SAPC  C215 9850   1.529   6.940   3.797
   99SAPC  H15R 9851   1.472   6.970   3.886
   99SAPC  C216 9852   1.677   6.931   3.817
   99SAPC  H16R 9853   1.715   7.016   3.875
   99SAPC  H16S 9854   1.729   6.935   3.719
   99SAPC  C217 9855   1.727   6.810   3.897
   99SAPC  H17R 9856   1.838   6.807   3.883
   99SAPC  H17S 9857   1.681   6.717   3.857
   99SAPC  C218 9858   1.702   6.825   4.047
   99SAPC  H18R 9859   1.593   6.828   4.066
   99SAPC  H18S 9860   1.743   6.924   4.079
   99SAPC  C219 9861   1.771   6.719   4.134
   99SAPC  H19R 9862   1.772   6.759   4.239
   99SAPC  H19S 9863   1.877   6.704   4.105
   99SAPC  C220 9864   1.699   6.584   4.129
   99SAPC  H20R 9865   1.758   6.502   4.174
   99SAPC  H20S 9866   1.688   6.545   4.028
   99SAPC  H20T 9867   1.600   6.591   4.180
   99SAPC   C33 9868   1.202   6.354   2.845
   99SAPC   H3X 9869   1.114   6.334   2.779
   99SAPC   H3Y 9870   1.173   6.434   2.916
   99SAPC   C34 9871   1.240   6.238   2.932
   99SAPC   H4X 9872   1.238   6.147   2.869
   99SAPC   H4Y 9873   1.169   6.235   3.015
   99SAPC   C35 9874   1.364   6.234   3.016
   99SAPC   H5X 9875   1.441   6.229   2.937
   99SAPC   H5Y 9876   1.367   6.139   3.074
   99SAPC   C36 9877   1.363   6.353   3.112
   99SAPC   H6X 9878   1.277   6.347   3.183
   99SAPC   H6Y 9879   1.344   6.446   3.055
   99SAPC   C37 9880   1.493   6.367   3.192
   99SAPC   H7X 9881   1.509   6.474   3.218
   99SAPC   H7Y 9882   1.577   6.337   3.126
   99SAPC   C38 9883   1.494   6.286   3.324
   99SAPC   H8X 9884   1.588   6.306   3.379
   99SAPC   H8Y 9885   1.487   6.177   3.306
   99SAPC   C39 9886   1.385   6.328   3.424
   99SAPC   H9X 9887   1.285   6.293   3.391
   99SAPC   H9Y 9888   1.383   6.439   3.427
   99SAPC  C310 9889   1.416   6.271   3.563
   99SAPC  H10X 9890   1.468   6.174   3.552
   99SAPC  H10Y 9891   1.324   6.246   3.618
   99SAPC  C311 9892   1.497   6.369   3.650
   99SAPC  H11X 9893   1.434   6.459   3.669
   99SAPC  H11Y 9894   1.585   6.401   3.590
   99SAPC  C312 9895   1.552   6.304   3.778
   99SAPC  H12X 9896   1.607   6.379   3.840
   99SAPC  H12Y 9897   1.628   6.229   3.748
   99SAPC  C313 9898   1.450   6.230   3.865
   99SAPC  H13X 9899   1.504   6.178   3.946
   99SAPC  H13Y 9900   1.399   6.150   3.807
   99SAPC  C314 9901   1.344   6.323   3.923
   99SAPC  H14X 9902   1.268   6.266   3.980
   99SAPC  H14Y 9903   1.294   6.358   3.833
   99SAPC  C315 9904   1.394   6.448   3.994
   99SAPC  H15X 9905   1.453   6.510   3.923
   99SAPC  H15Y 9906   1.459   6.418   4.079
   99SAPC  C316 9907   1.281   6.536   4.046
   99SAPC  H16X 9908   1.232   6.487   4.133
   99SAPC  H16Y 9909   1.205   6.549   3.965
   99SAPC  C317 9910   1.338   6.672   4.082
   99SAPC  H17X 9911   1.405   6.716   4.007
   99SAPC  H17Y 9912   1.382   6.673   4.186
   99SAPC  C318 9913   1.238   6.774   4.084
   99SAPC  H18X 9914   1.154   6.767   4.013
   99SAPC  H18Y 9915   1.276   6.878   4.083
   99SAPC  H18Z 9916   1.205   6.751   4.186
  100SAPC     N 9917   6.883   0.549   2.224
  100SAPC   C12 9918   6.974   0.455   2.157
  100SAPC  H12A 9919   6.957   0.467   2.052
  100SAPC  H12B 9920   6.942   0.353   2.175
  100SAPC   C13 9921   6.901   0.556   2.387
  100SAPC  H13A 9922   6.886   0.459   2.435
  100SAPC  H13B 9923   6.992   0.584   2.436
  100SAPC  H13C 9924   6.807   0.590   2.439
  100SAPC   C14 9925   6.912   0.673   2.172
  100SAPC  H14A 9926   6.850   0.716   2.242
  100SAPC  H14B 9927   7.012   0.701   2.197
  100SAPC  H14C 9928   6.865   0.692   2.077
  100SAPC   C15 9929   6.747   0.529   2.156
  100SAPC  H15A 9930   6.648   0.540   2.210
  100SAPC  H15B 9931   6.704   0.568   2.067
  100SAPC  H15C 9932   6.697   0.430   2.183
  100SAPC   C11 9933   7.104   0.439   2.223
  100SAPC  H11A 9934   7.157   0.364   2.158
  100SAPC  H11B 9935   7.100   0.389   2.324
  100SAPC     P 9936   7.289   0.600   2.256
  100SAPC   O13 9937   7.324   0.528   2.379
  100SAPC   O14 9938   7.334   0.578   2.118
  100SAPC   O12 9939   7.145   0.574   2.233
  100SAPC   O11 9940   7.321   0.748   2.268
  100SAPC    C1 9941   7.227   0.830   2.326
  100SAPC    HA 9942   7.198   0.901   2.247
  100SAPC    HB 9943   7.138   0.779   2.370
  100SAPC    C2 9944   7.293   0.893   2.444
  100SAPC    HS 9945   7.398   0.919   2.410
  100SAPC   O21 9946   7.284   0.798   2.556
  100SAPC   C21 9947   7.389   0.801   2.634
  100SAPC   O22 9948   7.489   0.862   2.612
  100SAPC   C22 9949   7.384   0.726   2.764
  100SAPC   H2R 9950   7.288   0.738   2.814
  100SAPC   H2S 9951   7.405   0.624   2.728
  100SAPC    C3 9952   7.208   1.020   2.474
  100SAPC    HX 9953   7.198   1.086   2.386
  100SAPC    HY 9954   7.241   1.093   2.543
  100SAPC   O31 9955   7.085   0.981   2.528
  100SAPC   C31 9956   7.078   0.975   2.659
  100SAPC   O32 9957   7.139   1.036   2.743
  100SAPC   C32 9958   6.963   0.889   2.688
  100SAPC   H2X 9959   6.928   0.822   2.617
  100SAPC   H2Y 9960   6.890   0.953   2.639
  100SAPC   C23 9961   7.506   0.760   2.858
  100SAPC   H3R 9962   7.586   0.776   2.787
  100SAPC   H3S 9963   7.535   0.674   2.920
  100SAPC   C24 9964   7.496   0.876   2.952
  100SAPC   H4R 9965   7.480   0.967   2.895
  100SAPC   H4S 9966   7.584   0.907   3.014
  100SAPC   C25 9967   7.378   0.823   3.030
  100SAPC   H5R 9968   7.283   0.870   3.020
  100SAPC   C26 9969   7.370   0.749   3.135
  100SAPC   H6R 9970   7.280   0.778   3.195
  100SAPC   C27 9971   7.490   0.694   3.208
  100SAPC   H7R 9972   7.519   0.626   3.128
  100SAPC   H7S 9973   7.440   0.643   3.291
  100SAPC   C28 9974   7.620   0.737   3.275
  100SAPC   H8R 9975   7.676   0.801   3.202
  100SAPC   C29 9976   7.648   0.769   3.408
  100SAPC   H9R 9977   7.736   0.837   3.418
  100SAPC  C210 9978   7.552   0.776   3.533
  100SAPC  H10R 9979   7.592   0.705   3.605
  100SAPC  H10S 9980   7.450   0.752   3.500
  100SAPC  C211 9981   7.514   0.891   3.629
  100SAPC  H11R 9982   7.461   0.988   3.606
  100SAPC  C212 9983   7.569   0.920   3.738
  100SAPC  H12R 9984   7.629   1.007   3.738
  100SAPC  C213 9985   7.668   0.870   3.813
  100SAPC  H13R 9986   7.760   0.932   3.828
  100SAPC  H13S 9987   7.693   0.795   3.741
  100SAPC  C214 9988   7.584   0.820   3.923
  100SAPC  H14R 9989   7.497   0.767   3.884
  100SAPC  C215 9990   7.596   0.826   4.055
  100SAPC  H15R 9991   7.523   0.773   4.110
  100SAPC  C216 9992   7.699   0.887   4.142
  100SAPC  H16R 9993   7.772   0.943   4.085
  100SAPC  H16S 9994   7.741   0.823   4.218
  100SAPC  C217 9995   7.696   0.981   4.249
  100SAPC  H17R 9996   7.638   1.056   4.205
  100SAPC  H17S 9997   7.798   1.016   4.270
  100SAPC  C218 9998   7.595   0.974   4.344
  100SAPC  H18R 9999   7.627   0.888   4.399
  100SAPC  H18S10000   7.503   0.961   4.279
  100SAPC  C21910001   7.607   1.109   4.412
  100SAPC  H19R10002   7.611   1.174   4.332
  100SAPC  H19S10003   7.682   1.130   4.480
  100SAPC  C22010004   7.496   1.160   4.476
  100SAPC  H20R10005   7.414   1.160   4.398
  100SAPC  H20S10006   7.470   1.216   4.566
  100SAPC  H20T10007   7.517   1.061   4.523
  100SAPC   C3310008   6.935   0.871   2.838
  100SAPC   H3X10009   6.827   0.889   2.873
  100SAPC   H3Y10010   7.009   0.941   2.886
  100SAPC   C3410011   6.941   0.762   2.915
  100SAPC   H4X10012   7.052   0.765   2.905
  100SAPC   H4Y10013   6.870   0.708   2.848
  100SAPC   C3510014   6.898   0.785   3.059
  100SAPC   H5X10015   6.788   0.783   3.076
  100SAPC   H5Y10016   6.944   0.872   3.111
  100SAPC   C3610017   6.970   0.676   3.124
  100SAPC   H6X10018   6.941   0.687   3.230
  100SAPC   H6Y10019   7.079   0.697   3.108
  100SAPC   C3710020   6.941   0.545   3.053
  100SAPC   H7X10021   6.972   0.547   2.946
  100SAPC   H7Y10022   6.832   0.526   3.049
  100SAPC   C3810023   7.030   0.437   3.114
  100SAPC   H8X10024   7.137   0.467   3.103
  100SAPC   H8Y10025   7.015   0.346   3.053
  100SAPC   C3910026   7.004   0.410   3.262
  100SAPC   H9X10027   7.023   0.302   3.279
  100SAPC   H9Y10028   6.898   0.435   3.276
  100SAPC  C31010029   7.082   0.498   3.363
  100SAPC  H10X10030   7.086   0.601   3.326
  100SAPC  H10Y10031   7.185   0.460   3.372
  100SAPC  C31110032   7.032   0.509   3.506
  100SAPC  H11X10033   7.094   0.579   3.566
  100SAPC  H11Y10034   7.024   0.410   3.554
  100SAPC  C31210035   6.901   0.574   3.524
  100SAPC  H12X10036   6.840   0.497   3.475
  100SAPC  H12Y10037   6.891   0.677   3.479
  100SAPC  C31310038   6.863   0.568   3.670
  100SAPC  H13X10039   6.826   0.475   3.715
  100SAPC  H13Y10040   6.772   0.610   3.653
  100SAPC  C31410041   6.918   0.679   3.756
  100SAPC  H14X10042   6.866   0.776   3.734
  100SAPC  H14Y10043   7.021   0.688   3.726
  100SAPC  C31510044   6.919   0.653   3.906
  100SAPC  H15X10045   6.828   0.672   3.951
  100SAPC  H15Y10046   6.947   0.743   3.962
  100SAPC  C31610047   6.973   0.522   3.960
  100SAPC  H16X10048   6.917   0.429   3.932
  100SAPC  H16Y10049   6.968   0.529   4.071
  100SAPC  C31710050   7.116   0.520   3.914
  100SAPC  H17X10051   7.118   0.530   3.803
  100SAPC  H17Y10052   7.159   0.422   3.941
  100SAPC  C31810053   7.196   0.635   3.975
  100SAPC  H18X10054   7.144   0.733   3.961
  100SAPC  H18Y10055   7.296   0.643   3.930
  100SAPC  H18Z10056   7.208   0.616   4.083
  101OSM      N10057   3.823   2.803   6.493
  101OSM    C1510058   3.937   2.881   6.434
  101OSM   H15A10059   4.010   2.905   6.510
  101OSM   H15B10060   3.908   2.976   6.389
  101OSM   H15C10061   3.988   2.825   6.354
  101OSM    C1410062   3.783   2.870   6.620
  101OSM   H14A10063   3.865   2.875   6.691
  101OSM   H14B10064   3.698   2.821   6.664
  101OSM   H14C10065   3.758   2.975   6.602
  101OSM    C1310066   3.706   2.816   6.403
  101OSM   H13A10067   3.724   2.757   6.314
  101OSM   H13B10068   3.696   2.921   6.375
  101OSM   H13C10069   3.615   2.789   6.455
  101OSM    C1210070   3.858   2.655   6.518
  101OSM   H12A10071   3.774   2.613   6.570
  101OSM   H12B10072   3.944   2.652   6.584
  101OSM    C1110073   3.892   2.555   6.404
  101OSM   H11A10074   3.804   2.533   6.340
  101OSM   H11B10075   3.923   2.457   6.450
  101OSM      P10076   4.049   2.539   6.193
  101OSM    O1310077   4.150   2.631   6.138
  101OSM    O1410078   4.095   2.403   6.221
  101OSM    O1110079   3.917   2.534   6.107
  101OSM    O1210080   3.999   2.605   6.329
  101OSM    C1S10081   3.830   2.646   6.091
  101OSM    H1S10082   3.862   2.736   6.147
  101OSM    H1T10083   3.730   2.619   6.132
  101OSM     NF10084   3.770   2.810   5.908
  101OSM    HNF10085   3.678   2.807   5.872
  101OSM    C2S10086   3.816   2.677   5.940
  101OSM    H2S10087   3.918   2.663   5.895
  101OSM    C3S10088   3.708   2.582   5.884
  101OSM    H3S10089   3.607   2.621   5.898
  101OSM     O310090   3.699   2.461   5.958
  101OSM    HO310091   3.789   2.443   5.991
  101OSM    C4S10092   3.731   2.573   5.730
  101OSM    H4S10093   3.662   2.631   5.672
  101OSM    C5S10094   3.824   2.510   5.660
  101OSM    H5S10095   3.895   2.468   5.725
  101OSM    C6S10096   3.861   2.491   5.514
  101OSM    H6S10097   3.802   2.405   5.473
  101OSM    H6T10098   3.968   2.458   5.504
  101OSM    C7S10099   3.851   2.618   5.431
  101OSM    H7S10100   3.909   2.699   5.481
  101OSM    H7T10101   3.745   2.652   5.428
  101OSM    C8S10102   3.903   2.604   5.288
  101OSM    H8S10103   4.014   2.591   5.291
  101OSM    H8T10104   3.879   2.701   5.238
  101OSM    C9S10105   3.844   2.484   5.212
  101OSM    H9S10106   3.733   2.492   5.210
  101OSM    H9T10107   3.870   2.393   5.270
  101OSM   C10S10108   3.893   2.461   5.068
  101OSM   H10S10109   3.840   2.367   5.038
  101OSM   H10T10110   4.001   2.436   5.064
  101OSM   C11S10111   3.855   2.575   4.971
  101OSM   H11S10112   3.858   2.538   4.866
  101OSM   H11T10113   3.929   2.658   4.977
  101OSM   C12S10114   3.710   2.626   4.993
  101OSM   H12S10115   3.700   2.675   5.092
  101OSM   H12T10116   3.647   2.534   4.995
  101OSM   C13S10117   3.656   2.719   4.884
  101OSM   H13S10118   3.723   2.809   4.876
  101OSM   H13T10119   3.555   2.757   4.911
  101OSM   C14S10120   3.647   2.656   4.744
  101OSM   H14S10121   3.586   2.563   4.741
  101OSM   H14T10122   3.749   2.630   4.710
  101OSM   C15S10123   3.585   2.758   4.649
  101OSM   H15S10124   3.642   2.853   4.667
  101OSM   H15T10125   3.477   2.774   4.673
  101OSM   C16S10126   3.591   2.721   4.503
  101OSM   H16S10127   3.506   2.653   4.481
  101OSM   H16T10128   3.683   2.664   4.477
  101OSM   C17S10129   3.576   2.845   4.415
  101OSM   H17S10130   3.480   2.897   4.434
  101OSM   H17T10131   3.570   2.807   4.316
  101OSM   C18S10132   3.690   2.944   4.400
  101OSM   H18S10133   3.717   2.986   4.499
  101OSM   H18T10134   3.656   3.025   4.333
  101OSM   H18U10135   3.778   2.896   4.352
  101OSM    C1F10136   3.826   2.930   5.924
  101OSM     OF10137   3.917   2.948   6.003
  101OSM    C2F10138   3.759   3.038   5.844
  101OSM    H2F10139   3.733   3.127   5.906
  101OSM    H2G10140   3.669   2.997   5.794
  101OSM    C3F10141   3.839   3.086   5.721
  101OSM    H3F10142   3.913   3.148   5.770
  101OSM    H3G10143   3.784   3.167   5.671
  101OSM    C4F10144   3.877   2.969   5.620
  101OSM    H4F10145   3.791   2.977   5.550
  101OSM    H4G10146   3.896   2.874   5.673
  101OSM    C5F10147   3.981   2.972   5.507
  101OSM    H5F10148   4.046   2.892   5.466
  101OSM    H5G10149   4.075   2.975   5.559
  101OSM    C6F10150   3.935   3.071   5.396
  101OSM    H6F10151   4.034   3.063   5.370
  101OSM    H6G10152   3.921   3.181   5.385
  101OSM    C7F10153   3.892   3.035   5.266
  101OSM    H7F10154   3.854   3.125   5.214
  101OSM    H7G10155   3.810   2.990   5.323
  101OSM    C8F10156   3.993   2.941   5.199
  101OSM    H8F10157   3.917   2.907   5.130
  101OSM    H8G10158   4.017   2.869   5.277
  101OSM    C9F10159   4.127   2.936   5.130
  101OSM    H9F10160   4.215   2.980   5.179
  101OSM   C10F10161   4.144   2.948   5.000
  101OSM   H10F10162   4.246   2.982   4.975
  101OSM   C11F10163   4.033   2.974   4.899
  101OSM   H11F10164   4.010   3.080   4.870
  101OSM   H11G10165   3.936   2.940   4.934
  101OSM   C12F10166   4.089   2.909   4.779
  101OSM   H12F10167   4.121   2.808   4.813
  101OSM   H12G10168   4.179   2.961   4.737
  101OSM   C13F10169   3.987   2.889   4.671
  101OSM   H13F10170   3.948   2.984   4.630
  101OSM   H13G10171   3.903   2.827   4.707
  101OSM   C14F10172   4.073   2.823   4.567
  101OSM   H14F10173   4.104   2.723   4.604
  101OSM   H14G10174   4.163   2.889   4.556
  101OSM   C15F10175   4.017   2.825   4.430
  101OSM   H15F10176   3.987   2.929   4.406
  101OSM   H15G10177   3.930   2.757   4.414
  101OSM   C16F10178   4.132   2.785   4.341
  101OSM   H16F10179   4.182   2.692   4.372
  101OSM   H16G10180   4.203   2.871   4.329
  101OSM   C17F10181   4.072   2.753   4.212
  101OSM   H17F10182   4.148   2.761   4.134
  101OSM   H17G10183   3.997   2.836   4.205
  101OSM   C18F10184   4.005   2.620   4.193
  101OSM   H18F10185   4.071   2.537   4.220
  101OSM   H18G10186   3.995   2.605   4.085
  101OSM   H18H10187   3.905   2.619   4.239
  102OSM      N10188   4.749   2.873   6.379
  102OSM    C1510189   4.832   2.963   6.289
  102OSM   H15A10190   4.777   3.002   6.203
  102OSM   H15B10191   4.918   2.912   6.249
  102OSM   H15C10192   4.871   3.051   6.340
  102OSM    C1410193   4.663   2.789   6.294
  102OSM   H14A10194   4.609   2.850   6.221
  102OSM   H14B10195   4.588   2.740   6.353
  102OSM   H14C10196   4.725   2.717   6.243
  102OSM    C1310197   4.844   2.784   6.450
  102OSM   H13A10198   4.914   2.843   6.508
  102OSM   H13B10199   4.900   2.732   6.374
  102OSM   H13C10200   4.793   2.714   6.515
  102OSM    C1210201   4.666   2.949   6.483
  102OSM   H12A10202   4.735   2.995   6.551
  102OSM   H12B10203   4.612   2.880   6.548
  102OSM    C1110204   4.559   3.053   6.437
  102OSM   H11A10205   4.534   3.114   6.527
  102OSM   H11B10206   4.469   2.996   6.406
  102OSM      P10207   4.509   3.273   6.308
  102OSM    O1310208   4.379   3.249   6.374
  102OSM    O1410209   4.591   3.382   6.363
  102OSM    O1110210   4.492   3.276   6.151
  102OSM    O1210211   4.599   3.140   6.329
  102OSM    C1S10212   4.600   3.247   6.064
  102OSM    H1S10213   4.615   3.138   6.064
  102OSM    H1T10214   4.695   3.294   6.101
  102OSM     NF10215   4.659   3.224   5.823
  102OSM    HNF10216   4.713   3.286   5.769
  102OSM    C2S10217   4.561   3.280   5.917
  102OSM    H2S10218   4.461   3.238   5.896
  102OSM    C3S10219   4.541   3.432   5.896
  102OSM    H3S10220   4.640   3.476   5.931
  102OSM     O310221   4.426   3.473   5.961
  102OSM    HO310222   4.408   3.403   6.024
  102OSM    C4S10223   4.511   3.466   5.752
  102OSM    H4S10224   4.438   3.401   5.707
  102OSM    C5S10225   4.529   3.580   5.682
  102OSM    H5S10226   4.596   3.660   5.727
  102OSM    C6S10227   4.504   3.578   5.530
  102OSM    H6S10228   4.482   3.685   5.520
  102OSM    H6T10229   4.432   3.502   5.501
  102OSM    C7S10230   4.611   3.550   5.407
  102OSM    H7S10231   4.660   3.649   5.399
  102OSM    H7T10232   4.589   3.593   5.308
  102OSM    C8S10233   4.707   3.415   5.405
  102OSM    H8S10234   4.783   3.389   5.481
  102OSM    H8T10235   4.794   3.410   5.333
  102OSM    C9S10236   4.645   3.292   5.371
  102OSM    H9S10237   4.582   3.278   5.461
  102OSM    H9T10238   4.730   3.218   5.362
  102OSM   C10S10239   4.579   3.326   5.241
  102OSM   H10S10240   4.506   3.409   5.256
  102OSM   H10T10241   4.521   3.237   5.215
  102OSM   C11S10242   4.675   3.371   5.129
  102OSM   H11S10243   4.738   3.285   5.097
  102OSM   H11T10244   4.744   3.454   5.157
  102OSM   C12S10245   4.596   3.417   5.010
  102OSM   H12S10246   4.549   3.519   5.021
  102OSM   H12T10247   4.515   3.344   4.992
  102OSM   C13S10248   4.684   3.407   4.887
  102OSM   H13S10249   4.758   3.328   4.876
  102OSM   H13T10250   4.743   3.498   4.890
  102OSM   C14S10251   4.596   3.386   4.769
  102OSM   H14S10252   4.530   3.467   4.809
  102OSM   H14T10253   4.514   3.314   4.763
  102OSM   C15S10254   4.667   3.400   4.631
  102OSM   H15S10255   4.729   3.492   4.618
  102OSM   H15T10256   4.591   3.404   4.549
  102OSM   C16S10257   4.731   3.282   4.585
  102OSM   H16S10258   4.644   3.213   4.574
  102OSM   H16T10259   4.796   3.257   4.671
  102OSM   C17S10260   4.800   3.315   4.456
  102OSM   H17S10261   4.868   3.403   4.470
  102OSM   H17T10262   4.728   3.342   4.374
  102OSM   C18S10263   4.876   3.192   4.423
  102OSM   H18S10264   4.952   3.164   4.498
  102OSM   H18T10265   4.935   3.220   4.338
  102OSM   H18U10266   4.810   3.105   4.399
  102OSM    C1F10267   4.666   3.093   5.800
  102OSM     OF10268   4.587   3.015   5.853
  102OSM    C2F10269   4.769   3.048   5.705
  102OSM    H2F10270   4.759   3.100   5.607
  102OSM    H2G10271   4.760   2.939   5.687
  102OSM    C3F10272   4.907   3.078   5.759
  102OSM    H3F10273   4.924   3.037   5.862
  102OSM    H3G10274   4.931   3.187   5.759
  102OSM    C4F10275   5.010   3.010   5.671
  102OSM    H4F10276   5.010   2.901   5.675
  102OSM    H4G10277   5.096   3.043   5.727
  102OSM    C5F10278   5.007   3.048   5.523
  102OSM    H5F10279   4.967   3.152   5.525
  102OSM    H5G10280   4.929   3.005   5.464
  102OSM    C6F10281   5.140   3.004   5.448
  102OSM    H6F10282   5.170   2.904   5.478
  102OSM    H6G10283   5.210   3.049   5.515
  102OSM    C7F10284   5.179   3.044   5.297
  102OSM    H7F10285   5.285   3.033   5.271
  102OSM    H7G10286   5.203   3.149   5.268
  102OSM    C8F10287   5.064   3.042   5.200
  102OSM    H8F10288   5.097   3.084   5.102
  102OSM    H8G10289   4.984   3.105   5.241
  102OSM    C9F10290   5.030   2.900   5.195
  102OSM    H9F10291   5.119   2.851   5.163
  102OSM   C10F10292   4.917   2.831   5.216
  102OSM   H10F10293   4.921   2.721   5.208
  102OSM   C11F10294   4.786   2.892   5.253
  102OSM   H11F10295   4.801   2.960   5.338
  102OSM   H11G10296   4.712   2.817   5.289
  102OSM   C12F10297   4.733   2.983   5.140
  102OSM   H12F10298   4.816   3.050   5.107
  102OSM   H12G10299   4.657   3.051   5.182
  102OSM   C13F10300   4.674   2.911   5.018
  102OSM   H13F10301   4.583   2.854   5.051
  102OSM   H13G10302   4.749   2.840   4.977
  102OSM   C14F10303   4.632   3.005   4.905
  102OSM   H14F10304   4.718   3.071   4.875
  102OSM   H14G10305   4.551   3.070   4.945
  102OSM   C15F10306   4.574   2.933   4.783
  102OSM   H15F10307   4.530   3.012   4.717
  102OSM   H15G10308   4.491   2.865   4.815
  102OSM   C16F10309   4.669   2.847   4.699
  102OSM   H16F10310   4.696   2.756   4.757
  102OSM   H16G10311   4.762   2.904   4.678
  102OSM   C17F10312   4.600   2.808   4.567
  102OSM   H17F10313   4.557   2.901   4.522
  102OSM   H17G10314   4.515   2.741   4.591
  102OSM   C18F10315   4.689   2.744   4.459
  102OSM   H18F10316   4.631   2.741   4.364
  102OSM   H18G10317   4.721   2.641   4.485
  102OSM   H18H10318   4.781   2.804   4.444
  103OSM      N10319   4.739   4.707   6.443
  103OSM    C1510320   4.860   4.728   6.529
  103OSM   H15A10321   4.939   4.658   6.500
  103OSM   H15B10322   4.836   4.715   6.632
  103OSM   H15C10323   4.902   4.827   6.516
  103OSM    C1410324   4.636   4.812   6.474
  103OSM   H14A10325   4.651   4.903   6.417
  103OSM   H14B10326   4.632   4.833   6.580
  103OSM   H14C10327   4.539   4.776   6.438
  103OSM    C1310328   4.771   4.710   6.300
  103OSM   H13A10329   4.852   4.641   6.276
  103OSM   H13B10330   4.813   4.803   6.268
  103OSM   H13C10331   4.688   4.690   6.233
  103OSM    C1210332   4.686   4.567   6.463
  103OSM   H12A10333   4.641   4.564   6.560
  103OSM   H12B10334   4.771   4.499   6.454
  103OSM    C1110335   4.581   4.521   6.361
  103OSM   H11A10336   4.547   4.419   6.389
  103OSM   H11B10337   4.628   4.513   6.260
  103OSM      P10338   4.347   4.588   6.265
  103OSM    O1310339   4.262   4.484   6.325
  103OSM    O1410340   4.288   4.716   6.225
  103OSM    O1110341   4.415   4.521   6.138
  103OSM    O1210342   4.471   4.610   6.362
  103OSM    C1S10343   4.461   4.608   6.036
  103OSM    H1S10344   4.534   4.681   6.078
  103OSM    H1T10345   4.381   4.673   5.993
  103OSM     NF10346   4.592   4.588   5.831
  103OSM    HNF10347   4.557   4.603   5.739
  103OSM    C2S10348   4.515   4.518   5.923
  103OSM    H2S10349   4.584   4.440   5.962
  103OSM    C3S10350   4.401   4.452   5.846
  103OSM    H3S10351   4.337   4.534   5.804
  103OSM     O310352   4.320   4.366   5.922
  103OSM    HO310353   4.339   4.393   6.013
  103OSM    C4S10354   4.462   4.383   5.729
  103OSM    H4S10355   4.554   4.326   5.751
  103OSM    C5S10356   4.424   4.403   5.601
  103OSM    H5S10357   4.341   4.468   5.574
  103OSM    C6S10358   4.488   4.333   5.488
  103OSM    H6S10359   4.428   4.335   5.394
  103OSM    H6T10360   4.493   4.236   5.537
  103OSM    C7S10361   4.636   4.352   5.470
  103OSM    H7S10362   4.689   4.300   5.554
  103OSM    H7T10363   4.651   4.461   5.479
  103OSM    C8S10364   4.696   4.296   5.340
  103OSM    H8S10365   4.693   4.187   5.332
  103OSM    H8T10366   4.803   4.308   5.357
  103OSM    C9S10367   4.651   4.365   5.210
  103OSM    H9S10368   4.678   4.473   5.219
  103OSM    H9T10369   4.544   4.350   5.187
  103OSM   C10S10370   4.709   4.310   5.082
  103OSM   H10S10371   4.682   4.206   5.058
  103OSM   H10T10372   4.809   4.288   5.110
  103OSM   C11S10373   4.698   4.412   4.965
  103OSM   H11S10374   4.721   4.515   4.992
  103OSM   H11T10375   4.599   4.399   4.919
  103OSM   C12S10376   4.803   4.396   4.859
  103OSM   H12S10377   4.793   4.289   4.879
  103OSM   H12T10378   4.906   4.415   4.883
  103OSM   C13S10379   4.768   4.446   4.716
  103OSM   H13S10380   4.743   4.552   4.728
  103OSM   H13T10381   4.681   4.385   4.682
  103OSM   C14S10382   4.872   4.437   4.600
  103OSM   H14S10383   4.884   4.338   4.553
  103OSM   H14T10384   4.973   4.465   4.634
  103OSM   C15S10385   4.827   4.502   4.470
  103OSM   H15S10386   4.907   4.480   4.395
  103OSM   H15T10387   4.822   4.610   4.494
  103OSM   C16S10388   4.693   4.448   4.416
  103OSM   H16S10389   4.615   4.451   4.495
  103OSM   H16T10390   4.697   4.341   4.388
  103OSM   C17S10391   4.644   4.526   4.293
  103OSM   H17S10392   4.612   4.627   4.327
  103OSM   H17T10393   4.556   4.469   4.255
  103OSM   C18S10394   4.738   4.544   4.174
  103OSM   H18S10395   4.680   4.589   4.090
  103OSM   H18T10396   4.777   4.447   4.139
  103OSM   H18U10397   4.822   4.613   4.196
  103OSM    C1F10398   4.692   4.653   5.863
  103OSM     OF10399   4.734   4.658   5.977
  103OSM    C2F10400   4.741   4.723   5.747
  103OSM    H2F10401   4.722   4.664   5.652
  103OSM    H2G10402   4.811   4.805   5.775
  103OSM    C3F10403   4.654   4.804   5.654
  103OSM    H3F10404   4.656   4.901   5.703
  103OSM    H3G10405   4.549   4.763   5.668
  103OSM    C4F10406   4.745   4.839   5.527
  103OSM    H4F10407   4.827   4.790   5.472
  103OSM    H4G10408   4.812   4.912   5.572
  103OSM    C5F10409   4.678   4.906   5.414
  103OSM    H5F10410   4.661   5.004   5.461
  103OSM    H5G10411   4.596   4.833   5.403
  103OSM    C6F10412   4.751   4.924   5.280
  103OSM    H6F10413   4.852   4.964   5.291
  103OSM    H6G10414   4.690   4.996   5.222
  103OSM    C7F10415   4.772   4.798   5.200
  103OSM    H7F10416   4.705   4.716   5.233
  103OSM    H7G10417   4.875   4.777   5.230
  103OSM    C8F10418   4.771   4.803   5.047
  103OSM    H8F10419   4.801   4.702   5.010
  103OSM    H8G10420   4.847   4.873   5.006
  103OSM    C9F10421   4.628   4.828   5.012
  103OSM    H9F10422   4.560   4.832   5.099
  103OSM   C10F10423   4.578   4.839   4.889
  103OSM   H10F10424   4.470   4.855   4.877
  103OSM   C11F10425   4.659   4.828   4.763
  103OSM   H11F10426   4.751   4.770   4.785
  103OSM   H11G10427   4.689   4.930   4.730
  103OSM   C12F10428   4.588   4.763   4.642
  103OSM   H12F10429   4.556   4.660   4.663
  103OSM   H12G10430   4.665   4.766   4.561
  103OSM   C13F10431   4.475   4.842   4.580
  103OSM   H13F10432   4.545   4.923   4.548
  103OSM   H13G10433   4.393   4.877   4.647
  103OSM   C14F10434   4.418   4.801   4.445
  103OSM   H14F10435   4.393   4.697   4.441
  103OSM   H14G10436   4.504   4.819   4.374
  103OSM   C15F10437   4.281   4.867   4.410
  103OSM   H15F10438   4.318   4.936   4.356
  103OSM   H15G10439   4.244   4.947   4.476
  103OSM   C16F10440   4.237   4.866   4.260
  103OSM   H16F10441   4.161   4.795   4.265
  103OSM   H16G10442   4.324   4.850   4.193
  103OSM   C17F10443   4.162   4.974   4.187
  103OSM   H17F10444   4.130   4.941   4.085
  103OSM   H17G10445   4.236   5.044   4.165
  103OSM   C18F10446   4.060   5.047   4.267
  103OSM   H18F10447   4.014   4.969   4.327
  103OSM   H18G10448   3.988   5.097   4.198
  103OSM   H18H10449   4.104   5.124   4.333
  104OSM      N10450   5.237   3.647   6.330
  104OSM    C1510451   5.127   3.629   6.428
  104OSM   H15A10452   5.033   3.599   6.383
  104OSM   H15B10453   5.106   3.719   6.485
  104OSM   H15C10454   5.155   3.555   6.502
  104OSM    C1410455   5.187   3.739   6.227
  104OSM   H14A10456   5.108   3.688   6.172
  104OSM   H14B10457   5.260   3.768   6.152
  104OSM   H14C10458   5.141   3.829   6.266
  104OSM    C1310459   5.355   3.711   6.398
  104OSM   H13A10460   5.333   3.805   6.448
  104OSM   H13B10461   5.433   3.729   6.326
  104OSM   H13C10462   5.396   3.641   6.471
  104OSM    C1210463   5.281   3.515   6.264
  104OSM   H12A10464   5.367   3.537   6.200
  104OSM   H12B10465   5.198   3.480   6.205
  104OSM    C1110466   5.325   3.394   6.353
  104OSM   H11A10467   5.345   3.301   6.297
  104OSM   H11B10468   5.238   3.366   6.416
  104OSM      P10469   5.586   3.421   6.377
  104OSM    O1310470   5.642   3.554   6.404
  104OSM    O1410471   5.656   3.303   6.432
  104OSM    O1110472   5.558   3.406   6.222
  104OSM    O1210473   5.437   3.426   6.434
  104OSM    C1S10474   5.645   3.326   6.142
  104OSM    H1S10475   5.662   3.226   6.188
  104OSM    H1T10476   5.745   3.373   6.129
  104OSM     NF10477   5.537   3.432   5.943
  104OSM    HNF10478   5.441   3.446   5.938
  104OSM    C2S10479   5.575   3.305   6.006
  104OSM    H2S10480   5.641   3.250   5.935
  104OSM    C3S10481   5.450   3.216   6.035
  104OSM    H3S10482   5.380   3.263   6.105
  104OSM     O310483   5.478   3.090   6.095
  104OSM    HO310484   5.574   3.076   6.085
  104OSM    C4S10485   5.374   3.199   5.907
  104OSM    H4S10486   5.270   3.234   5.901
  104OSM    C5S10487   5.427   3.137   5.803
  104OSM    H5S10488   5.518   3.078   5.822
  104OSM    C6S10489   5.359   3.115   5.673
  104OSM    H6S10490   5.261   3.087   5.701
  104OSM    H6T10491   5.390   3.026   5.613
  104OSM    C7S10492   5.364   3.245   5.593
  104OSM    H7S10493   5.472   3.257   5.574
  104OSM    H7T10494   5.320   3.327   5.652
  104OSM    C8S10495   5.306   3.249   5.453
  104OSM    H8S10496   5.345   3.151   5.419
  104OSM    H8T10497   5.355   3.319   5.385
  104OSM    C9S10498   5.154   3.277   5.454
  104OSM    H9S10499   5.122   3.260   5.557
  104OSM    H9T10500   5.084   3.218   5.392
  104OSM   C10S10501   5.095   3.385   5.375
  104OSM   H10S10502   5.134   3.467   5.437
  104OSM   H10T10503   4.983   3.373   5.384
  104OSM   C11S10504   5.131   3.380   5.228
  104OSM   H11S10505   5.092   3.293   5.170
  104OSM   H11T10506   5.242   3.378   5.220
  104OSM   C12S10507   5.077   3.502   5.164
  104OSM   H12S10508   5.103   3.583   5.236
  104OSM   H12T10509   4.966   3.497   5.150
  104OSM   C13S10510   5.152   3.541   5.039
  104OSM   H13S10511   5.257   3.565   5.068
  104OSM   H13T10512   5.100   3.635   5.009
  104OSM   C14S10513   5.152   3.440   4.925
  104OSM   H14S10514   5.064   3.372   4.936
  104OSM   H14T10515   5.243   3.376   4.933
  104OSM   C15S10516   5.141   3.507   4.787
  104OSM   H15S10517   5.036   3.538   4.770
  104OSM   H15T10518   5.168   3.433   4.709
  104OSM   C16S10519   5.224   3.633   4.770
  104OSM   H16S10520   5.333   3.617   4.782
  104OSM   H16T10521   5.195   3.712   4.843
  104OSM   C17S10522   5.201   3.691   4.632
  104OSM   H17S10523   5.266   3.776   4.641
  104OSM   H17T10524   5.094   3.713   4.612
  104OSM   C18S10525   5.270   3.635   4.514
  104OSM   H18S10526   5.227   3.536   4.496
  104OSM   H18T10527   5.378   3.630   4.542
  104OSM   H18U10528   5.263   3.702   4.424
  104OSM    C1F10529   5.622   3.530   5.912
  104OSM     OF10530   5.737   3.533   5.949
  104OSM    C2F10531   5.569   3.643   5.829
  104OSM    H2F10532   5.507   3.712   5.890
  104OSM    H2G10533   5.506   3.596   5.750
  104OSM    C3F10534   5.684   3.727   5.768
  104OSM    H3F10535   5.751   3.664   5.706
  104OSM    H3G10536   5.750   3.766   5.848
  104OSM    C4F10537   5.634   3.847   5.686
  104OSM    H4F10538   5.719   3.917   5.674
  104OSM    H4G10539   5.554   3.899   5.743
  104OSM    C5F10540   5.576   3.811   5.548
  104OSM    H5F10541   5.531   3.904   5.508
  104OSM    H5G10542   5.496   3.735   5.555
  104OSM    C6F10543   5.680   3.762   5.448
  104OSM    H6F10544   5.708   3.656   5.469
  104OSM    H6G10545   5.770   3.826   5.457
  104OSM    C7F10546   5.632   3.771   5.302
  104OSM    H7F10547   5.621   3.879   5.281
  104OSM    H7G10548   5.535   3.720   5.284
  104OSM    C8F10549   5.735   3.715   5.207
  104OSM    H8F10550   5.836   3.742   5.246
  104OSM    H8G10551   5.721   3.763   5.107
  104OSM    C9F10552   5.734   3.566   5.199
  104OSM    H9F10553   5.752   3.516   5.295
  104OSM   C10F10554   5.688   3.489   5.100
  104OSM   H10F10555   5.713   3.383   5.104
  104OSM   C11F10556   5.624   3.537   4.973
  104OSM   H11F10557   5.627   3.649   4.963
  104OSM   H11G10558   5.521   3.502   4.967
  104OSM   C12F10559   5.686   3.478   4.849
  104OSM   H12F10560   5.697   3.369   4.842
  104OSM   H12G10561   5.792   3.488   4.876
  104OSM   C13F10562   5.633   3.544   4.715
  104OSM   H13F10563   5.540   3.502   4.680
  104OSM   H13G10564   5.690   3.495   4.632
  104OSM   C14F10565   5.652   3.702   4.701
  104OSM   H14F10566   5.740   3.737   4.755
  104OSM   H14G10567   5.574   3.767   4.737
  104OSM   C15F10568   5.687   3.758   4.562
  104OSM   H15F10569   5.692   3.864   4.543
  104OSM   H15G10570   5.612   3.699   4.525
  104OSM   C16F10571   5.783   3.710   4.461
  104OSM   H16F10572   5.783   3.599   4.432
  104OSM   H16G10573   5.838   3.738   4.555
  104OSM   C17F10574   5.829   3.792   4.333
  104OSM   H17F10575   5.935   3.828   4.341
  104OSM   H17G10576   5.843   3.898   4.325
  104OSM   C18F10577   5.807   3.712   4.202
  104OSM   H18F10578   5.797   3.600   4.214
  104OSM   H18G10579   5.863   3.738   4.112
  104OSM   H18H10580   5.713   3.742   4.181
  105OSM      N10581   5.523   4.154   6.320
  105OSM    C1510582   5.646   4.201   6.248
  105OSM   H15A10583   5.732   4.197   6.313
  105OSM   H15B10584   5.633   4.305   6.215
  105OSM   H15C10585   5.665   4.145   6.158
  105OSM    C1410586   5.543   4.016   6.374
  105OSM   H14A10587   5.613   4.020   6.456
  105OSM   H14B10588   5.576   3.947   6.298
  105OSM   H14C10589   5.449   3.980   6.414
  105OSM    C1310590   5.503   4.244   6.437
  105OSM   H13A10591   5.498   4.350   6.410
  105OSM   H13B10592   5.588   4.231   6.502
  105OSM   H13C10593   5.413   4.221   6.494
  105OSM    C1210594   5.403   4.160   6.225
  105OSM   H12A10595   5.433   4.113   6.132
  105OSM   H12B10596   5.386   4.265   6.197
  105OSM    C1110597   5.264   4.105   6.270
  105OSM   H11A10598   5.271   3.994   6.270
  105OSM   H11B10599   5.190   4.130   6.190
  105OSM      P10600   5.146   4.293   6.419
  105OSM    O1310601   5.005   4.269   6.459
  105OSM    O1410602   5.234   4.382   6.498
  105OSM    O1110603   5.146   4.340   6.275
  105OSM    O1210604   5.220   4.152   6.398
  105OSM    C1S10605   5.195   4.469   6.251
  105OSM    H1S10606   5.302   4.487   6.277
  105OSM    H1T10607   5.131   4.556   6.286
  105OSM     NF10608   5.303   4.501   6.057
  105OSM    HNF10609   5.270   4.593   6.039
  105OSM    C2S10610   5.180   4.447   6.112
  105OSM    H2S10611   5.185   4.356   6.054
  105OSM    C3S10612   5.029   4.511   6.089
  105OSM    H3S10613   4.998   4.616   6.125
  105OSM     O310614   4.919   4.448   6.140
  105OSM    HO310615   4.978   4.388   6.183
  105OSM    C4S10616   5.009   4.502   5.956
  105OSM    H4S10617   5.079   4.583   5.984
  105OSM    C5S10618   4.960   4.437   5.839
  105OSM    H5S10619   4.914   4.344   5.857
  105OSM    C6S10620   4.942   4.434   5.680
  105OSM    H6S10621   4.835   4.436   5.646
  105OSM    H6T10622   5.016   4.377   5.614
  105OSM    C7S10623   4.970   4.533   5.572
  105OSM    H7S10624   5.084   4.548   5.599
  105OSM    H7T10625   4.892   4.607   5.598
  105OSM    C8S10626   4.890   4.551   5.435
  105OSM    H8S10627   4.918   4.645   5.392
  105OSM    H8T10628   4.796   4.606   5.418
  105OSM    C9S10629   4.945   4.469   5.324
  105OSM    H9S10630   4.971   4.428   5.415
  105OSM    H9T10631   5.021   4.388   5.336
  105OSM   C10S10632   4.970   4.559   5.208
  105OSM   H10S10633   5.015   4.661   5.205
  105OSM   H10T10634   4.868   4.589   5.179
  105OSM   C11S10635   5.000   4.471   5.095
  105OSM   H11S10636   5.000   4.526   5.001
  105OSM   H11T10637   4.916   4.416   5.095
  105OSM   C12S10638   5.103   4.362   5.116
  105OSM   H12S10639   5.154   4.350   5.214
  105OSM   H12T10640   5.146   4.441   5.100
  105OSM   C13S10641   5.168   4.291   4.994
  105OSM   H13S10642   5.063   4.268   5.010
  105OSM   H13T10643   5.253   4.229   5.026
  105OSM   C14S10644   5.167   4.301   4.838
  105OSM   H14S10645   5.249   4.356   4.841
  105OSM   H14T10646   5.080   4.363   4.809
  105OSM   C15S10647   5.223   4.193   4.735
  105OSM   H15S10648   5.315   4.150   4.775
  105OSM   H15T10649   5.228   4.248   4.638
  105OSM   C16S10650   5.157   4.056   4.708
  105OSM   H16S10651   5.078   4.089   4.649
  105OSM   H16T10652   5.123   3.982   4.786
  105OSM   C17S10653   5.169   3.966   4.604
  105OSM   H17S10654   5.077   3.898   4.622
  105OSM   H17T10655   5.265   3.949   4.655
  105OSM   C18S10656   5.172   4.024   4.471
  105OSM   H18S10657   5.243   4.106   4.461
  105OSM   H18T10658   5.077   4.078   4.466
  105OSM   H18U10659   5.185   3.940   4.400
  105OSM    C1F10660   5.446   4.475   6.035
  105OSM     OF10661   5.490   4.385   6.103
  105OSM    C2F10662   5.554   4.550   5.929
  105OSM    H2F10663   5.641   4.592   5.982
  105OSM    H2G10664   5.553   4.653   5.913
  105OSM    C3F10665   5.518   4.581   5.773
  105OSM    H3F10666   5.590   4.638   5.711
  105OSM    H3G10667   5.423   4.634   5.745
  105OSM    C4F10668   5.473   4.454   5.734
  105OSM    H4F10669   5.381   4.430   5.790
  105OSM    H4G10670   5.559   4.396   5.769
  105OSM    C5F10671   5.443   4.444   5.592
  105OSM    H5F10672   5.532   4.471   5.532
  105OSM    H5G10673   5.363   4.515   5.581
  105OSM    C6F10674   5.366   4.322   5.556
  105OSM    H6F10675   5.345   4.333   5.447
  105OSM    H6G10676   5.270   4.322   5.613
  105OSM    C7F10677   5.452   4.203   5.590
  105OSM    H7F10678   5.389   4.113   5.600
  105OSM    H7G10679   5.491   4.221   5.693
  105OSM    C8F10680   5.564   4.185   5.487
  105OSM    H8F10681   5.644   4.121   5.530
  105OSM    H8G10682   5.611   4.280   5.459
  105OSM    C9F10683   5.497   4.119   5.370
  105OSM    H9F10684   5.422   4.045   5.398
  105OSM   C10F10685   5.510   4.143   5.239
  105OSM   H10F10686   5.448   4.085   5.169
  105OSM   C11F10687   5.599   4.247   5.179
  105OSM   H11F10688   5.662   4.207   5.098
  105OSM   H11G10689   5.661   4.292   5.254
  105OSM   C12F10690   5.514   4.364   5.141
  105OSM   H12F10691   5.458   4.392   5.227
  105OSM   H12G10692   5.443   4.314   5.066
  105OSM   C13F10693   5.575   4.512   5.100
  105OSM   H13F10694   5.617   4.570   5.163
  105OSM   H13G10695   5.532   4.631   5.104
  105OSM   C14F10696   5.687   4.477   5.016
  105OSM   H14F10697   5.732   4.381   5.041
  105OSM   H14G10698   5.789   4.538   5.006
  105OSM   C15F10699   5.562   4.478   4.936
  105OSM   H15F10700   5.527   4.375   4.925
  105OSM   H15G10701   5.651   4.527   4.915
  105OSM   C16F10702   5.504   4.569   4.825
  105OSM   H16F10703   5.471   4.661   4.871
  105OSM   H16G10704   5.434   4.482   4.802
  105OSM   C17F10705   5.525   4.609   4.672
  105OSM   H17F10706   5.435   4.628   4.672
  105OSM   H17G10707   5.519   4.493   4.655
  105OSM   C18F10708   5.643   4.707   4.528
  105OSM   H18F10709   5.603   4.759   4.436
  105OSM   H18G10710   5.748   4.678   4.491
  105OSM   H18H10711   5.674   4.788   4.561
  106OSM      N10712   3.939   1.111   6.505
  106OSM    C1510713   4.050   1.212   6.503
  106OSM   H15A10714   4.122   1.192   6.580
  106OSM   H15B10715   4.014   1.312   6.519
  106OSM   H15C10716   4.102   1.212   6.407
  106OSM    C1410717   3.902   1.078   6.646
  106OSM   H14A10718   3.832   1.151   6.686
  106OSM   H14B10719   3.989   1.075   6.709
  106OSM   H14C10720   3.849   0.983   6.647
  106OSM    C1310721   3.815   1.170   6.441
  106OSM   H13A10722   3.831   1.195   6.336
  106OSM   H13B10723   3.786   1.261   6.491
  106OSM   H13C10724   3.731   1.100   6.436
  106OSM    C1210725   3.981   0.983   6.435
  106OSM   H12A10726   3.906   0.905   6.452
  106OSM   H12B10727   4.074   0.944   6.475
  106OSM    C1110728   3.993   0.992   6.282
  106OSM   H11A10729   4.047   0.901   6.249
  106OSM   H11B10730   4.053   1.081   6.253
  106OSM      P10731   3.761   0.881   6.213
  106OSM    O1310732   3.836   0.755   6.207
  106OSM    O1410733   3.667   0.898   6.326
  106OSM    O1110734   3.689   0.915   6.075
  106OSM    O1210735   3.865   1.002   6.221
  106OSM    C1S10736   3.771   0.966   5.969
  106OSM    H1S10737   3.866   0.909   5.960
  106OSM    H1T10738   3.794   1.073   5.992
  106OSM     NF10739   3.794   0.995   5.724
  106OSM    HNF10740   3.795   1.090   5.698
  106OSM    C2S10741   3.700   0.959   5.829
  106OSM    H2S10742   3.666   0.854   5.810
  106OSM    C3S10743   3.576   1.051   5.830
  106OSM    H3S10744   3.603   1.153   5.867
  106OSM     O310745   3.474   0.997   5.913
  106OSM    HO310746   3.521   0.929   5.963
  106OSM    C4S10747   3.518   1.063   5.692
  106OSM    H4S10748   3.443   0.989   5.664
  106OSM    C5S10749   3.550   1.160   5.606
  106OSM    H5S10750   3.620   1.239   5.640
  106OSM    C6S10751   3.491   1.171   5.468
  106OSM    H6S10752   3.446   1.273   5.466
  106OSM    H6T10753   3.404   1.103   5.455
  106OSM    C7S10754   3.582   1.150   5.343
  106OSM    H7S10755   3.681   1.200   5.349
  106OSM    H7T10756   3.526   1.191   5.256
  106OSM    C8S10757   3.621   1.009   5.316
  106OSM    H8S10758   3.525   0.954   5.303
  106OSM    H8T10759   3.675   0.975   5.408
  106OSM    C9S10760   3.707   0.992   5.190
  106OSM    H9S10761   3.807   1.040   5.199
  106OSM    H9T10762   3.654   1.040   5.104
  106OSM   C10S10763   3.727   0.844   5.161
  106OSM   H10S10764   3.627   0.795   5.150
  106OSM   H10T10765   3.780   0.796   5.247
  106OSM   C11S10766   3.810   0.815   5.037
  106OSM   H11S10767   3.863   0.719   5.054
  106OSM   H11T10768   3.886   0.895   5.023
  106OSM   C12S10769   3.719   0.799   4.916
  106OSM   H12S10770   3.647   0.883   4.909
  106OSM   H12T10771   3.659   0.706   4.931
  106OSM   C13S10772   3.792   0.791   4.783
  106OSM   H13S10773   3.870   0.711   4.785
  106OSM   H13T10774   3.842   0.889   4.768
  106OSM   C14S10775   3.692   0.757   4.672
  106OSM   H14S10776   3.625   0.845   4.654
  106OSM   H14T10777   3.631   0.672   4.710
  106OSM   C15S10778   3.751   0.713   4.539
  106OSM   H15S10779   3.669   0.704   4.465
  106OSM   H15T10780   3.794   0.611   4.550
  106OSM   C16S10781   3.856   0.814   4.488
  106OSM   H16S10782   3.955   0.796   4.536
  106OSM   H16T10783   3.818   0.915   4.508
  106OSM   C17S10784   3.879   0.811   4.340
  106OSM   H17S10785   3.929   0.895   4.293
  106OSM   H17T10786   3.779   0.803   4.292
  106OSM   C18S10787   3.973   0.701   4.309
  106OSM   H18S10788   3.908   0.623   4.353
  106OSM   H18T10789   4.071   0.674   4.346
  106OSM   H18U10790   3.983   0.699   4.197
  106OSM    C1F10791   3.896   0.922   5.683
  106OSM     OF10792   3.910   0.805   5.709
  106OSM    C2F10793   4.005   0.998   5.617
  106OSM    H2F10794   4.081   1.008   5.698
  106OSM    H2G10795   3.968   1.099   5.591
  106OSM    C3F10796   4.067   0.930   5.493
  106OSM    H3F10797   3.990   0.878   5.430
  106OSM    H3G10798   4.141   0.854   5.525
  106OSM    C4F10799   4.140   1.029   5.402
  106OSM    H4F10800   4.209   1.090   5.464
  106OSM    H4G10801   4.065   1.100   5.359
  106OSM    C5F10802   4.216   0.958   5.289
  106OSM    H5F10803   4.268   0.868   5.330
  106OSM    H5G10804   4.295   1.027   5.252
  106OSM    C6F10805   4.122   0.915   5.175
  106OSM    H6F10806   4.046   0.990   5.146
  106OSM    H6G10807   4.066   0.827   5.216
  106OSM    C7F10808   4.192   0.871   5.046
  106OSM    H7F10809   4.150   0.770   5.023
  106OSM    H7G10810   4.301   0.859   5.066
  106OSM    C8F10811   4.164   0.955   4.919
  106OSM    H8F10812   4.056   0.947   4.895
  106OSM    H8G10813   4.214   0.902   4.835
  106OSM    C9F10814   4.201   1.101   4.914
  106OSM    H9F10815   4.304   1.123   4.886
  106OSM   C10F10816   4.116   1.204   4.924
  106OSM   H10F10817   4.153   1.306   4.905
  106OSM   C11F10818   3.968   1.196   4.943
  106OSM   H11F10819   3.941   1.268   5.025
  106OSM   H11G10820   3.930   1.096   4.965
  106OSM   C12F10821   3.869   1.213   4.827
  106OSM   H12F10822   3.894   1.310   4.828
  106OSM   H12G10823   3.765   1.224   4.855
  106OSM   C13F10824   3.894   1.173   4.681
  106OSM   H13F10825   3.854   1.073   4.691
  106OSM   H13G10826   4.002   1.163   4.672
  106OSM   C14F10827   3.825   1.245   4.558
  106OSM   H14F10828   3.727   1.291   4.575
  106OSM   H14G10829   3.815   1.162   4.486
  106OSM   C15F10830   3.902   1.349   4.476
  106OSM   H15F10831   3.997   1.312   4.465
  106OSM   H15G10832   3.899   1.457   4.505
  106OSM   C16F10833   3.867   1.392   4.343
  106OSM   H16F10834   3.767   1.428   4.380
  106OSM   H16G10835   3.819   1.323   4.279
  106OSM   C17F10836   3.982   1.490   4.267
  106OSM   H17F10837   4.080   1.451   4.255
  106OSM   H17G10838   3.999   1.570   4.341
  106OSM   C18F10839   3.971   1.548   4.114
  106OSM   H18F10840   3.988   1.648   4.078
  106OSM   H18G10841   3.869   1.541   4.090
  106OSM   H18H10842   3.934   1.490   4.034
  107OSM      N10843   4.567   6.003   6.318
  107OSM    C1510844   4.576   6.088   6.198
  107OSM   H15A10845   4.644   6.047   6.125
  107OSM   H15B10846   4.603   6.188   6.227
  107OSM   H15C10847   4.477   6.096   6.152
  107OSM    C1410848   4.474   5.903   6.278
  107OSM   H14A10849   4.485   5.823   6.353
  107OSM   H14B10850   4.508   5.848   6.189
  107OSM   H14C10851   4.367   5.911   6.276
  107OSM    C1310852   4.706   5.952   6.357
  107OSM   H13A10853   4.756   5.903   6.273
  107OSM   H13B10854   4.704   5.876   6.434
  107OSM   H13C10855   4.769   6.033   6.389
  107OSM    C1210856   4.495   6.061   6.433
  107OSM   H12A10857   4.525   6.001   6.518
  107OSM   H12B10858   4.389   6.044   6.417
  107OSM    C1110859   4.523   6.208   6.452
  107OSM   H11A10860   4.634   6.215   6.446
  107OSM   H11B10861   4.489   6.237   6.554
  107OSM      P10862   4.330   6.378   6.394
  107OSM    O1310863   4.231   6.301   6.472
  107OSM    O1410864   4.384   6.504   6.450
  107OSM    O1110865   4.249   6.405   6.259
  107OSM    O1210866   4.459   6.287   6.352
  107OSM    C1S10867   4.238   6.308   6.153
  107OSM    H1S10868   4.138   6.274   6.179
  107OSM    H1T10869   4.311   6.225   6.163
  107OSM     NF10870   4.371   6.387   5.933
  107OSM    HNF10871   4.389   6.485   5.922
  107OSM    C2S10872   4.240   6.343   5.994
  107OSM    H2S10873   4.209   6.262   5.928
  107OSM    C3S10874   4.125   6.444   5.976
  107OSM    H3S10875   4.123   6.532   6.035
  107OSM     O310876   3.998   6.405   6.014
  107OSM    HO310877   4.024   6.361   6.095
  107OSM    C4S10878   4.126   6.484   5.837
  107OSM    H4S10879   4.177   6.575   5.824
  107OSM    C5S10880   4.078   6.452   5.722
  107OSM    H5S10881   3.980   6.406   5.738
  107OSM    C6S10882   4.124   6.553   5.614
  107OSM    H6S10883   4.199   6.626   5.643
  107OSM    H6T10884   4.072   6.651   5.608
  107OSM    C7S10885   4.148   6.503   5.472
  107OSM    H7S10886   4.075   6.425   5.439
  107OSM    H7T10887   4.241   6.458   5.510
  107OSM    C8S10888   4.154   6.616   5.364
  107OSM    H8S10889   4.232   6.688   5.390
  107OSM    H8T10890   4.072   6.683   5.349
  107OSM    C9S10891   4.170   6.590   5.221
  107OSM    H9S10892   4.163   6.682   5.157
  107OSM    H9T10893   4.087   6.525   5.190
  107OSM   C10S10894   4.310   6.548   5.243
  107OSM   H10S10895   4.303   6.449   5.293
  107OSM   H10T10896   4.372   6.616   5.307
  107OSM   C11S10897   4.378   6.548   5.114
  107OSM   H11S10898   4.483   6.527   5.142
  107OSM   H11T10899   4.370   6.649   5.068
  107OSM   C12S10900   4.311   6.439   5.035
  107OSM   H12S10901   4.207   6.463   5.004
  107OSM   H12T10902   4.306   6.350   5.101
  107OSM   C13S10903   4.396   6.405   4.919
  107OSM   H13S10904   4.368   6.308   4.872
  107OSM   H13T10905   4.505   6.405   4.945
  107OSM   C14S10906   4.387   6.498   4.808
  107OSM   H14S10907   4.440   6.591   4.837
  107OSM   H14T10908   4.283   6.530   4.779
  107OSM   C15S10909   4.462   6.410   4.704
  107OSM   H15S10910   4.569   6.432   4.689
  107OSM   H15T10911   4.415   6.478   4.649
  107OSM   C16S10912   4.389   6.327   4.595
  107OSM   H16S10913   4.279   6.335   4.614
  107OSM   H16T10914   4.438   6.233   4.623
  107OSM   C17S10915   4.407   6.333   4.440
  107OSM   H17S10916   4.512   6.339   4.410
  107OSM   H17T10917   4.350   6.415   4.389
  107OSM   C18S10918   4.384   6.195   4.380
  107OSM   H18S10919   4.282   6.158   4.404
  107OSM   H18T10920   4.458   6.128   4.427
  107OSM   H18U10921   4.407   6.192   4.271
  107OSM    C1F10922   4.473   6.299   5.939
  107OSM     OF10923   4.453   6.180   5.939
  107OSM    C2F10924   4.612   6.348   5.953
  107OSM    H2F10925   4.648   6.332   6.058
  107OSM    H2G10926   4.601   6.452   5.918
  107OSM    C3F10927   4.723   6.297   5.863
  107OSM    H3F10928   4.746   6.190   5.878
  107OSM    H3G10929   4.812   6.353   5.899
  107OSM    C4F10930   4.697   6.343   5.720
  107OSM    H4F10931   4.785   6.375   5.667
  107OSM    H4G10932   4.646   6.440   5.725
  107OSM    C5F10933   4.626   6.243   5.631
  107OSM    H5F10934   4.529   6.222   5.682
  107OSM    H5G10935   4.682   6.147   5.628
  107OSM    C6F10936   4.601   6.294   5.488
  107OSM    H6F10937   4.686   6.274   5.420
  107OSM    H6G10938   4.590   6.405   5.489
  107OSM    C7F10939   4.473   6.236   5.428
  107OSM    H7F10940   4.435   6.314   5.359
  107OSM    H7G10941   4.397   6.222   5.509
  107OSM    C8F10942   4.490   6.102   5.353
  107OSM    H8F10943   4.528   6.027   5.424
  107OSM    H8G10944   4.567   6.116   5.274
  107OSM    C9F10945   4.356   6.058   5.299
  107OSM    H9F10946   4.287   6.010   5.372
  107OSM   C10F10947   4.324   6.059   5.169
  107OSM   H10F10948   4.220   6.041   5.138
  107OSM   C11F10949   4.412   6.102   5.057
  107OSM   H11F10950   4.480   6.187   5.083
  107OSM   H11G10951   4.346   6.138   4.975
  107OSM   C12F10952   4.493   5.985   4.999
  107OSM   H12F10953   4.436   5.890   4.998
  107OSM   H12G10954   4.579   5.967   5.067
  107OSM   C13F10955   4.534   6.025   4.855
  107OSM   H13F10956   4.590   6.120   4.861
  107OSM   H13G10957   4.441   6.043   4.797
  107OSM   C14F10958   4.613   5.920   4.777
  107OSM   H14F10959   4.553   5.826   4.783
  107OSM   H14G10960   4.710   5.903   4.827
  107OSM   C15F10961   4.627   5.946   4.624
  107OSM   H15F10962   4.528   5.953   4.574
  107OSM   H15G10963   4.679   5.856   4.585
  107OSM   C16F10964   4.702   6.070   4.574
  107OSM   H16F10965   4.792   6.078   4.639
  107OSM   H16G10966   4.640   6.160   4.590
  107OSM   C17F10967   4.734   6.057   4.422
  107OSM   H17F10968   4.643   6.031   4.367
  107OSM   H17G10969   4.807   5.972   4.411
  107OSM   C18F10970   4.784   6.179   4.346
  107OSM   H18F10971   4.714   6.248   4.299
  107OSM   H18G10972   4.873   6.156   4.281
  107OSM   H18H10973   4.813   6.250   4.421
  108OSM      N10974   5.751   1.949   6.357
  108OSM    C1510975   5.815   1.816   6.357
  108OSM   H15A10976   5.808   1.764   6.449
  108OSM   H15B10977   5.919   1.819   6.326
  108OSM   H15C10978   5.760   1.755   6.285
  108OSM    C1410979   5.745   2.011   6.221
  108OSM   H14A10980   5.709   2.113   6.234
  108OSM   H14B10981   5.678   1.958   6.154
  108OSM   H14C10982   5.841   2.017   6.170
  108OSM    C1310983   5.612   1.936   6.398
  108OSM   H13A10984   5.566   1.868   6.325
  108OSM   H13B10985   5.547   2.022   6.395
  108OSM   H13C10986   5.597   1.879   6.490
  108OSM    C1210987   5.810   2.037   6.459
  108OSM   H12A10988   5.786   1.995   6.557
  108OSM   H12B10989   5.756   2.132   6.453
  108OSM    C1110990   5.961   2.063   6.451
  108OSM   H11A10991   6.016   1.967   6.457
  108OSM   H11B10992   5.989   2.121   6.542
  108OSM      P10993   5.990   2.290   6.334
  108OSM    O1310994   5.862   2.330   6.398
  108OSM    O1410995   6.111   2.344   6.395
  108OSM    O1110996   5.986   2.335   6.182
  108OSM    O1210997   5.998   2.131   6.330
  108OSM    C1S10998   6.046   2.251   6.084
  108OSM    H1S10999   6.020   2.145   6.100
  108OSM    H1T11000   6.158   2.262   6.088
  108OSM     NF11001   6.009   2.178   5.851
  108OSM    HNF11002   6.084   2.209   5.793
  108OSM    C2S11003   5.994   2.284   5.944
  108OSM    H2S11004   5.886   2.301   5.938
  108OSM    C3S11005   6.067   2.409   5.898
  108OSM    H3S11006   6.176   2.408   5.909
  108OSM     O311007   6.037   2.510   5.983
  108OSM    HO311008   5.981   2.475   6.052
  108OSM    C4S11009   6.026   2.442   5.762
  108OSM    H4S11010   5.930   2.491   5.747
  108OSM    C5S11011   6.107   2.434   5.658
  108OSM    H5S11012   6.218   2.440   5.672
  108OSM    C6S11013   6.061   2.467   5.522
  108OSM    H6S11014   6.144   2.511   5.457
  108OSM    H6T11015   5.971   2.527   5.533
  108OSM    C7S11016   5.998   2.373   5.441
  108OSM    H7S11017   5.962   2.289   5.505
  108OSM    H7T11018   6.093   2.361   5.382
  108OSM    C8S11019   5.913   2.417   5.326
  108OSM    H8S11020   5.973   2.481   5.257
  108OSM    H8T11021   5.833   2.470   5.379
  108OSM    C9S11022   5.856   2.305   5.240
  108OSM    H9S11023   5.826   2.217   5.307
  108OSM    H9T11024   5.924   2.263   5.162
  108OSM   C10S11025   5.764   2.360   5.149
  108OSM   H10S11026   5.765   2.459   5.108
  108OSM   H10T11027   5.711   2.385   5.244
  108OSM   C11S11028   5.722   2.249   5.051
  108OSM   H11S11029   5.624   2.205   5.041
  108OSM   H11T11030   5.743   2.162   5.114
  108OSM   C12S11031   5.716   2.286   4.904
  108OSM   H12S11032   5.823   2.289   4.879
  108OSM   H12T11033   5.674   2.389   4.913
  108OSM   C13S11034   5.609   2.220   4.808
  108OSM   H13S11035   5.525   2.167   4.854
  108OSM   H13T11036   5.627   2.141   4.739
  108OSM   C14S11037   5.573   2.299   4.687
  108OSM   H14S11038   5.511   2.377   4.728
  108OSM   H14T11039   5.513   2.235   4.617
  108OSM   C15S11040   5.692   2.368   4.624
  108OSM   H15S11041   5.743   2.428   4.702
  108OSM   H15T11042   5.649   2.437   4.549
  108OSM   C16S11043   5.791   2.275   4.552
  108OSM   H16S11044   5.731   2.214   4.482
  108OSM   H16T11045   5.846   2.208   4.621
  108OSM   C17S11046   5.889   2.352   4.466
  108OSM   H17S11047   5.834   2.405   4.387
  108OSM   H17T11048   5.963   2.280   4.421
  108OSM   C18S11049   5.967   2.454   4.540
  108OSM   H18S11050   6.054   2.479   4.479
  108OSM   H18T11051   6.019   2.402   4.613
  108OSM   H18U11052   5.923   2.540   4.593
  108OSM    C1F11053   5.999   2.046   5.856
  108OSM     OF11054   5.956   1.991   5.952
  108OSM    C2F11055   6.057   1.964   5.743
  108OSM    H2F11056   6.046   2.038   5.663
  108OSM    H2G11057   5.988   1.885   5.709
  108OSM    C3F11058   6.188   1.880   5.770
  108OSM    H3F11059   6.177   1.796   5.700
  108OSM    H3G11060   6.181   1.854   5.879
  108OSM    C4F11061   6.342   1.905   5.747
  108OSM    H4F11062   6.410   1.835   5.787
  108OSM    H4G11063   6.384   1.994   5.779
  108OSM    C5F11064   6.413   1.951   5.627
  108OSM    H5F11065   6.492   2.037   5.642
  108OSM    H5G11066   6.339   1.981   5.582
  108OSM    C6F11067   6.379   1.887   5.497
  108OSM    H6F11068   6.273   1.852   5.491
  108OSM    H6G11069   6.443   1.803   5.497
  108OSM    C7F11070   6.401   1.966   5.377
  108OSM    H7F11071   6.379   1.901   5.294
  108OSM    H7G11072   6.471   2.055   5.371
  108OSM    C8F11073   6.300   2.005   5.296
  108OSM    H8F11074   6.360   2.087   5.241
  108OSM    H8G11075   6.309   2.119   5.308
  108OSM    C9F11076   6.150   1.928   5.259
  108OSM    H9F11077   6.080   1.941   5.339
  108OSM   C10F11078   6.053   1.938   5.150
  108OSM   H10F11079   5.947   1.953   5.185
  108OSM   C11F11080   6.022   2.003   5.015
  108OSM   H11F11081   6.094   2.058   4.952
  108OSM   H11G11082   5.956   2.092   5.004
  108OSM   C12F11083   6.038   1.879   4.936
  108OSM   H12F11084   5.955   1.810   4.954
  108OSM   H12G11085   6.127   1.817   4.963
  108OSM   C13F11086   6.055   1.927   4.795
  108OSM   H13F11087   6.145   1.990   4.786
  108OSM   H13G11088   5.972   1.994   4.767
  108OSM   C14F11089   6.064   1.808   4.710
  108OSM   H14F11090   6.006   1.733   4.761
  108OSM   H14G11091   6.156   1.754   4.728
  108OSM   C15F11092   6.033   1.834   4.565
  108OSM   H15F11093   5.963   1.918   4.544
  108OSM   H15G11094   5.992   1.740   4.523
  108OSM   C16F11095   6.162   1.870   4.496
  108OSM   H16F11096   6.156   1.858   4.387
  108OSM   H16G11097   6.235   1.807   4.542
  108OSM   C17F11098   6.216   2.007   4.522
  108OSM   H17F11099   6.241   2.019   4.628
  108OSM   H17G11100   6.139   2.073   4.480
  108OSM   C18F11101   6.342   2.034   4.450
  108OSM   H18F11102   6.387   2.134   4.464
  108OSM   H18G11103   6.320   2.025   4.342
  108OSM   H18H11104   6.419   1.964   4.486
  109OSM      N11105   2.663   1.251   6.319
  109OSM    C1511106   2.519   1.291   6.330
  109OSM   H15A11107   2.455   1.224   6.270
  109OSM   H15B11108   2.501   1.392   6.291
  109OSM   H15C11109   2.484   1.285   6.432
  109OSM    C1411110   2.708   1.265   6.177
  109OSM   H14A11111   2.664   1.186   6.117
  109OSM   H14B11112   2.815   1.251   6.172
  109OSM   H14C11113   2.677   1.361   6.136
  109OSM    C1311114   2.747   1.345   6.401
  109OSM   H13A11115   2.727   1.335   6.507
  109OSM   H13B11116   2.723   1.448   6.377
  109OSM   H13C11117   2.850   1.324   6.379
  109OSM    C1211118   2.684   1.105   6.363
  109OSM   H12A11119   2.645   1.093   6.464
  109OSM   H12B11120   2.790   1.086   6.364
  109OSM    C1111121   2.621   0.987   6.285
  109OSM   H11A11122   2.666   0.891   6.322
  109OSM   H11B11123   2.644   0.990   6.176
  109OSM      P11124   2.395   0.910   6.408
  109OSM    O1311125   2.460   0.783   6.439
  109OSM    O1411126   2.366   0.997   6.525
  109OSM    O1111127   2.262   0.884   6.325
  109OSM    O1211128   2.481   0.991   6.304
  109OSM    C1S11129   2.235   0.959   6.206
  109OSM    H1S11130   2.229   1.066   6.219
  109OSM    H1T11131   2.130   0.934   6.186
  109OSM     NF11132   2.311   1.010   5.968
  109OSM    HNF11133   2.278   0.958   5.888
  109OSM    C2S11134   2.321   0.932   6.076
  109OSM    H2S11135   2.433   0.922   6.097
  109OSM    C3S11136   2.269   0.817   6.038
  109OSM    H3S11137   2.157   0.814   6.032
  109OSM     O311138   2.357   0.735   6.125
  109OSM    HO311139   2.304   0.722   6.207
  109OSM    C4S11140   2.280   0.771   5.903
  109OSM    H4S11141   2.382   0.767   5.926
  109OSM    C5S11142   2.223   0.748   5.782
  109OSM    H5S11143   2.119   0.759   5.777
  109OSM    C6S11144   2.280   0.681   5.656
  109OSM    H6S11145   2.252   0.582   5.625
  109OSM    H6T11146   2.345   0.598   5.678
  109OSM    C7S11147   2.336   0.763   5.543
  109OSM    H7S11148   2.253   0.829   5.536
  109OSM    H7T11149   2.340   0.699   5.452
  109OSM    C8S11150   2.458   0.852   5.549
  109OSM    H8S11151   2.559   0.810   5.563
  109OSM    H8T11152   2.440   0.922   5.632
  109OSM    C9S11153   2.477   0.915   5.418
  109OSM    H9S11154   2.477   0.841   5.334
  109OSM    H9T11155   2.567   0.979   5.417
  109OSM   C10S11156   2.367   1.006   5.390
  109OSM   H10S11157   2.349   1.084   5.468
  109OSM   H10T11158   2.275   0.949   5.395
  109OSM   C11S11159   2.399   1.051   5.248
  109OSM   H11S11160   2.496   1.031   5.211
  109OSM   H11T11161   2.397   1.153   5.240
  109OSM   C12S11162   2.329   0.996   5.130
  109OSM   H12S11163   2.230   1.001   5.146
  109OSM   H12T11164   2.328   0.893   5.157
  109OSM   C13S11165   2.342   1.054   4.987
  109OSM   H13S11166   2.432   1.002   4.955
  109OSM   H13T11167   2.346   1.163   4.974
  109OSM   C14S11168   2.237   1.027   4.879
  109OSM   H14S11169   2.137   1.076   4.870
  109OSM   H14T11170   2.225   0.925   4.902
  109OSM   C15S11171   2.301   1.007   4.748
  109OSM   H15S11172   2.358   0.913   4.766
  109OSM   H15T11173   2.368   1.087   4.734
  109OSM   C16S11174   2.199   1.015   4.637
  109OSM   H16S11175   2.139   1.106   4.635
  109OSM   H16T11176   2.129   0.948   4.677
  109OSM   C17S11177   2.255   0.978   4.502
  109OSM   H17S11178   2.312   0.888   4.495
  109OSM   H17T11179   2.343   1.039   4.483
  109OSM   C18S11180   2.154   0.974   4.391
  109OSM   H18S11181   2.193   0.932   4.296
  109OSM   H18T11182   2.144   1.073   4.364
  109OSM   H18U11183   2.057   0.925   4.419
  109OSM    C1F11184   2.374   1.115   5.969
  109OSM     OF11185   2.421   1.159   6.073
  109OSM    C2F11186   2.381   1.166   5.838
  109OSM    H2F11187   2.307   1.248   5.839
  109OSM    H2G11188   2.361   1.094   5.755
  109OSM    C3F11189   2.521   1.210   5.820
  109OSM    H3F11190   2.545   1.295   5.889
  109OSM    H3G11191   2.488   1.255   5.721
  109OSM    C4F11192   2.637   1.101   5.815
  109OSM    H4F11193   2.607   1.018   5.751
  109OSM    H4G11194   2.650   1.076   5.922
  109OSM    C5F11195   2.787   1.121   5.774
  109OSM    H5F11196   2.869   1.060   5.811
  109OSM    H5G11197   2.810   1.211   5.822
  109OSM    C6F11198   2.817   1.135   5.629
  109OSM    H6F11199   2.893   1.216   5.608
  109OSM    H6G11200   2.711   1.149   5.598
  109OSM    C7F11201   2.871   1.018   5.551
  109OSM    H7F11202   2.779   0.957   5.568
  109OSM    H7G11203   2.960   1.006   5.614
  109OSM    C8F11204   2.915   1.026   5.397
  109OSM    H8F11205   2.815   1.011   5.349
  109OSM    H8G11206   2.937   0.919   5.373
  109OSM    C9F11207   3.012   1.148   5.348
  109OSM    H9F11208   3.109   1.132   5.398
  109OSM   C10F11209   2.992   1.284   5.290
  109OSM   H10F11210   3.081   1.347   5.287
  109OSM   C11F11211   2.868   1.390   5.242
  109OSM   H11F11212   2.882   1.491   5.275
  109OSM   H11G11213   2.751   1.403   5.264
  109OSM   C12F11214   2.846   1.376   5.097
  109OSM   H12F11215   2.921   1.299   5.081
  109OSM   H12G11216   2.944   1.407   5.082
  109OSM   C13F11217   2.697   1.363   4.995
  109OSM   H13F11218   2.748   1.459   4.992
  109OSM   H13G11219   2.600   1.346   5.046
  109OSM   C14F11220   2.651   1.307   4.837
  109OSM   H14F11221   2.721   1.329   4.750
  109OSM   H14G11222   2.554   1.338   4.801
  109OSM   C15F11223   2.619   1.175   4.789
  109OSM   H15F11224   2.547   1.153   4.870
  109OSM   H15G11225   2.711   1.115   4.775
  109OSM   C16F11226   2.562   1.185   4.655
  109OSM   H16F11227   2.467   1.244   4.660
  109OSM   H16G11228   2.549   1.076   4.641
  109OSM   C17F11229   2.648   1.243   4.551
  109OSM   H17F11230   2.757   1.220   4.556
  109OSM   H17G11231   2.631   1.351   4.530
  109OSM   C18F11232   2.591   1.193   4.433
  109OSM   H18F11233   2.613   1.088   4.415
  109OSM   H18G11234   2.634   1.236   4.349
  109OSM   H18H11235   2.487   1.225   4.424
  110OSM      N11236   6.039   5.426   6.466
  110OSM    C1511237   6.123   5.358   6.568
  110OSM   H15A11238   6.099   5.396   6.666
  110OSM   H15B11239   6.229   5.376   6.550
  110OSM   H15C11240   6.112   5.250   6.564
  110OSM    C1411241   6.065   5.573   6.472
  110OSM   H14A11242   5.982   5.624   6.420
  110OSM   H14B11243   6.158   5.606   6.429
  110OSM   H14C11244   6.061   5.608   6.574
  110OSM    C1311245   6.067   5.369   6.330
  110OSM   H13A11246   6.020   5.271   6.318
  110OSM   H13B11247   6.173   5.361   6.305
  110OSM   H13C11248   6.016   5.428   6.253
  110OSM    C1211249   5.891   5.407   6.501
  110OSM   H12A11250   5.873   5.451   6.598
  110OSM   H12B11251   5.868   5.301   6.504
  110OSM    C1111252   5.782   5.468   6.410
  110OSM   H11A11253   5.772   5.575   6.413
  110OSM   H11B11254   5.683   5.436   6.455
  110OSM      P11255   5.718   5.318   6.220
  110OSM    O1311256   5.799   5.200   6.265
  110OSM    O1411257   5.583   5.353   6.271
  110OSM    O1111258   5.724   5.334   6.065
  110OSM    O1211259   5.802   5.439   6.272
  110OSM    C1S11260   5.835   5.396   6.004
  110OSM    H1S11261   5.930   5.343   6.031
  110OSM    H1T11262   5.838   5.502   6.037
  110OSM     NF11263   5.851   5.276   5.798
  110OSM    HNF11264   5.936   5.257   5.747
  110OSM    C2S11265   5.823   5.398   5.851
  110OSM    H2S11266   5.721   5.420   5.814
  110OSM    C3S11267   5.921   5.495   5.792
  110OSM    H3S11268   6.018   5.481   5.843
  110OSM     O311269   5.874   5.626   5.817
  110OSM    HO311270   5.795   5.611   5.870
  110OSM    C4S11271   5.928   5.463   5.642
  110OSM    H4S11272   5.838   5.496   5.589
  110OSM    C5S11273   6.023   5.392   5.574
  110OSM    H5S11274   6.120   5.375   5.622
  110OSM    C6S11275   6.026   5.365   5.425
  110OSM    H6S11276   5.936   5.403   5.369
  110OSM    H6T11277   6.067   5.265   5.403
  110OSM    C7S11278   6.135   5.436   5.347
  110OSM    H7S11279   6.223   5.442   5.415
  110OSM    H7T11280   6.072   5.528   5.325
  110OSM    C8S11281   6.179   5.421   5.203
  110OSM    H8S11282   6.256   5.343   5.204
  110OSM    H8T11283   6.231   5.510   5.159
  110OSM    C9S11284   6.055   5.393   5.121
  110OSM    H9S11285   5.976   5.470   5.130
  110OSM    H9T11286   6.014   5.300   5.166
  110OSM   C10S11287   6.096   5.366   4.978
  110OSM   H10S11288   6.016   5.305   4.932
  110OSM   H10T11289   6.187   5.306   4.989
  110OSM   C11S11290   6.128   5.487   4.888
  110OSM   H11S11291   6.153   5.450   4.787
  110OSM   H11T11292   6.218   5.543   4.923
  110OSM   C12S11293   6.003   5.571   4.863
  110OSM   H12S11294   6.023   5.638   4.776
  110OSM   H12T11295   5.985   5.632   4.953
  110OSM   C13S11296   5.876   5.486   4.842
  110OSM   H13S11297   5.839   5.448   4.939
  110OSM   H13T11298   5.898   5.407   4.767
  110OSM   C14S11299   5.758   5.554   4.780
  110OSM   H14S11300   5.791   5.550   4.681
  110OSM   H14T11301   5.732   5.646   4.817
  110OSM   C15S11302   5.618   5.501   4.759
  110OSM   H15S11303   5.578   5.499   4.862
  110OSM   H15T11304   5.652   5.413   4.707
  110OSM   C16S11305   5.507   5.563   4.669
  110OSM   H16S11306   5.497   5.665   4.692
  110OSM   H16T11307   5.408   5.534   4.695
  110OSM   C17S11308   5.516   5.571   4.517
  110OSM   H17S11309   5.605   5.620   4.541
  110OSM   H17T11310   5.478   5.649   4.452
  110OSM   C18S11311   5.529   5.450   4.433
  110OSM   H18S11312   5.505   5.460   4.329
  110OSM   H18T11313   5.454   5.393   4.487
  110OSM   H18U11314   5.629   5.401   4.427
  110OSM    C1F11315   5.764   5.186   5.809
  110OSM     OF11316   5.661   5.175   5.869
  110OSM    C2F11317   5.838   5.087   5.777
  110OSM    H2F11318   5.864   5.087   5.888
  110OSM    H2G11319   5.927   5.084   5.707
  110OSM    C3F11320   5.772   4.982   5.719
  110OSM    H3F11321   5.693   4.929   5.784
  110OSM    H3G11322   5.848   4.927   5.660
  110OSM    C4F11323   5.756   4.990   5.580
  110OSM    H4F11324   5.723   5.095   5.582
  110OSM    H4G11325   5.688   4.900   5.604
  110OSM    C5F11326   5.836   5.016   5.455
  110OSM    H5F11327   5.912   4.938   5.452
  110OSM    H5G11328   5.871   5.120   5.470
  110OSM    C6F11329   5.765   5.027   5.316
  110OSM    H6F11330   5.671   5.087   5.309
  110OSM    H6G11331   5.721   4.927   5.306
  110OSM    C7F11332   5.855   5.093   5.215
  110OSM    H7F11333   5.951   5.090   5.269
  110OSM    H7G11334   5.812   5.193   5.192
  110OSM    C8F11335   5.885   5.036   5.083
  110OSM    H8F11336   5.941   4.947   5.119
  110OSM    H8G11337   5.967   5.050   5.014
  110OSM    C9F11338   5.757   5.016   5.011
  110OSM    H9F11339   5.675   4.958   5.060
  110OSM   C10F11340   5.738   5.034   4.884
  110OSM   H10F11341   5.670   4.964   4.827
  110OSM   C11F11342   5.827   5.078   4.792
  110OSM   H11F11343   5.928   5.081   4.825
  110OSM   H11G11344   5.792   5.178   4.830
  110OSM   C12F11345   5.790   5.040   4.649
  110OSM   H12F11346   5.682   5.023   4.637
  110OSM   H12G11347   5.785   4.939   4.610
  110OSM   C13F11348   5.851   5.157   4.567
  110OSM   H13F11349   5.837   5.258   4.612
  110OSM   H13G11350   5.824   5.180   4.462
  110OSM   C14F11351   5.986   5.103   4.555
  110OSM   H14F11352   5.962   5.002   4.513
  110OSM   H14G11353   6.022   5.098   4.659
  110OSM   C15F11354   6.080   5.179   4.468
  110OSM   H15F11355   6.116   5.265   4.530
  110OSM   H15G11356   6.031   5.215   4.376
  110OSM   C16F11357   6.197   5.088   4.435
  110OSM   H16F11358   6.173   4.983   4.416
  110OSM   H16G11359   6.251   5.101   4.528
  110OSM   C17F11360   6.301   5.129   4.337
  110OSM   H17F11361   6.393   5.067   4.339
  110OSM   H17G11362   6.340   5.220   4.388
  110OSM   C18F11363   6.255   5.144   4.190
  110OSM   H18F11364   6.316   5.215   4.130
  110OSM   H18G11365   6.154   5.188   4.182
  110OSM   H18H11366   6.270   5.051   4.135
  111OSM      N11367   1.098   5.000   6.236
  111OSM    C1511368   0.992   5.035   6.136
  111OSM   H15A11369   0.893   5.022   6.180
  111OSM   H15B11370   1.002   4.973   6.049
  111OSM   H15C11371   0.998   5.140   6.109
  111OSM    C1411372   1.081   4.856   6.274
  111OSM   H14A11373   1.083   4.792   6.186
  111OSM   H14B11374   0.986   4.838   6.326
  111OSM   H14C11375   1.160   4.823   6.338
  111OSM    C1311376   1.229   5.026   6.169
  111OSM   H13A11377   1.236   5.134   6.150
  111OSM   H13B11378   1.237   4.980   6.071
  111OSM   H13C11379   1.317   5.003   6.228
  111OSM    C1211380   1.093   5.099   6.355
  111OSM   H12A11381   1.097   5.201   6.315
  111OSM   H12B11382   1.185   5.088   6.413
  111OSM    C1111383   0.972   5.099   6.449
  111OSM   H11A11384   0.982   5.184   6.522
  111OSM   H11B11385   0.969   5.004   6.509
  111OSM      P11386   0.717   5.102   6.453
  111OSM    O1311387   0.653   4.976   6.412
  111OSM    O1411388   0.743   5.127   6.596
  111OSM    O1111389   0.628   5.221   6.395
  111OSM    O1211390   0.853   5.117   6.372
  111OSM    C1S11391   0.677   5.315   6.298
  111OSM    H1S11392   0.778   5.353   6.326
  111OSM    H1T11393   0.610   5.405   6.298
  111OSM     NF11394   0.746   5.349   6.064
  111OSM    HNF11395   0.686   5.386   5.995
  111OSM    C2S11396   0.684   5.257   6.153
  111OSM    H2S11397   0.745   5.165   6.156
  111OSM    C3S11398   0.548   5.217   6.091
  111OSM    H3S11399   0.478   5.304   6.090
  111OSM     O311400   0.498   5.108   6.164
  111OSM    HO311401   0.568   5.092   6.229
  111OSM    C4S11402   0.560   5.163   5.950
  111OSM    H4S11403   0.592   5.058   5.947
  111OSM    C5S11404   0.531   5.222   5.833
  111OSM    H5S11405   0.488   5.324   5.833
  111OSM    C6S11406   0.547   5.153   5.698
  111OSM    H6S11407   0.614   5.212   5.632
  111OSM    H6T11408   0.447   5.154   5.650
  111OSM    C7S11409   0.609   5.009   5.698
  111OSM    H7S11410   0.549   4.938   5.759
  111OSM    H7T11411   0.708   5.018   5.748
  111OSM    C8S11412   0.647   4.945   5.562
  111OSM    H8S11413   0.697   4.848   5.585
  111OSM    H8T11414   0.725   5.008   5.515
  111OSM    C9S11415   0.540   4.925   5.453
  111OSM    H9S11416   0.442   4.967   5.483
  111OSM    H9T11417   0.523   4.816   5.434
  111OSM   C10S11418   0.583   4.984   5.317
  111OSM   H10S11419   0.507   4.957   5.240
  111OSM   H10T11420   0.678   4.936   5.286
  111OSM   C11S11421   0.608   5.137   5.314
  111OSM   H11S11422   0.680   5.164   5.393
  111OSM   H11T11423   0.516   5.196   5.334
  111OSM   C12S11424   0.666   5.181   5.179
  111OSM   H12S11425   0.644   5.104   5.102
  111OSM   H12T11426   0.777   5.187   5.191
  111OSM   C13S11427   0.611   5.314   5.126
  111OSM   H13S11428   0.661   5.398   5.178
  111OSM   H13T11429   0.502   5.324   5.146
  111OSM   C14S11430   0.626   5.323   4.973
  111OSM   H14S11431   0.583   5.420   4.940
  111OSM   H14T11432   0.566   5.242   4.925
  111OSM   C15S11433   0.770   5.312   4.920
  111OSM   H15S11434   0.810   5.209   4.935
  111OSM   H15T11435   0.835   5.384   4.975
  111OSM   C16S11436   0.773   5.350   4.772
  111OSM   H16S11437   0.752   5.459   4.759
  111OSM   H16T11438   0.689   5.295   4.723
  111OSM   C17S11439   0.901   5.317   4.695
  111OSM   H17S11440   0.933   5.213   4.716
  111OSM   H17T11441   0.983   5.385   4.727
  111OSM   C18S11442   0.873   5.320   4.545
  111OSM   H18S11443   0.908   5.227   4.497
  111OSM   H18T11444   0.921   5.403   4.495
  111OSM   H18U11445   0.765   5.335   4.523
  111OSM    C1F11446   0.876   5.371   6.060
  111OSM     OF11447   0.951   5.370   6.156
  111OSM    C2F11448   0.915   5.414   5.926
  111OSM    H2F11449   0.953   5.510   5.947
  111OSM    H2G11450   0.832   5.428   5.853
  111OSM    C3F11451   1.052   5.419   5.876
  111OSM    H3F11452   1.129   5.456   5.950
  111OSM    H3G11453   1.045   5.494   5.792
  111OSM    C4F11454   1.067   5.285   5.822
  111OSM    H4F11455   1.077   5.220   5.911
  111OSM    H4G11456   1.162   5.295   5.767
  111OSM    C5F11457   0.950   5.238   5.731
  111OSM    H5F11458   0.851   5.221   5.779
  111OSM    H5G11459   0.988   5.140   5.697
  111OSM    C6F11460   0.918   5.318   5.605
  111OSM    H6F11461   0.884   5.423   5.624
  111OSM    H6G11462   0.843   5.264   5.544
  111OSM    C7F11463   1.038   5.315   5.518
  111OSM    H7F11464   1.110   5.233   5.521
  111OSM    H7G11465   1.098   5.376   5.588
  111OSM    C8F11466   1.005   5.336   5.367
  111OSM    H8F11467   0.966   5.445   5.362
  111OSM    H8G11468   0.925   5.280   5.324
  111OSM    C9F11469   1.128   5.302   5.282
  111OSM    H9F11470   1.220   5.320   5.337
  111OSM   C10F11471   1.187   5.240   5.190
  111OSM   H10F11472   1.263   5.295   5.131
  111OSM   C11F11473   1.114   5.151   5.122
  111OSM   H11F11474   1.010   5.151   5.162
  111OSM   H11G11475   1.179   5.080   5.170
  111OSM   C12F11476   1.129   5.193   4.980
  111OSM   H12F11477   1.084   5.294   4.960
  111OSM   H12G11478   1.068   5.109   4.943
  111OSM   C13F11479   1.266   5.191   4.913
  111OSM   H13F11480   1.337   5.122   4.960
  111OSM   H13G11481   1.318   5.287   4.926
  111OSM   C14F11482   1.256   5.164   4.763
  111OSM   H14F11483   1.358   5.188   4.724
  111OSM   H14G11484   1.183   5.234   4.721
  111OSM   C15F11485   1.213   5.020   4.732
  111OSM   H15F11486   1.121   4.986   4.782
  111OSM   H15G11487   1.291   4.962   4.778
  111OSM   C16F11488   1.225   4.968   4.591
  111OSM   H16F11489   1.229   4.856   4.585
  111OSM   H16G11490   1.322   5.005   4.571
  111OSM   C17F11491   1.128   5.025   4.492
  111OSM   H17F11492   1.137   5.135   4.486
  111OSM   H17G11493   1.029   5.001   4.537
  111OSM   C18F11494   1.144   4.964   4.353
  111OSM   H18F11495   1.063   5.003   4.287
  111OSM   H18G11496   1.143   4.853   4.358
  111OSM   H18H11497   1.242   4.992   4.308
  112OSM      N11498   4.991   0.943   6.480
  112OSM    C1511499   5.101   0.913   6.576
  112OSM   H15A11500   5.125   1.002   6.633
  112OSM   H15B11501   5.195   0.893   6.522
  112OSM   H15C11502   5.077   0.834   6.645
  112OSM    C1411503   4.960   0.822   6.396
  112OSM   H14A11504   4.903   0.849   6.308
  112OSM   H14B11505   4.908   0.745   6.452
  112OSM   H14C11506   5.051   0.777   6.356
  112OSM    C1311507   4.868   0.985   6.553
  112OSM   H13A11508   4.786   1.008   6.486
  112OSM   H13B11509   4.890   1.075   6.610
  112OSM   H13C11510   4.832   0.908   6.618
  112OSM    C1211511   5.039   1.063   6.398
  112OSM   H12A11512   5.093   1.130   6.467
  112OSM   H12B11513   4.953   1.118   6.364
  112OSM    C1111514   5.136   1.044   6.278
  112OSM   H11A11515   5.161   1.145   6.235
  112OSM   H11B11516   5.080   0.987   6.201
  112OSM      P11517   5.323   0.859   6.239
  112OSM    O1311518   5.458   0.844   6.292
  112OSM    O1411519   5.227   0.748   6.259
  112OSM    O1111520   5.320   0.898   6.083
  112OSM    O1211521   5.256   0.979   6.317
  112OSM    C1S11522   5.373   0.798   5.992
  112OSM    H1S11523   5.433   0.719   6.044
  112OSM    H1T11524   5.444   0.846   5.922
  112OSM     NF11525   5.332   0.651   5.800
  112OSM    HNF11526   5.301   0.672   5.708
  112OSM    C2S11527   5.266   0.720   5.908
  112OSM    H2S11528   5.216   0.643   5.971
  112OSM    C3S11529   5.154   0.812   5.854
  112OSM    H3S11530   5.199   0.884   5.781
  112OSM     O311531   5.086   0.886   5.954
  112OSM    HO311532   5.147   0.877   6.029
  112OSM    C4S11533   5.053   0.729   5.776
  112OSM    H4S11534   5.009   0.643   5.830
  112OSM    C5S11535   5.017   0.757   5.649
  112OSM    H5S11536   5.064   0.845   5.601
  112OSM    C6S11537   4.919   0.686   5.561
  112OSM    H6S11538   4.825   0.745   5.558
  112OSM    H6T11539   4.889   0.585   5.598
  112OSM    C7S11540   4.972   0.678   5.416
  112OSM    H7S11541   4.997   0.780   5.379
  112OSM    H7T11542   4.890   0.637   5.354
  112OSM    C8S11543   5.095   0.588   5.393
  112OSM    H8S11544   5.079   0.497   5.456
  112OSM    H8T11545   5.187   0.640   5.426
  112OSM    C9S11546   5.111   0.553   5.243
  112OSM    H9S11547   5.015   0.510   5.206
  112OSM    H9T11548   5.186   0.475   5.225
  112OSM   C10S11549   5.156   0.672   5.157
  112OSM   H10S11550   5.262   0.694   5.183
  112OSM   H10T11551   5.095   0.761   5.182
  112OSM   C11S11552   5.152   0.648   5.006
  112OSM   H11S11553   5.049   0.619   4.976
  112OSM   H11T11554   5.220   0.565   4.979
  112OSM   C12S11555   5.201   0.768   4.924
  112OSM   H12S11556   5.301   0.799   4.964
  112OSM   H12T11557   5.131   0.855   4.931
  112OSM   C13S11558   5.226   0.732   4.778
  112OSM   H13S11559   5.262   0.627   4.773
  112OSM   H13T11560   5.305   0.798   4.736
  112OSM   C14S11561   5.098   0.744   4.698
  112OSM   H14S11562   5.061   0.849   4.706
  112OSM   H14T11563   5.022   0.674   4.740
  112OSM   C15S11564   5.116   0.706   4.553
  112OSM   H15S11565   5.146   0.599   4.544
  112OSM   H15T11566   5.195   0.768   4.505
  112OSM   C16S11567   4.986   0.723   4.481
  112OSM   H16S11568   4.955   0.831   4.487
  112OSM   H16T11569   4.905   0.660   4.522
  112OSM   C17S11570   5.006   0.684   4.338
  112OSM   H17S11571   5.048   0.590   4.307
  112OSM   H17T11572   5.096   0.741   4.308
  112OSM   C18S11573   4.873   0.703   4.271
  112OSM   H18S11574   4.801   0.628   4.239
  112OSM   H18T11575   4.883   0.734   4.168
  112OSM   H18U11576   4.824   0.778   4.336
  112OSM    C1F11577   5.431   0.565   5.819
  112OSM     OF11578   5.453   0.509   5.924
  112OSM    C2F11579   5.508   0.525   5.698
  112OSM    H2F11580   5.463   0.431   5.682
  112OSM    H2G11581   5.609   0.488   5.718
  112OSM    C3F11582   5.500   0.616   5.574
  112OSM    H3F11583   5.526   0.720   5.602
  112OSM    H3G11584   5.399   0.617   5.525
  112OSM    C4F11585   5.599   0.573   5.465
  112OSM    H4F11586   5.608   0.462   5.464
  112OSM    H4G11587   5.701   0.608   5.493
  112OSM    C5F11588   5.546   0.625   5.329
  112OSM    H5F11589   5.449   0.591   5.297
  112OSM    H5G11590   5.617   0.584   5.256
  112OSM    C6F11591   5.518   0.777   5.312
  112OSM    H6F11592   5.615   0.786   5.367
  112OSM    H6G11593   5.461   0.838   5.379
  112OSM    C7F11594   5.496   0.825   5.157
  112OSM    H7F11595   5.432   0.762   5.105
  112OSM    H7G11596   5.575   0.791   5.085
  112OSM    C8F11597   5.498   0.976   5.115
  112OSM    H8F11598   5.548   1.009   5.017
  112OSM    H8G11599   5.562   1.032   5.185
  112OSM    C9F11600   5.434   1.065   5.206
  112OSM    H9F11601   5.445   1.046   5.317
  112OSM   C10F11602   5.397   1.175   5.146
  112OSM   H10F11603   5.313   1.207   5.199
  112OSM   C11F11604   5.419   1.202   4.998
  112OSM   H11F11605   5.528   1.209   4.980
  112OSM   H11G11606   5.389   1.305   4.984
  112OSM   C12F11607   5.345   1.110   4.893
  112OSM   H12F11608   5.237   1.125   4.909
  112OSM   H12G11609   5.371   1.002   4.898
  112OSM   C13F11610   5.356   1.151   4.747
  112OSM   H13F11611   5.445   1.125   4.698
  112OSM   H13G11612   5.323   1.251   4.729
  112OSM   C14F11613   5.289   1.076   4.640
  112OSM   H14F11614   5.183   1.091   4.664
  112OSM   H14G11615   5.324   0.971   4.642
  112OSM   C15F11616   5.319   1.134   4.505
  112OSM   H15F11617   5.423   1.136   4.465
  112OSM   H15G11618   5.287   1.236   4.497
  112OSM   C16F11619   5.233   1.064   4.412
  112OSM   H16F11620   5.124   1.076   4.433
  112OSM   H16G11621   5.260   0.955   4.417
  112OSM   C17F11622   5.271   1.125   4.282
  112OSM   H17F11623   5.379   1.130   4.267
  112OSM   H17G11624   5.220   1.220   4.256
  112OSM   C18F11625   5.228   1.027   4.197
  112OSM   H18F11626   5.255   0.921   4.210
  112OSM   H18G11627   5.231   1.049   4.086
  112OSM   H18H11628   5.128   1.014   4.241
  113OSM      N11629   0.675   2.980   6.422
  113OSM    C1511630   0.704   2.950   6.279
  113OSM   H15A11631   0.652   2.862   6.244
  113OSM   H15B11632   0.810   2.939   6.263
  113OSM   H15C11633   0.671   3.037   6.221
  113OSM    C1411634   0.719   2.866   6.506
  113OSM   H14A11635   0.665   2.777   6.476
  113OSM   H14B11636   0.697   2.889   6.610
  113OSM   H14C11637   0.825   2.849   6.497
  113OSM    C1311638   0.756   3.099   6.463
  113OSM   H13A11639   0.739   3.182   6.395
  113OSM   H13B11640   0.861   3.073   6.462
  113OSM   H13C11641   0.729   3.132   6.563
  113OSM    C1211642   0.527   3.008   6.441
  113OSM   H12A11643   0.512   3.034   6.545
  113OSM   H12B11644   0.476   2.915   6.422
  113OSM    C1111645   0.453   3.117   6.355
  113OSM   H11A11646   0.350   3.126   6.395
  113OSM   H11B11647   0.446   3.080   6.251
  113OSM      P11648   0.475   3.375   6.277
  113OSM    O1311649   0.328   3.386   6.273
  113OSM    O1411650   0.555   3.488   6.329
  113OSM    O1111651   0.527   3.339   6.132
  113OSM    O1211652   0.516   3.244   6.361
  113OSM    C1S11653   0.451   3.283   6.025
  113OSM    H1S11654   0.389   3.361   5.975
  113OSM    H1T11655   0.384   3.201   6.059
  113OSM     NF11656   0.468   3.159   5.815
  113OSM    HNF11657   0.500   3.069   5.790
  113OSM    C2S11658   0.545   3.224   5.918
  113OSM    H2S11659   0.600   3.307   5.868
  113OSM    C3S11660   0.647   3.124   5.976
  113OSM    H3S11661   0.594   3.037   6.023
  113OSM     O311662   0.733   3.181   6.071
  113OSM    HO311663   0.701   3.272   6.071
  113OSM    C4S11664   0.734   3.081   5.865
  113OSM    H4S11665   0.827   3.137   5.848
  113OSM    C5S11666   0.717   2.973   5.791
  113OSM    H5S11667   0.652   2.890   5.823
  113OSM    C6S11668   0.818   2.953   5.685
  113OSM    H6S11669   0.790   2.868   5.617
  113OSM    H6T11670   0.901   2.921   5.752
  113OSM    C7S11671   0.897   3.056   5.603
  113OSM    H7S11672   0.997   3.038   5.556
  113OSM    H7T11673   0.947   3.128   5.669
  113OSM    C8S11674   0.837   3.077   5.469
  113OSM    H8S11675   0.738   3.029   5.461
  113OSM    H8T11676   0.899   3.029   5.388
  113OSM    C9S11677   0.836   3.225   5.463
  113OSM    H9S11678   0.943   3.255   5.457
  113OSM    H9T11679   0.794   3.262   5.559
  113OSM   C10S11680   0.754   3.275   5.347
  113OSM   H10S11681   0.772   3.385   5.339
  113OSM   H10T11682   0.648   3.255   5.377
  113OSM   C11S11683   0.792   3.205   5.217
  113OSM   H11S11684   0.784   3.095   5.229
  113OSM   H11T11685   0.899   3.229   5.196
  113OSM   C12S11686   0.708   3.242   5.095
  113OSM   H12S11687   0.710   3.351   5.079
  113OSM   H12T11688   0.602   3.212   5.114
  113OSM   C13S11689   0.762   3.171   4.969
  113OSM   H13S11690   0.748   3.061   4.981
  113OSM   H13T11691   0.871   3.190   4.959
  113OSM   C14S11692   0.699   3.218   4.838
  113OSM   H14S11693   0.748   3.313   4.806
  113OSM   H14T11694   0.591   3.242   4.851
  113OSM   C15S11695   0.718   3.115   4.726
  113OSM   H15S11696   0.642   3.033   4.736
  113OSM   H15T11697   0.819   3.069   4.731
  113OSM   C16S11698   0.699   3.182   4.592
  113OSM   H16S11699   0.719   3.290   4.586
  113OSM   H16T11700   0.588   3.181   4.602
  113OSM   C17S11701   0.768   3.114   4.472
  113OSM   H17S11702   0.874   3.142   4.464
  113OSM   H17T11703   0.738   3.152   4.370
  113OSM   C18S11704   0.747   2.962   4.477
  113OSM   H18S11705   0.793   2.914   4.563
  113OSM   H18T11706   0.805   2.936   4.393
  113OSM   H18U11707   0.646   2.918   4.456
  113OSM    C1F11708   0.378   3.216   5.739
  113OSM     OF11709   0.358   3.336   5.739
  113OSM    C2F11710   0.308   3.121   5.652
  113OSM    H2F11711   0.200   3.146   5.646
  113OSM    H2G11712   0.316   3.021   5.701
  113OSM    C3F11713   0.377   3.127   5.514
  113OSM    H3F11714   0.486   3.102   5.526
  113OSM    H3G11715   0.367   3.226   5.467
  113OSM    C4F11716   0.324   3.025   5.416
  113OSM    H4F11717   0.216   3.043   5.393
  113OSM    H4G11718   0.333   2.935   5.480
  113OSM    C5F11719   0.407   3.015   5.286
  113OSM    H5F11720   0.511   2.982   5.310
  113OSM    H5G11721   0.411   3.112   5.233
  113OSM    C6F11722   0.343   2.926   5.180
  113OSM    H6F11723   0.254   2.971   5.134
  113OSM    H6G11724   0.300   2.854   5.239
  113OSM    C7F11725   0.433   2.852   5.081
  113OSM    H7F11726   0.505   2.783   5.129
  113OSM    H7G11727   0.486   2.927   5.020
  113OSM    C8F11728   0.357   2.769   4.980
  113OSM    H8F11729   0.279   2.709   5.017
  113OSM    H8G11730   0.424   2.700   4.927
  113OSM    C9F11731   0.270   2.842   4.892
  113OSM    H9F11732   0.179   2.890   4.936
  113OSM   C10F11733   0.299   2.853   4.764
  113OSM   H10F11734   0.212   2.831   4.703
  113OSM   C11F11735   0.408   2.809   4.677
  113OSM   H11F11736   0.469   2.735   4.729
  113OSM   H11G11737   0.462   2.904   4.658
  113OSM   C12F11738   0.371   2.763   4.537
  113OSM   H12F11739   0.296   2.685   4.535
  113OSM   H12G11740   0.455   2.720   4.480
  113OSM   C13F11741   0.319   2.878   4.455
  113OSM   H13F11742   0.360   2.969   4.463
  113OSM   H13G11743   0.243   2.922   4.514
  113OSM   C14F11744   0.325   2.862   4.303
  113OSM   H14F11745   0.324   2.753   4.309
  113OSM   H14G11746   0.402   2.811   4.249
  113OSM   C15F11747   0.244   2.980   4.207
  113OSM   H15F11748   0.307   3.028   4.197
  113OSM   H15G11749   0.198   3.040   4.261
  113OSM   C16F11750   0.164   2.955   4.019
  113OSM   H16F11751  -0.001   2.777   4.067
  113OSM   H16G11752   0.247   2.910   3.959
  113OSM   C17F11753   0.095   3.118   3.978
  113OSM   H17F11754   0.111   3.024   3.950
  113OSM   H17G11755   0.148   3.162   4.060
  113OSM   C18F11756  -0.069   3.180   3.976
  113OSM   H18F11757  -0.170   3.128   3.955
  113OSM   H18G11758  -0.150   3.212   4.039
  113OSM   H18H11759  -0.077   3.158   4.083
  114OSM      N11760   6.378   2.544   6.464
  114OSM    C1511761   6.470   2.547   6.580
  114OSM   H15A11762   6.427   2.501   6.667
  114OSM   H15B11763   6.497   2.649   6.599
  114OSM   H15C11764   6.561   2.490   6.557
  114OSM    C1411765   6.362   2.400   6.426
  114OSM   H14A11766   6.455   2.353   6.395
  114OSM   H14B11767   6.294   2.393   6.341
  114OSM   H14C11768   6.315   2.337   6.501
  114OSM    C1311769   6.249   2.607   6.504
  114OSM   H13A11770   6.265   2.708   6.539
  114OSM   H13B11771   6.200   2.552   6.584
  114OSM   H13C11772   6.179   2.606   6.421
  114OSM    C1211773   6.436   2.619   6.344
  114OSM   H12A11774   6.490   2.703   6.383
  114OSM   H12B11775   6.358   2.659   6.279
  114OSM    C1111776   6.535   2.546   6.250
  114OSM   H11A11777   6.585   2.622   6.187
  114OSM   H11B11778   6.480   2.476   6.183
  114OSM      P11779   6.745   2.392   6.260
  114OSM    O1311780   6.876   2.461   6.263
  114OSM    O1411781   6.738   2.261   6.325
  114OSM    O1111782   6.703   2.378   6.109
  114OSM    O1211783   6.634   2.481   6.328
  114OSM    C1S11784   6.642   2.258   6.060
  114OSM    H1S11785   6.538   2.251   6.101
  114OSM    H1T11786   6.695   2.165   6.091
  114OSM     NF11787   6.522   2.199   5.861
  114OSM    HNF11788   6.542   2.108   5.822
  114OSM    C2S11789   6.637   2.268   5.906
  114OSM    H2S11790   6.624   2.375   5.879
  114OSM    C3S11791   6.763   2.214   5.835
  114OSM    H3S11792   6.770   2.106   5.829
  114OSM     O311793   6.887   2.241   5.898
  114OSM    HO311794   6.861   2.283   5.980
  114OSM    C4S11795   6.757   2.265   5.695
  114OSM    H4S11796   6.731   2.370   5.684
  114OSM    C5S11797   6.772   2.190   5.586
  114OSM    H5S11798   6.789   2.086   5.606
  114OSM    C6S11799   6.766   2.227   5.442
  114OSM    H6S11800   6.679   2.180   5.394
  114OSM    H6T11801   6.858   2.192   5.390
  114OSM    C7S11802   6.754   2.377   5.429
  114OSM    H7S11803   6.850   2.419   5.466
  114OSM    H7T11804   6.670   2.420   5.486
  114OSM    C8S11805   6.725   2.419   5.287
  114OSM    H8S11806   6.655   2.356   5.232
  114OSM    H8T11807   6.820   2.386   5.243
  114OSM    C9S11808   6.681   2.569   5.281
  114OSM    H9S11809   6.665   2.614   5.185
  114OSM    H9T11810   6.743   2.645   5.332
  114OSM   C10S11811   6.541   2.603   5.315
  114OSM   H10S11812   6.536   2.714   5.297
  114OSM   H10T11813   6.536   2.584   5.423
  114OSM   C11S11814   6.437   2.533   5.225
  114OSM   H11S11815   6.343   2.556   5.277
  114OSM   H11T11816   6.452   2.423   5.227
  114OSM   C12S11817   6.423   2.584   5.077
  114OSM   H12S11818   6.508   2.551   5.014
  114OSM   H12T11819   6.424   2.695   5.075
  114OSM   C13S11820   6.291   2.542   5.007
  114OSM   H13S11821   6.203   2.583   5.062
  114OSM   H13T11822   6.283   2.432   5.013
  114OSM   C14S11823   6.287   2.582   4.858
  114OSM   H14S11824   6.380   2.549   4.809
  114OSM   H14T11825   6.283   2.693   4.849
  114OSM   C15S11826   6.169   2.523   4.779
  114OSM   H15S11827   6.170   2.574   4.679
  114OSM   H15T11828   6.074   2.550   4.829
  114OSM   C16S11829   6.178   2.368   4.769
  114OSM   H16S11830   6.082   2.316   4.749
  114OSM   H16T11831   6.191   2.323   4.868
  114OSM   C17S11832   6.279   2.316   4.665
  114OSM   H17S11833   6.256   2.209   4.660
  114OSM   H17T11834   6.383   2.330   4.702
  114OSM   C18S11835   6.274   2.366   4.520
  114OSM   H18S11836   6.308   2.471   4.509
  114OSM   H18T11837   6.174   2.346   4.481
  114OSM   H18U11838   6.328   2.305   4.447
  114OSM    C1F11839   6.404   2.244   5.898
  114OSM     OF11840   6.384   2.361   5.920
  114OSM    C2F11841   6.300   2.152   5.896
  114OSM    H2F11842   6.217   2.139   5.963
  114OSM    H2G11843   6.344   2.055   5.933
  114OSM    C3F11844   6.255   2.207   5.756
  114OSM    H3F11845   6.163   2.228   5.710
  114OSM    H3G11846   6.216   2.110   5.773
  114OSM    C4F11847   6.288   2.177   5.622
  114OSM    H4F11848   6.218   2.084   5.608
  114OSM    H4G11849   6.397   2.198   5.619
  114OSM    C5F11850   6.247   2.217   5.494
  114OSM    H5F11851   6.346   2.233   5.443
  114OSM    H5G11852   6.211   2.306   5.509
  114OSM    C6F11853   6.130   2.139   5.432
  114OSM    H6F11854   6.046   2.090   5.484
  114OSM    H6G11855   6.165   2.041   5.453
  114OSM    C7F11856   6.104   2.172   5.272
  114OSM    H7F11857   6.037   2.225   5.293
  114OSM    H7G11858   6.009   2.115   5.272
  114OSM    C8F11859   6.200   2.166   5.120
  114OSM    H8F11860   6.268   2.246   5.147
  114OSM    H8G11861   6.134   2.217   5.050
  114OSM    C9F11862   6.286   2.031   5.046
  114OSM    H9F11863   6.264   1.920   5.072
  114OSM   C10F11864   6.405   2.012   5.008
  114OSM   H10F11865   6.445   1.911   5.018
  114OSM   C11F11866   6.490   2.124   5.026
  114OSM   H11F11867   6.486   2.175   5.125
  114OSM   H11G11868   6.444   2.188   4.949
  114OSM   C12F11869   6.624   2.079   4.981
  114OSM   H12F11870   6.614   2.045   4.876
  114OSM   H12G11871   6.671   2.002   5.040
  114OSM   C13F11872   6.725   2.187   4.994
  114OSM   H13F11873   6.821   2.148   4.955
  114OSM   H13G11874   6.742   2.211   5.103
  114OSM   C14F11875   6.683   2.309   4.917
  114OSM   H14F11876   6.761   2.369   4.958
  114OSM   H14G11877   6.590   2.357   4.953
  114OSM   C15F11878   6.690   2.306   4.764
  114OSM   H15F11879   6.616   2.231   4.727
  114OSM   H15G11880   6.791   2.278   4.727
  114OSM   C16F11881   6.653   2.441   4.699
  114OSM   H16F11882   6.734   2.514   4.712
  114OSM   H16G11883   6.563   2.484   4.744
  114OSM   C17F11884   6.630   2.428   4.550
  114OSM   H17F11885   6.588   2.523   4.509
  114OSM   H17G11886   6.559   2.348   4.521
  114OSM   C18F11887   6.758   2.398   4.483
  114OSM   H18F11888   6.728   2.386   4.375
  114OSM   H18G11889   6.816   2.308   4.506
  114OSM   H18H11890   6.829   2.483   4.499
  115OSM      N11891   6.924   5.073   6.480
  115OSM    C1511892   7.010   5.140   6.578
  115OSM   H15A11893   7.066   5.064   6.632
  115OSM   H15B11894   6.952   5.193   6.653
  115OSM   H15C11895   7.078   5.207   6.529
  115OSM    C1411896   7.010   5.018   6.371
  115OSM   H14A11897   6.951   4.947   6.311
  115OSM   H14B11898   7.096   4.967   6.412
  115OSM   H14C11899   7.044   5.094   6.303
  115OSM    C1311900   6.847   4.963   6.548
  115OSM   H13A11901   6.908   4.893   6.602
  115OSM   H13B11902   6.788   4.910   6.472
  115OSM   H13C11903   6.769   5.000   6.612
  115OSM    C1211904   6.824   5.172   6.425
  115OSM   H12A11905   6.876   5.260   6.386
  115OSM   H12B11906   6.766   5.205   6.510
  115OSM    C1111907   6.722   5.125   6.318
  115OSM   H11A11908   6.777   5.131   6.221
  115OSM   H11B11909   6.637   5.197   6.312
  115OSM      P11910   6.589   4.918   6.231
  115OSM    O1311911   6.588   4.773   6.256
  115OSM    O1411912   6.459   4.987   6.221
  115OSM    O1111913   6.681   4.954   6.102
  115OSM    O1211914   6.674   4.992   6.343
  115OSM    C1S11915   6.616   4.971   5.977
  115OSM    H1S11916   6.509   4.988   5.988
  115OSM    H1T11917   6.615   4.877   5.924
  115OSM     NF11918   6.603   5.079   5.756
  115OSM    HNF11919   6.628   5.018   5.680
  115OSM    C2S11920   6.680   5.075   5.880
  115OSM    H2S11921   6.676   5.176   5.923
  115OSM    C3S11922   6.831   5.040   5.858
  115OSM    H3S11923   6.862   4.936   5.858
  115OSM     O311924   6.912   5.097   5.959
  115OSM    HO311925   6.843   5.133   6.016
  115OSM    C4S11926   6.867   5.091   5.727
  115OSM    H4S11927   6.871   5.200   5.721
  115OSM    C5S11928   6.886   5.016   5.618
  115OSM    H5S11929   6.896   4.909   5.610
  115OSM    C6S11930   6.920   5.076   5.494
  115OSM    H6S11931   7.013   5.017   5.482
  115OSM    H6T11932   6.937   5.184   5.511
  115OSM    C7S11933   6.826   5.077   5.373
  115OSM    H7S11934   6.738   5.135   5.402
  115OSM    H7T11935   6.806   4.971   5.345
  115OSM    C8S11936   6.862   5.155   5.247
  115OSM    H8S11937   6.959   5.140   5.229
  115OSM    H8T11938   6.899   5.255   5.252
  115OSM    C9S11939   6.778   5.120   5.126
  115OSM    H9S11940   6.685   5.178   5.141
  115OSM    H9T11941   6.757   5.012   5.116
  115OSM   C10S11942   6.836   5.156   4.991
  115OSM   H10S11943   6.927   5.118   4.964
  115OSM   H10T11944   6.894   5.247   5.009
  115OSM   C11S11945   6.726   5.138   4.882
  115OSM   H11S11946   6.632   5.187   4.914
  115OSM   H11T11947   6.720   5.032   4.863
  115OSM   C12S11948   6.755   5.181   4.742
  115OSM   H12S11949   6.859   5.161   4.708
  115OSM   H12T11950   6.714   5.283   4.772
  115OSM   C13S11951   6.685   5.191   4.609
  115OSM   H13S11952   6.627   5.281   4.602
  115OSM   H13T11953   6.601   5.135   4.627
  115OSM   C14S11954   6.785   5.172   4.486
  115OSM   H14S11955   6.859   5.098   4.511
  115OSM   H14T11956   6.874   5.228   4.487
  115OSM   C15S11957   6.711   5.153   4.351
  115OSM   H15S11958   6.604   5.151   4.375
  115OSM   H15T11959   6.664   5.069   4.309
  115OSM   C16S11960   6.759   5.174   4.211
  115OSM   H16S11961   6.718   5.101   4.149
  115OSM   H16T11962   6.841   5.117   4.253
  115OSM   C17S11963   6.760   5.309   4.104
  115OSM   H17S11964   6.786   5.353   4.194
  115OSM   H17T11965   6.665   5.343   4.073
  115OSM   C18S11966   6.843   5.443   4.071
  115OSM   H18S11967   6.942   5.455   4.116
  115OSM   H18T11968   6.833   5.538   4.021
  115OSM   H18U11969   6.842   5.409   3.970
  115OSM    C1F11970   6.485   5.146   5.762
  115OSM     OF11971   6.443   5.192   5.865
  115OSM    C2F11972   6.397   5.153   5.644
  115OSM    H2F11973   6.358   5.254   5.624
  115OSM    H2G11974   6.303   5.108   5.681
  115OSM    C3F11975   6.476   5.103   5.521
  115OSM    H3F11976   6.528   5.007   5.541
  115OSM    H3G11977   6.560   5.168   5.500
  115OSM    C4F11978   6.389   5.104   5.395
  115OSM    H4F11979   6.298   5.165   5.394
  115OSM    H4G11980   6.347   5.018   5.430
  115OSM    C5F11981   6.438   5.066   5.253
  115OSM    H5F11982   6.479   4.960   5.250
  115OSM    H5G11983   6.514   5.141   5.234
  115OSM    C6F11984   6.329   5.074   5.140
  115OSM    H6F11985   6.231   5.118   5.167
  115OSM    H6G11986   6.291   4.978   5.108
  115OSM    C7F11987   6.391   5.107   5.008
  115OSM    H7F11988   6.481   5.041   4.999
  115OSM    H7G11989   6.418   5.213   5.014
  115OSM    C8F11990   6.297   5.081   4.891
  115OSM    H8F11991   6.228   5.164   4.882
  115OSM    H8G11992   6.232   4.992   4.906
  115OSM    C9F11993   6.374   5.089   4.765
  115OSM    H9F11994   6.446   5.170   4.752
  115OSM   C10F11995   6.381   4.996   4.674
  115OSM   H10F11996   6.424   5.019   4.575
  115OSM   C11F11997   6.327   4.865   4.658
  115OSM   H11F11998   6.285   4.861   4.557
  115OSM   H11G11999   6.244   4.874   4.731
  115OSM   C12F12000   6.403   4.723   4.671
  115OSM   H12F12001   6.345   4.644   4.636
  115OSM   H12G12002   6.436   4.687   4.764
  115OSM   C13F12003   6.488   4.645   4.571
  115OSM   H13F12004   6.471   4.752   4.536
  115OSM   H13G12005   6.453   4.626   4.473
  115OSM   C14F12006   6.649   4.577   4.623
  115OSM   H14F12007   6.664   4.489   4.569
  115OSM   H14G12008   6.640   4.572   4.732
  115OSM   C15F12009   6.817   4.604   4.593
  115OSM   H15F12010   6.898   4.562   4.650
  115OSM   H15G12011   6.851   4.705   4.632
  115OSM   C16F12012   6.865   4.606   4.446
  115OSM   H16F12013   6.772   4.654   4.421
  115OSM   H16G12014   6.837   4.530   4.376
  115OSM   C17F12015   7.009   4.669   4.411
  115OSM   H17F12016   7.071   4.674   4.500
  115OSM   H17G12017   7.038   4.776   4.426
  115OSM   C18F12018   7.037   4.696   4.261
  115OSM   H18F12019   6.946   4.732   4.211
  115OSM   H18G12020   7.039   4.600   4.212
  115OSM   H18H12021   7.113   4.778   4.240
  116OSM      N12022   6.364   1.555   6.490
  116OSM    C1512023   6.310   1.695   6.501
  116OSM   H15A12024   6.255   1.713   6.592
  116OSM   H15B12025   6.248   1.718   6.415
  116OSM   H15C12026   6.394   1.765   6.496
  116OSM    C1412027   6.481   1.540   6.584
  116OSM   H14A12028   6.556   1.617   6.561
  116OSM   H14B12029   6.528   1.443   6.572
  116OSM   H14C12030   6.455   1.553   6.688
  116OSM    C1312031   6.259   1.453   6.527
  116OSM   H13A12032   6.163   1.478   6.485
  116OSM   H13B12033   6.248   1.451   6.635
  116OSM   H13C12034   6.288   1.353   6.497
  116OSM    C1212035   6.406   1.534   6.347
  116OSM   H12A12036   6.333   1.576   6.280
  116OSM   H12B12037   6.410   1.427   6.321
  116OSM    C1112038   6.537   1.600   6.303
  116OSM   H11A12039   6.561   1.553   6.204
  116OSM   H11B12040   6.619   1.575   6.375
  116OSM      P12041   6.669   1.797   6.223
  116OSM    O1312042   6.697   1.928   6.279
  116OSM    O1412043   6.770   1.689   6.240
  116OSM    O1112044   6.631   1.809   6.068
  116OSM    O1212045   6.530   1.741   6.287
  116OSM    C1S12046   6.692   1.711   5.983
  116OSM    H1S12047   6.652   1.611   6.010
  116OSM    H1T12048   6.804   1.711   5.991
  116OSM     NF12049   6.722   1.643   5.742
  116OSM    HNF12050   6.788   1.677   5.680
  116OSM    C2S12051   6.660   1.733   5.833
  116OSM    H2S12052   6.548   1.725   5.824
  116OSM    C3S12053   6.703   1.866   5.787
  116OSM    H3S12054   6.809   1.890   5.801
  116OSM     O312055   6.619   1.955   5.854
  116OSM    HO312056   6.591   1.912   5.937
  116OSM    C4S12057   6.684   1.881   5.638
  116OSM    H4S12058   6.592   1.870   5.608
  116OSM    C5S12059   6.745   1.879   5.522
  116OSM    H5S12060   6.844   1.862   5.524
  116OSM    C6S12061   6.694   1.901   5.384
  116OSM    H6S12062   6.755   1.970   5.323
  116OSM    H6T12063   6.616   1.968   5.396
  116OSM    C7S12064   6.660   1.770   5.314
  116OSM    H7S12065   6.608   1.699   5.382
  116OSM    H7T12066   6.759   1.732   5.283
  116OSM    C8S12067   6.575   1.789   5.190
  116OSM    H8S12068   6.623   1.867   5.136
  116OSM    H8T12069   6.474   1.806   5.202
  116OSM    C9S12070   6.541   1.681   5.096
  116OSM    H9S12071   6.506   1.591   5.153
  116OSM    H9T12072   6.640   1.685   5.046
  116OSM   C10S12073   6.454   1.698   4.973
  116OSM   H10S12074   6.511   1.772   4.911
  116OSM   H10T12075   6.354   1.730   5.004
  116OSM   C11S12076   6.417   1.577   4.891
  116OSM   H11S12077   6.416   1.483   4.948
  116OSM   H11T12078   6.484   1.582   4.806
  116OSM   C12S12079   6.321   1.590   4.777
  116OSM   H12S12080   6.341   1.687   4.727
  116OSM   H12T12081   6.230   1.596   4.831
  116OSM   C13S12082   6.328   1.480   4.669
  116OSM   H13S12083   6.304   1.386   4.699
  116OSM   H13T12084   6.420   1.427   4.646
  116OSM   C14S12085   6.235   1.489   4.551
  116OSM   H14S12086   6.132   1.519   4.581
  116OSM   H14T12087   6.231   1.386   4.506
  116OSM   C15S12088   6.304   1.580   4.455
  116OSM   H15S12089   6.409   1.555   4.439
  116OSM   H15T12090   6.330   1.668   4.511
  116OSM   C16S12091   6.226   1.598   4.326
  116OSM   H16S12092   6.184   1.697   4.309
  116OSM   H16T12093   6.137   1.532   4.330
  116OSM   C17S12094   6.312   1.571   4.204
  116OSM   H17S12095   6.257   1.612   4.116
  116OSM   H17T12096   6.318   1.462   4.204
  116OSM   C18S12097   6.454   1.627   4.199
  116OSM   H18S12098   6.505   1.607   4.102
  116OSM   H18T12099   6.520   1.594   4.281
  116OSM   H18U12100   6.442   1.733   4.213
  116OSM    C1F12101   6.685   1.526   5.735
  116OSM     OF12102   6.615   1.494   5.825
  116OSM    C2F12103   6.721   1.454   5.615
  116OSM    H2F12104   6.778   1.359   5.626
  116OSM    H2G12105   6.765   1.523   5.539
  116OSM    C3F12106   6.595   1.417   5.561
  116OSM    H3F12107   6.499   1.480   5.558
  116OSM    H3G12108   6.587   1.311   5.578
  116OSM    C4F12109   6.616   1.365   5.441
  116OSM    H4F12110   6.636   1.465   5.389
  116OSM    H4G12111   6.504   1.383   5.407
  116OSM    C5F12112   6.712   1.200   5.402
  116OSM    H5F12113   6.652   1.108   5.416
  116OSM    H5G12114   6.794   1.226   5.464
  116OSM    C6F12115   6.799   1.144   5.239
  116OSM    H6F12116   6.742   1.153   5.129
  116OSM    H6G12117   6.774   1.039   5.223
  116OSM    C7F12118   6.927   1.247   5.194
  116OSM    H7F12119   6.950   1.251   5.080
  116OSM    H7G12120   7.000   1.228   5.269
  116OSM    C8F12121   6.949   1.408   5.252
  116OSM    H8F12122   6.891   1.438   5.342
  116OSM    H8G12123   6.884   1.496   5.228
  116OSM    C9F12124   7.017   1.517   5.196
  116OSM    H9F12125   7.058   1.546   5.283
  116OSM   C10F12126   7.032   1.583   5.084
  116OSM   H10F12127   7.122   1.536   5.058
  116OSM   C11F12128   6.983   1.576   4.956
  116OSM   H11F12129   6.954   1.473   4.968
  116OSM   H11G12130   7.047   1.525   4.880
  116OSM   C12F12131   6.917   1.712   4.909
  116OSM   H12F12132   6.983   1.799   4.885
  116OSM   H12G12133   6.839   1.757   4.970
  116OSM   C13F12134   6.880   1.684   4.769
  116OSM   H13F12135   6.782   1.660   4.799
  116OSM   H13G12136   6.939   1.597   4.733
  116OSM   C14F12137   6.841   1.779   4.662
  116OSM   H14F12138   6.821   1.715   4.576
  116OSM   H14G12139   6.925   1.844   4.635
  116OSM   C15F12140   6.709   1.845   4.697
  116OSM   H15F12141   6.718   1.899   4.789
  116OSM   H15G12142   6.622   1.779   4.721
  116OSM   C16F12143   6.665   1.926   4.583
  116OSM   H16F12144   6.741   2.005   4.569
  116OSM   H16G12145   6.566   1.969   4.607
  116OSM   C17F12146   6.659   1.840   4.458
  116OSM   H17F12147   6.566   1.780   4.437
  116OSM   H17G12148   6.739   1.777   4.433
  116OSM   C18F12149   6.696   1.908   4.342
  116OSM   H18F12150   6.756   2.000   4.307
  116OSM   H18G12151   6.616   1.959   4.393
  116OSM   H18H12152   6.643   1.851   4.262
  117OSM      N12153   1.174   5.904   6.375
  117OSM    C1512154   1.287   5.939   6.287
  117OSM   H15A12155   1.344   6.024   6.326
  117OSM   H15B12156   1.258   5.965   6.186
  117OSM   H15C12157   1.360   5.857   6.286
  117OSM    C1412158   1.237   5.847   6.498
  117OSM   H14A12159   1.161   5.822   6.570
  117OSM   H14B12160   1.307   5.916   6.541
  117OSM   H14C12161   1.290   5.755   6.472
  117OSM    C1312162   1.092   6.025   6.405
  117OSM   H13A12163   1.012   5.999   6.475
  117OSM   H13B12164   1.037   6.055   6.315
  117OSM   H13C12165   1.146   6.110   6.442
  117OSM    C1212166   1.081   5.799   6.314
  117OSM   H12A12167   1.139   5.712   6.283
  117OSM   H12B12168   1.038   5.841   6.223
  117OSM    C1112169   0.960   5.747   6.402
  117OSM   H11A12170   0.999   5.717   6.501
  117OSM   H11B12171   0.918   5.652   6.361
  117OSM      P12172   0.742   5.871   6.315
  117OSM    O1312173   0.613   5.896   6.382
  117OSM    O1412174   0.800   5.968   6.220
  117OSM    O1112175   0.723   5.732   6.241
  117OSM    O1212176   0.857   5.842   6.423
  117OSM    C1S12177   0.631   5.715   6.132
  117OSM    H1S12178   0.537   5.770   6.150
  117OSM    H1T12179   0.606   5.606   6.122
  117OSM     NF12180   0.606   5.744   5.879
  117OSM    HNF12181   0.617   5.670   5.813
  117OSM    C2S12182   0.692   5.756   5.994
  117OSM    H2S12183   0.744   5.853   6.005
  117OSM    C3S12184   0.799   5.666   5.969
  117OSM    H3S12185   0.741   5.571   5.943
  117OSM     O312186   0.889   5.653   6.082
  117OSM    HO312187   0.839   5.671   6.164
  117OSM    C4S12188   0.874   5.711   5.843
  117OSM    H4S12189   0.873   5.642   5.756
  117OSM    C5S12190   0.967   5.808   5.848
  117OSM    H5S12191   1.001   5.839   5.948
  117OSM    C6S12192   1.045   5.865   5.734
  117OSM    H6S12193   1.125   5.808   5.704
  117OSM    H6T12194   1.109   5.951   5.763
  117OSM    C7S12195   0.960   5.881   5.608
  117OSM    H7S12196   0.883   5.954   5.633
  117OSM    H7T12197   0.909   5.784   5.581
  117OSM    C8S12198   1.034   5.939   5.484
  117OSM    H8S12199   1.132   5.990   5.510
  117OSM    H8T12200   0.963   5.996   5.424
  117OSM    C9S12201   1.070   5.829   5.389
  117OSM    H9S12202   0.998   5.749   5.367
  117OSM    H9T12203   1.112   5.809   5.489
  117OSM   C10S12204   1.179   5.836   5.279
  117OSM   H10S12205   1.230   5.746   5.245
  117OSM   H10T12206   1.267   5.895   5.305
  117OSM   C11S12207   1.104   5.867   5.152
  117OSM   H11S12208   1.040   5.951   5.185
  117OSM   H11T12209   1.039   5.780   5.128
  117OSM   C12S12210   1.195   5.910   5.036
  117OSM   H12S12211   1.270   5.831   5.015
  117OSM   H12T12212   1.255   5.996   5.073
  117OSM   C13S12213   1.114   5.944   4.908
  117OSM   H13S12214   1.171   6.009   4.838
  117OSM   H13T12215   1.027   6.005   4.940
  117OSM   C14S12216   1.065   5.823   4.823
  117OSM   H14S12217   1.035   5.739   4.889
  117OSM   H14T12218   1.152   5.787   4.763
  117OSM   C15S12219   0.951   5.851   4.722
  117OSM   H15S12220   0.978   5.934   4.653
  117OSM   H15T12221   0.860   5.882   4.777
  117OSM   C16S12222   0.924   5.731   4.629
  117OSM   H16S12223   0.823   5.742   4.586
  117OSM   H16T12224   0.924   5.635   4.684
  117OSM   C17S12225   1.026   5.735   4.513
  117OSM   H17S12226   1.128   5.713   4.554
  117OSM   H17T12227   1.026   5.835   4.466
  117OSM   C18S12228   1.004   5.637   4.400
  117OSM   H18S12229   1.087   5.642   4.327
  117OSM   H18T12230   0.905   5.650   4.350
  117OSM   H18U12231   1.016   5.540   4.445
  117OSM    C1F12232   0.512   5.830   5.874
  117OSM     OF12233   0.509   5.909   5.963
  117OSM    C2F12234   0.409   5.819   5.769
  117OSM    H2F12235   0.353   5.912   5.780
  117OSM    H2G12236   0.335   5.744   5.800
  117OSM    C3F12237   0.463   5.792   5.626
  117OSM    H3F12238   0.507   5.692   5.616
  117OSM    H3G12239   0.544   5.867   5.603
  117OSM    C4F12240   0.351   5.789   5.520
  117OSM    H4F12241   0.279   5.859   5.566
  117OSM    H4G12242   0.275   5.712   5.526
  117OSM    C5F12243   0.394   5.809   5.369
  117OSM    H5F12244   0.304   5.832   5.307
  117OSM    H5G12245   0.439   5.712   5.343
  117OSM    C6F12246   0.517   5.894   5.326
  117OSM    H6F12247   0.601   5.890   5.395
  117OSM    H6G12248   0.516   5.989   5.357
  117OSM    C7F12249   0.546   5.927   5.176
  117OSM    H7F12250   0.580   5.829   5.143
  117OSM    H7G12251   0.629   6.002   5.171
  117OSM    C8F12252   0.432   5.977   5.083
  117OSM    H8F12253   0.396   6.072   5.119
  117OSM    H8G12254   0.341   5.915   5.092
  117OSM    C9F12255   0.470   6.005   4.939
  117OSM    H9F12256   0.500   6.108   4.915
  117OSM   C10F12257   0.486   5.912   4.844
  117OSM   H10F12258   0.515   5.944   4.742
  117OSM   C11F12259   0.468   5.765   4.868
  117OSM   H11F12260   0.427   5.744   4.969
  117OSM   H11G12261   0.568   5.716   4.860
  117OSM   C12F12262   0.373   5.689   4.778
  117OSM   H12F12263   0.276   5.743   4.768
  117OSM   H12G12264   0.356   5.588   4.822
  117OSM   C13F12265   0.442   5.659   4.650
  117OSM   H13F12266   0.423   5.555   4.614
  117OSM   H13G12267   0.552   5.657   4.653
  117OSM   C14F12268   0.409   5.759   4.547
  117OSM   H14F12269   0.411   5.868   4.562
  117OSM   H14G12270   0.297   5.756   4.536
  117OSM   C15F12271   0.502   5.695   4.438
  117OSM   H15F12272   0.443   5.717   4.371
  117OSM   H15G12273   0.481   5.624   4.355
  117OSM   C16F12274   0.623   5.754   4.386
  117OSM   H16F12275   0.633   5.726   4.276
  117OSM   H16G12276   0.684   5.691   4.450
  117OSM   C17F12277   0.637   5.896   4.417
  117OSM   H17F12278   0.743   5.915   4.383
  117OSM   H17G12279   0.613   5.934   4.516
  117OSM   C18F12280   0.553   5.979   4.337
  117OSM   H18F12281   0.553   5.916   4.253
  117OSM   H18G12282   0.612   6.072   4.332
  117OSM   H18H12283   0.445   5.989   4.321
  118OSM      N12284   0.188   4.025   6.348
  118OSM    C1512285   0.217   4.161   6.296
  118OSM   H15A12286   0.195   4.166   6.190
  118OSM   H15B12287   0.325   4.176   6.306
  118OSM   H15C12288   0.168   4.241   6.348
  118OSM    C1412289   0.232   4.026   6.486
  118OSM   H14A12290   0.327   4.074   6.498
  118OSM   H14B12291   0.231   3.925   6.528
  118OSM   H14C12292   0.158   4.082   6.537
  118OSM    C1312293   0.045   3.983   6.345
  118OSM   H13A12294   0.026   3.877   6.363
  118OSM   H13B12295   0.009   4.000   6.243
  118OSM   H13C12296  -0.022   4.044   6.405
  118OSM    C1212297   0.278   3.928   6.275
  118OSM   H12A12298   0.372   3.979   6.265
  118OSM   H12B12299   0.240   3.912   6.174
  118OSM    C1112300   0.304   3.789   6.341
  118OSM   H11A12301   0.387   3.797   6.414
  118OSM   H11B12302   0.341   3.718   6.263
  118OSM      P12303   0.090   3.633   6.354
  118OSM    O1312304   0.128   3.505   6.413
  118OSM    O1412305  -0.046   3.682   6.385
  118OSM    O1112306   0.115   3.645   6.198
  118OSM    O1212307   0.188   3.744   6.410
  118OSM    C1S12308   0.052   3.747   6.122
  118OSM    H1S12309   0.079   3.847   6.152
  118OSM    H1T12310  -0.054   3.771   6.148
  118OSM     NF12311   0.013   3.834   5.908
  118OSM    HNF12312  -0.083   3.819   5.888
  118OSM    C2S12313   0.082   3.724   5.971
  118OSM    H2S12314   0.192   3.726   5.962
  118OSM    C3S12315   0.043   3.585   5.913
  118OSM    H3S12316  -0.055   3.553   5.895
  118OSM     O312317   0.104   3.473   5.974
  118OSM    HO312318   0.136   3.512   6.057
  118OSM    C4S12319   0.061   3.589   5.766
  118OSM    H4S12320  -0.029   3.623   5.711
  118OSM    C5S12321   0.173   3.551   5.709
  118OSM    H5S12322   0.254   3.534   5.780
  118OSM    C6S12323   0.212   3.541   5.567
  118OSM    H6S12324   0.238   3.434   5.549
  118OSM    H6T12325   0.290   3.612   5.535
  118OSM    C7S12326   0.104   3.568   5.472
  118OSM    H7S12327   0.080   3.676   5.472
  118OSM    H7T12328   0.012   3.533   5.524
  118OSM    C8S12329   0.142   3.508   5.330
  118OSM    H8S12330   0.073   3.480   5.250
  118OSM    H8T12331   0.173   3.403   5.334
  118OSM    C9S12332   0.215   3.609   5.244
  118OSM    H9S12333   0.239   3.556   5.149
  118OSM    H9T12334   0.301   3.632   5.307
  118OSM   C10S12335   0.145   3.741   5.208
  118OSM   H10S12336   0.098   3.789   5.296
  118OSM   H10T12337   0.064   3.724   5.133
  118OSM   C11S12338   0.249   3.837   5.149
  118OSM   H11S12339   0.330   3.852   5.225
  118OSM   H11T12340   0.201   3.936   5.133
  118OSM   C12S12341   0.308   3.788   5.015
  118OSM   H12S12342   0.279   3.682   4.996
  118OSM   H12T12343   0.419   3.791   5.023
  118OSM   C13S12344   0.267   3.872   4.893
  118OSM   H13S12345   0.247   3.976   4.928
  118OSM   H13T12346   0.173   3.833   4.847
  118OSM   C14S12347   0.379   3.892   4.790
  118OSM   H14S12348   0.386   3.804   4.722
  118OSM   H14T12349   0.474   3.906   4.844
  118OSM   C15S12350   0.350   4.020   4.710
  118OSM   H15S12351   0.323   4.111   4.767
  118OSM   H15T12352   0.249   3.988   4.683
  118OSM   C16S12353   0.447   4.062   4.596
  118OSM   H16S12354   0.466   3.983   4.520
  118OSM   H16T12355   0.548   4.072   4.640
  118OSM   C17S12356   0.399   4.194   4.527
  118OSM   H17S12357   0.327   4.248   4.591
  118OSM   H17T12358   0.343   4.185   4.430
  118OSM   C18S12359   0.514   4.283   4.491
  118OSM   H18S12360   0.561   4.225   4.413
  118OSM   H18T12361   0.592   4.283   4.567
  118OSM   H18U12362   0.481   4.385   4.460
  118OSM    C1F12363   0.067   3.956   5.917
  118OSM     OF12364   0.179   3.970   5.965
  118OSM    C2F12365  -0.022   4.071   5.878
  118OSM    H2F12366  -0.048   4.126   5.970
  118OSM    H2G12367  -0.117   4.029   5.840
  118OSM    C3F12368   0.044   4.165   5.774
  118OSM    H3F12369   0.143   4.197   5.812
  118OSM    H3G12370  -0.013   4.261   5.764
  118OSM    C4F12371   0.056   4.103   5.634
  118OSM    H4F12372   0.107   4.005   5.635
  118OSM    H4G12373   0.107   4.175   5.566
  118OSM    C5F12374  -0.074   4.064   5.569
  118OSM    H5F12375  -0.122   4.157   5.585
  118OSM    H5G12376  -0.149   4.005   5.624
  118OSM    C6F12377  -0.051   4.010   5.425
  118OSM    H6F12378   0.024   3.932   5.424
  118OSM    H6G12379  -0.009   4.093   5.361
  118OSM    C7F12380  -0.172   3.943   5.358
  118OSM    H7F12381  -0.234   4.008   5.421
  118OSM    H7G12382  -0.258   3.886   5.385
  118OSM    C8F12383  -0.165   3.920   5.202
  118OSM    H8F12384  -0.096   3.838   5.193
  118OSM    H8G12385  -0.123   4.014   5.158
  118OSM    C9F12386  -0.286   3.888   5.117
  118OSM    H9F12387  -0.373   3.930   5.158
  118OSM   C10F12388  -0.321   3.811   5.017
  118OSM   H10F12389  -0.424   3.813   4.974
  118OSM   C11F12390  -0.217   3.723   4.966
  118OSM   H11F12391  -0.269   3.641   4.917
  118OSM   H11G12392  -0.162   3.684   5.054
  118OSM   C12F12393  -0.111   3.797   4.886
  118OSM   H12F12394  -0.037   3.717   4.861
  118OSM   H12G12395  -0.061   3.874   4.948
  118OSM   C13F12396  -0.162   3.885   4.770
  118OSM   H13F12397  -0.074   3.936   4.719
  118OSM   H13G12398  -0.248   3.949   4.785
  118OSM   C14F12399  -0.239   3.806   4.671
  118OSM   H14F12400  -0.296   3.717   4.694
  118OSM   H14G12401  -0.136   3.769   4.678
  118OSM   C15F12402  -0.284   3.880   4.539
  118OSM   H15F12403  -0.207   3.955   4.513
  118OSM   H15G12404  -0.382   3.907   4.582
  118OSM   C16F12405  -0.308   3.816   4.398
  118OSM   H16F12406  -0.377   3.874   4.335
  118OSM   H16G12407  -0.366   3.727   4.424
  118OSM   C17F12408  -0.188   3.781   4.304
  118OSM   H17F12409  -0.126   3.686   4.301
  118OSM   H17G12410  -0.100   3.844   4.297
  118OSM   C18F12411  -0.240   3.703   4.207
  118OSM   H18F12412  -0.195   3.612   4.158
  118OSM   H18G12413  -0.259   3.806   4.163
  118OSM   H18H12414  -0.317   3.699   4.136
  119OSM      N12415   3.815  -0.077   6.395
  119OSM    C1512416   3.815  -0.203   6.482
  119OSM   H15A12417   3.888  -0.211   6.562
  119OSM   H15B12418   3.815  -0.290   6.418
  119OSM   H15C12419   3.718  -0.222   6.531
  119OSM    C1412420   3.954  -0.063   6.345
  119OSM   H14A12421   4.024  -0.113   6.410
  119OSM   H14B12422   3.974   0.042   6.328
  119OSM   H14C12423   3.960  -0.118   6.250
  119OSM    C1312424   3.734  -0.054   6.263
  119OSM   H13A12425   3.627  -0.078   6.270
  119OSM   H13B12426   3.751  -0.122   6.180
  119OSM   H13C12427   3.715   0.051   6.243
  119OSM    C1212428   3.772   0.027   6.494
  119OSM   H12A12429   3.846   0.032   6.572
  119OSM   H12B12430   3.680  -0.010   6.542
  119OSM    C1112431   3.733   0.165   6.443
  119OSM   H11A12432   3.724   0.234   6.527
  119OSM   H11B12433   3.632   0.161   6.398
  119OSM      P12434   3.801   0.353   6.284
  119OSM    O1312435   3.802   0.451   6.395
  119OSM    O1412436   3.896   0.364   6.171
  119OSM    O1112437   3.652   0.342   6.232
  119OSM    O1212438   3.829   0.211   6.350
  119OSM    C1S12439   3.590   0.265   6.131
  119OSM    H1S12440   3.480   0.286   6.136
  119OSM    H1T12441   3.600   0.157   6.150
  119OSM     NF12442   3.741   0.226   5.939
  119OSM    HNF12443   3.824   0.281   5.940
  119OSM    C2S12444   3.627   0.300   5.982
  119OSM    H2S12445   3.542   0.270   5.917
  119OSM    C3S12446   3.652   0.449   5.961
  119OSM    H3S12447   3.740   0.487   6.016
  119OSM     O312448   3.536   0.519   5.998
  119OSM    HO312449   3.480   0.455   6.043
  119OSM    C4S12450   3.681   0.474   5.815
  119OSM    H4S12451   3.618   0.421   5.744
  119OSM    C5S12452   3.787   0.540   5.767
  119OSM    H5S12453   3.864   0.580   5.836
  119OSM    C6S12454   3.809   0.563   5.620
  119OSM    H6S12455   3.917   0.554   5.597
  119OSM    H6T12456   3.780   0.668   5.601
  119OSM    C7S12457   3.719   0.495   5.517
  119OSM    H7S12458   3.616   0.537   5.529
  119OSM    H7T12459   3.717   0.385   5.530
  119OSM    C8S12460   3.762   0.526   5.374
  119OSM    H8S12461   3.867   0.490   5.361
  119OSM    H8T12462   3.760   0.636   5.361
  119OSM    C9S12463   3.668   0.462   5.273
  119OSM    H9S12464   3.570   0.509   5.285
  119OSM    H9T12465   3.660   0.352   5.290
  119OSM   C10S12466   3.706   0.479   5.130
  119OSM   H10S12467   3.719   0.581   5.093
  119OSM   H10T12468   3.636   0.423   5.063
  119OSM   C11S12469   3.838   0.422   5.116
  119OSM   H11S12470   3.831   0.321   5.160
  119OSM   H11T12471   3.922   0.479   5.160
  119OSM   C12S12472   3.854   0.418   4.972
  119OSM   H12S12473   3.868   0.507   4.908
  119OSM   H12T12474   3.773   0.346   4.934
  119OSM   C13S12475   3.987   0.370   4.962
  119OSM   H13S12476   4.009   0.313   5.050
  119OSM   H13T12477   4.069   0.434   4.937
  119OSM   C14S12478   3.948   0.305   4.844
  119OSM   H14S12479   3.945   0.232   4.781
  119OSM   H14T12480   3.922   0.218   4.928
  119OSM   C15S12481   4.044   0.374   4.725
  119OSM   H15S12482   4.141   0.421   4.744
  119OSM   H15T12483   3.961   0.437   4.691
  119OSM   C16S12484   4.118   0.334   4.580
  119OSM   H16S12485   4.101   0.237   4.580
  119OSM   H16T12486   4.205   0.266   4.558
  119OSM   C17S12487   4.067   0.387   4.446
  119OSM   H17S12488   4.122   0.341   4.360
  119OSM   H17T12489   4.093   0.492   4.467
  119OSM   C18S12490   3.920   0.380   4.404
  119OSM   H18S12491   3.911   0.453   4.335
  119OSM   H18T12492   3.847   0.397   4.485
  119OSM   H18U12493   3.891   0.291   4.342
  119OSM    C1F12494   3.739   0.094   5.929
  119OSM     OF12495   3.637   0.029   5.948
  119OSM    C2F12496   3.870   0.029   5.906
  119OSM    H2F12497   3.865  -0.072   5.953
  119OSM    H2G12498   3.949   0.090   5.954
  119OSM    C3F12499   3.904   0.013   5.757
  119OSM    H3F12500   4.005  -0.033   5.751
  119OSM    H3G12501   3.903   0.110   5.702
  119OSM    C4F12502   3.809  -0.076   5.681
  119OSM    H4F12503   3.712  -0.022   5.665
  119OSM    H4G12504   3.787  -0.171   5.735
  119OSM    C5F12505   3.870  -0.109   5.547
  119OSM    H5F12506   3.931  -0.202   5.551
  119OSM    H5G12507   3.933  -0.030   5.505
  119OSM    C6F12508   3.758  -0.124   5.452
  119OSM    H6F12509   3.817  -0.144   5.361
  119OSM    H6G12510   3.720  -0.028   5.415
  119OSM    C7F12511   3.653  -0.226   5.515
  119OSM    H7F12512   3.594  -0.192   5.601
  119OSM    H7G12513   3.702  -0.324   5.541
  119OSM    C8F12514   3.539  -0.256   5.431
  119OSM    H8F12515   3.462  -0.340   5.426
  119OSM    H8G12516   3.588  -0.353   5.402
  119OSM    C9F12517   3.511  -0.106   5.382
  119OSM    H9F12518   3.416  -0.144   5.424
  119OSM   C10F12519   3.530  -0.003   5.270
  119OSM   H10F12520   3.417   0.030   5.257
  119OSM   C11F12521   3.614  -0.018   5.109
  119OSM   H11F12522   3.698   0.046   5.111
  119OSM   H11G12523   3.550  -0.013   5.010
  119OSM   C12F12524   3.698  -0.149   5.016
  119OSM   H12F12525   3.646  -0.242   4.969
  119OSM   H12G12526   3.758  -0.200   5.085
  119OSM   C13F12527   3.798  -0.157   4.916
  119OSM   H13F12528   3.832  -0.267   4.908
  119OSM   H13G12529   3.874  -0.094   4.962
  119OSM   C14F12530   3.710  -0.113   4.804
  119OSM   H14F12531   3.703  -0.004   4.813
  119OSM   H14G12532   3.608  -0.148   4.814
  119OSM   C15F12533   3.766  -0.175   4.683
  119OSM   H15F12534   3.796  -0.281   4.689
  119OSM   H15G12535   3.859  -0.136   4.719
  119OSM   C16F12536   3.697  -0.142   4.539
  119OSM   H16F12537   3.589  -0.147   4.534
  119OSM   H16G12538   3.737  -0.209   4.460
  119OSM   C17F12539   3.671  -0.004   4.483
  119OSM   H17F12540   3.761   0.030   4.430
  119OSM   H17G12541   3.638   0.068   4.561
  119OSM   C18F12542   3.595  -0.004   4.359
  119OSM   H18F12543   3.504  -0.059   4.367
  119OSM   H18G12544   3.659  -0.060   4.285
  119OSM   H18H12545   3.575   0.101   4.330
  120OSM      N12546   6.516   5.901   6.519
  120OSM    C1512547   6.408   6.004   6.533
  120OSM   H15A12548   6.319   5.963   6.487
  120OSM   H15B12549   6.438   6.097   6.486
  120OSM   H15C12550   6.383   6.028   6.636
  120OSM    C1412551   6.638   5.931   6.597
  120OSM   H14A12552   6.613   5.958   6.700
  120OSM   H14B12553   6.688   6.018   6.555
  120OSM   H14C12554   6.706   5.848   6.591
  120OSM    C1312555   6.455   5.775   6.568
  120OSM   H13A12556   6.372   5.751   6.502
  120OSM   H13B12557   6.419   5.782   6.671
  120OSM   H13C12558   6.528   5.697   6.556
  120OSM    C1212559   6.556   5.893   6.371
  120OSM   H12A12560   6.616   5.983   6.354
  120OSM   H12B12561   6.467   5.905   6.310
  120OSM    C1112562   6.637   5.773   6.314
  120OSM   H11A12563   6.734   5.761   6.367
  120OSM   H11B12564   6.665   5.797   6.207
  120OSM      P12565   6.526   5.566   6.192
  120OSM    O1312566   6.651   5.535   6.121
  120OSM    O1412567   6.434   5.457   6.229
  120OSM    O1112568   6.445   5.670   6.106
  120OSM    O1212569   6.564   5.651   6.323
  120OSM    C1S12570   6.482   5.706   5.972
  120OSM    H1S12571   6.592   5.710   5.957
  120OSM    H1T12572   6.441   5.809   5.959
  120OSM     NF12573   6.486   5.638   5.734
  120OSM    HNF12574   6.439   5.696   5.669
  120OSM    C2S12575   6.419   5.617   5.860
  120OSM    H2S12576   6.427   5.509   5.887
  120OSM    C3S12577   6.271   5.656   5.854
  120OSM    H3S12578   6.257   5.766   5.854
  120OSM     O312579   6.200   5.597   5.961
  120OSM    HO312580   6.269   5.552   6.011
  120OSM    C4S12581   6.213   5.608   5.726
  120OSM    H4S12582   6.189   5.502   5.729
  120OSM    C5S12583   6.189   5.694   5.624
  120OSM    H5S12584   6.207   5.799   5.636
  120OSM    C6S12585   6.134   5.679   5.489
  120OSM    H6S12586   6.047   5.741   5.460
  120OSM    H6T12587   6.072   5.597   5.500
  120OSM    C7S12588   6.241   5.673   5.379
  120OSM    H7S12589   6.195   5.659   5.278
  120OSM    H7T12590   6.325   5.599   5.387
  120OSM    C8S12591   6.297   5.802   5.362
  120OSM    H8S12592   6.355   5.814   5.454
  120OSM    H8T12593   6.207   5.863   5.366
  120OSM    C9S12594   6.370   5.793   5.231
  120OSM    H9S12595   6.301   5.786   5.143
  120OSM    H9T12596   6.435   5.702   5.233
  120OSM   C10S12597   6.452   5.917   5.219
  120OSM   H10S12598   6.487   5.940   5.323
  120OSM   H10T12599   6.384   5.998   5.185
  120OSM   C11S12600   6.569   5.898   5.124
  120OSM   H11S12601   6.629   5.808   5.152
  120OSM   H11T12602   6.631   5.989   5.136
  120OSM   C12S12603   6.533   5.879   4.976
  120OSM   H12S12604   6.454   5.949   4.942
  120OSM   H12T12605   6.492   5.776   4.964
  120OSM   C13S12606   6.654   5.896   4.883
  120OSM   H13S12607   6.744   5.853   4.932
  120OSM   H13T12608   6.672   6.003   4.860
  120OSM   C14S12609   6.637   5.819   4.753
  120OSM   H14S12610   6.533   5.821   4.716
  120OSM   H14T12611   6.660   5.714   4.781
  120OSM   C15S12612   6.736   5.863   4.644
  120OSM   H15S12613   6.766   5.772   4.588
  120OSM   H15T12614   6.828   5.905   4.689
  120OSM   C16S12615   6.679   5.961   4.542
  120OSM   H16S12616   6.625   6.044   4.594
  120OSM   H16T12617   6.605   5.907   4.479
  120OSM   C17S12618   6.791   6.007   4.449
  120OSM   H17S12619   6.844   5.923   4.403
  120OSM   H17T12620   6.863   6.071   4.507
  120OSM   C18S12621   6.744   6.084   4.331
  120OSM   H18S12622   6.721   6.171   4.389
  120OSM   H18T12623   6.657   6.050   4.273
  120OSM   H18U12624   6.824   6.113   4.261
  120OSM    C1F12625   6.605   5.588   5.705
  120OSM     OF12626   6.664   5.510   5.777
  120OSM    C2F12627   6.663   5.634   5.576
  120OSM    H2F12628   6.755   5.694   5.595
  120OSM    H2G12629   6.590   5.698   5.522
  120OSM    C3F12630   6.713   5.516   5.493
  120OSM    H3F12631   6.637   5.437   5.473
  120OSM    H3G12632   6.790   5.468   5.557
  120OSM    C4F12633   6.768   5.569   5.360
  120OSM    H4F12634   6.869   5.615   5.369
  120OSM    H4G12635   6.700   5.649   5.327
  120OSM    C5F12636   6.755   5.464   5.252
  120OSM    H5F12637   6.649   5.442   5.231
  120OSM    H5G12638   6.785   5.373   5.301
  120OSM    C6F12639   6.823   5.503   5.121
  120OSM    H6F12640   6.933   5.481   5.127
  120OSM    H6G12641   6.806   5.609   5.096
  120OSM    C7F12642   6.770   5.436   4.997
  120OSM    H7F12643   6.669   5.449   4.957
  120OSM    H7G12644   6.741   5.345   5.049
  120OSM    C8F12645   6.887   5.456   4.897
  120OSM    H8F12646   6.984   5.434   4.943
  120OSM    H8G12647   6.876   5.558   4.861
  120OSM    C9F12648   6.927   5.384   4.780
  120OSM    H9F12649   6.952   5.280   4.809
  120OSM   C10F12650   6.867   5.417   4.666
  120OSM   H10F12651   6.836   5.345   4.603
  120OSM   C11F12652   6.767   5.508   4.613
  120OSM   H11F12653   6.741   5.574   4.690
  120OSM   H11G12654   6.669   5.465   4.574
  120OSM   C12F12655   6.867   5.543   4.504
  120OSM   H12F12656   6.979   5.539   4.519
  120OSM   H12G12657   6.843   5.639   4.459
  120OSM   C13F12658   6.839   5.469   4.382
  120OSM   H13F12659   6.878   5.372   4.397
  120OSM   H13G12660   6.916   5.501   4.310
  120OSM   C14F12661   6.694   5.493   4.332
  120OSM   H14F12662   6.699   5.531   4.231
  120OSM   H14G12663   6.638   5.568   4.383
  120OSM   C15F12664   6.596   5.382   4.337
  120OSM   H15F12665   6.600   5.329   4.430
  120OSM   H15G12666   6.621   5.321   4.265
  120OSM   C16F12667   6.490   5.335   4.235
  120OSM   H16F12668   6.475   5.225   4.241
  120OSM   H16G12669   6.496   5.341   4.124
  120OSM   C17F12670   6.402   5.432   4.294
  120OSM   H17F12671   6.452   5.523   4.252
  120OSM   H17G12672   6.412   5.419   4.406
  120OSM   C18F12673   6.262   5.425   4.251
  120OSM   H18F12674   6.201   5.503   4.293
  120OSM   H18G12675   6.214   5.343   4.304
  120OSM   H18H12676   6.256   5.408   4.141
  121OSM      N12677   5.873   0.374   6.531
  121OSM    C1512678   6.014   0.348   6.569
  121OSM   H15A12679   6.075   0.424   6.521
  121OSM   H15B12680   6.046   0.251   6.537
  121OSM   H15C12681   6.021   0.356   6.676
  121OSM    C1412682   5.781   0.279   6.598
  121OSM   H14A12683   5.679   0.295   6.563
  121OSM   H14B12684   5.783   0.294   6.704
  121OSM   H14C12685   5.810   0.178   6.574
  121OSM    C1312686   5.842   0.513   6.576
  121OSM   H13A12687   5.839   0.521   6.684
  121OSM   H13B12688   5.747   0.548   6.535
  121OSM   H13C12689   5.914   0.583   6.535
  121OSM    C1212690   5.857   0.355   6.381
  121OSM   H12A12691   5.751   0.352   6.355
  121OSM   H12B12692   5.901   0.259   6.357
  121OSM    C1112693   5.924   0.451   6.280
  121OSM   H11A12694   5.916   0.402   6.179
  121OSM   H11B12695   6.031   0.462   6.304
  121OSM      P12696   5.744   0.617   6.189
  121OSM    O1312697   5.652   0.502   6.206
  121OSM    O1412698   5.709   0.755   6.222
  121OSM    O1112699   5.812   0.618   6.048
  121OSM    O1212700   5.869   0.581   6.281
  121OSM    C1S12701   5.903   0.725   6.031
  121OSM    H1S12702   5.995   0.714   6.092
  121OSM    H1T12703   5.863   0.829   6.050
  121OSM     NF12704   6.078   0.756   5.899
  121OSM    HNF12705   6.092   0.842   5.852
  121OSM    C2S12706   5.931   0.717   5.889
  121OSM    H2S12707   5.927   0.623   5.832
  121OSM    C3S12708   5.809   0.813   5.823
  121OSM    H3S12709   5.838   0.905   5.873
  121OSM     O312710   5.679   0.772   5.839
  121OSM    HO312711   5.716   0.692   5.875
  121OSM    C4S12712   5.843   0.807   5.695
  121OSM    H4S12713   5.855   0.707   5.661
  121OSM    C5S12714   5.862   0.900   5.617
  121OSM    H5S12715   5.909   0.991   5.683
  121OSM    C6S12716   5.932   0.849   5.457
  121OSM    H6S12717   6.030   0.797   5.401
  121OSM    H6T12718   6.077   0.925   5.405
  121OSM    C7S12719   5.768   0.956   5.395
  121OSM    H7S12720   5.754   1.078   5.394
  121OSM    H7T12721   5.681   0.932   5.435
  121OSM    C8S12722   5.719   0.919   5.214
  121OSM    H8S12723   5.763   1.000   5.146
  121OSM    H8T12724   5.728   1.009   5.149
  121OSM    C9S12725   5.763   0.732   5.162
  121OSM    H9S12726   5.705   0.751   5.224
  121OSM    H9T12727   5.812   0.678   5.253
  121OSM   C10S12728   5.780   0.653   5.047
  121OSM   H10S12729   5.891   0.626   5.036
  121OSM   H10T12730   5.751   0.713   4.959
  121OSM   C11S12731   5.684   0.550   5.033
  121OSM   H11S12732   5.585   0.597   5.049
  121OSM   H11T12733   5.718   0.483   5.114
  121OSM   C12S12734   5.698   0.504   4.891
  121OSM   H12S12735   5.806   0.483   4.873
  121OSM   H12T12736   5.666   0.586   4.821
  121OSM   C13S12737   5.617   0.378   4.879
  121OSM   H13S12738   5.509   0.399   4.899
  121OSM   H13T12739   5.656   0.317   4.964
  121OSM   C14S12740   5.639   0.306   4.747
  121OSM   H14S12741   5.591   0.206   4.746
  121OSM   H14T12742   5.749   0.290   4.739
  121OSM   C15S12743   5.596   0.381   4.620
  121OSM   H15S12744   5.513   0.452   4.641
  121OSM   H15T12745   5.555   0.303   4.551
  121OSM   C16S12746   5.718   0.449   4.555
  121OSM   H16S12747   5.798   0.373   4.543
  121OSM   H16T12748   5.756   0.527   4.625
  121OSM   C17S12749   5.698   0.506   4.414
  121OSM   H17S12750   5.667   0.421   4.349
  121OSM   H17T12751   5.797   0.540   4.376
  121OSM   C18S12752   5.599   0.622   4.399
  121OSM   H18S12753   5.593   0.651   4.292
  121OSM   H18T12754   5.635   0.708   4.460
  121OSM   H18U12755   5.498   0.595   4.435
  121OSM    C1F12756   6.187   0.674   5.892
  121OSM     OF12757   6.184   0.561   5.936
  121OSM    C2F12758   6.321   0.727   5.834
  121OSM    H2F12759   6.396   0.684   5.900
  121OSM    H2G12760   6.333   0.834   5.845
  121OSM    C3F12761   6.386   0.680   5.700
  121OSM    H3F12762   6.425   0.578   5.711
  121OSM    H3G12763   6.461   0.758   5.674
  121OSM    C4F12764   6.307   0.664   5.574
  121OSM    H4F12765   6.299   0.764   5.561
  121OSM    H4G12766   6.213   0.613   5.588
  121OSM    C5F12767   6.351   0.670   5.431
  121OSM    H5F12768   6.412   0.580   5.430
  121OSM    H5G12769   6.406   0.759   5.392
  121OSM    C6F12770   6.236   0.683   5.334
  121OSM    H6F12771   6.207   0.787   5.325
  121OSM    H6G12772   6.155   0.615   5.367
  121OSM    C7F12773   6.279   0.680   5.193
  121OSM    H7F12774   6.373   0.738   5.182
  121OSM    H7G12775   6.211   0.703   5.108
  121OSM    C8F12776   6.299   0.543   5.183
  121OSM    H8F12777   6.363   0.509   5.267
  121OSM    H8G12778   6.384   0.545   5.105
  121OSM    C9F12779   6.160   0.468   5.157
  121OSM    H9F12780   6.142   0.395   5.241
  121OSM   C10F12781   6.124   0.417   5.032
  121OSM   H10F12782   6.098   0.305   5.064
  121OSM   C11F12783   6.234   0.435   4.904
  121OSM   H11F12784   6.236   0.335   4.874
  121OSM   H11G12785   6.353   0.419   4.897
  121OSM   C12F12786   6.289   0.529   4.808
  121OSM   H12F12787   6.383   0.520   4.744
  121OSM   H12G12788   6.318   0.595   4.893
  121OSM   C13F12789   6.162   0.489   4.741
  121OSM   H13F12790   6.087   0.408   4.777
  121OSM   H13G12791   6.193   0.456   4.642
  121OSM   C14F12792   6.084   0.607   4.757
  121OSM   H14F12793   6.032   0.614   4.857
  121OSM   H14G12794   6.010   0.597   4.677
  121OSM   C15F12795   6.172   0.721   4.724
  121OSM   H15F12796   6.211   0.725   4.622
  121OSM   H15G12797   6.251   0.751   4.802
  121OSM   C16F12798   6.078   0.828   4.714
  121OSM   H16F12799   6.098   0.931   4.744
  121OSM   H16G12800   6.081   0.809   4.814
  121OSM   C17F12801   5.965   0.833   4.609
  121OSM   H17F12802   5.896   0.922   4.619
  121OSM   H17G12803   5.895   0.750   4.623
  121OSM   C18F12804   5.986   0.898   4.483
  121OSM   H18F12805   6.016   1.006   4.507
  121OSM   H18G12806   5.886   0.893   4.433
  121OSM   H18H12807   6.065   0.830   4.450
  122OSM      N12808   0.390   6.603   6.521
  122OSM    C1512809   0.322   6.474   6.487
  122OSM   H15A12810   0.239   6.455   6.554
  122OSM   H15B12811   0.390   6.388   6.493
  122OSM   H15C12812   0.287   6.480   6.384
  122OSM    C1412813   0.296   6.715   6.497
  122OSM   H14A12814   0.200   6.704   6.547
  122OSM   H14B12815   0.283   6.733   6.390
  122OSM   H14C12816   0.336   6.808   6.537
  122OSM    C1312817   0.433   6.608   6.664
  122OSM   H13A12818   0.497   6.523   6.686
  122OSM   H13B12819   0.348   6.611   6.731
  122OSM   H13C12820   0.488   6.700   6.679
  122OSM    C1212821   0.518   6.627   6.441
  122OSM   H12A12822   0.595   6.561   6.480
  122OSM   H12B12823   0.550   6.729   6.457
  122OSM    C1112824   0.522   6.609   6.287
  122OSM   H11A12825   0.626   6.640   6.258
  122OSM   H11B12826   0.455   6.683   6.240
  122OSM      P12827   0.607   6.379   6.193
  122OSM    O1312828   0.736   6.432   6.240
  122OSM    O1412829   0.569   6.243   6.231
  122OSM    O1112830   0.603   6.391   6.035
  122OSM    O1212831   0.489   6.476   6.244
  122OSM    C1S12832   0.486   6.427   5.965
  122OSM    H1S12833   0.495   6.534   5.957
  122OSM    H1T12834   0.394   6.400   6.023
  122OSM     NF12835   0.412   6.427   5.712
  122OSM    HNF12836   0.318   6.392   5.707
  122OSM    C2S12837   0.485   6.365   5.820
  122OSM    H2S12838   0.589   6.365   5.783
  122OSM    C3S12839   0.435   6.222   5.837
  122OSM    H3S12840   0.339   6.216   5.894
  122OSM     O312841   0.526   6.151   5.909
  122OSM    HO312842   0.575   6.219   5.955
  122OSM    C4S12843   0.417   6.171   5.698
  122OSM    H4S12844   0.496   6.198   5.629
  122OSM    C5S12845   0.322   6.099   5.646
  122OSM    H5S12846   0.233   6.064   5.704
  122OSM    C6S12847   0.324   6.068   5.504
  122OSM    H6S12848   0.228   6.018   5.472
  122OSM    H6T12849   0.409   6.003   5.514
  122OSM    C7S12850   0.386   6.145   5.390
  122OSM    H7S12851   0.364   6.080   5.300
  122OSM    H7T12852   0.492   6.163   5.414
  122OSM    C8S12853   0.352   6.275   5.370
  122OSM    H8S12854   0.347   6.309   5.476
  122OSM    H8T12855   0.268   6.225   5.322
  122OSM    C9S12856   0.415   6.375   5.288
  122OSM    H9S12857   0.513   6.377   5.337
  122OSM    H9T12858   0.356   6.465   5.318
  122OSM   C10S12859   0.420   6.343   5.140
  122OSM   H10S12860   0.335   6.338   5.073
  122OSM   H10T12861   0.449   6.242   5.121
  122OSM   C11S12862   0.483   6.453   5.070
  122OSM   H11S12863   0.589   6.438   5.096
  122OSM   H11T12864   0.437   6.544   5.116
  122OSM   C12S12865   0.452   6.439   4.922
  122OSM   H12S12866   0.342   6.440   4.903
  122OSM   H12T12867   0.484   6.339   4.886
  122OSM   C13S12868   0.513   6.558   4.853
  122OSM   H13S12869   0.621   6.570   4.868
  122OSM   H13T12870   0.460   6.649   4.888
  122OSM   C14S12871   0.485   6.556   4.707
  122OSM   H14S12872   0.499   6.658   4.668
  122OSM   H14T12873   0.377   6.552   4.720
  122OSM   C15S12874   0.555   6.447   4.623
  122OSM   H15S12875   0.506   6.428   4.525
  122OSM   H15T12876   0.556   6.350   4.677
  122OSM   C16S12877   0.692   6.500   4.583
  122OSM   H16S12878   0.761   6.480   4.667
  122OSM   H16T12879   0.673   6.609   4.577
  122OSM   C17S12880   0.748   6.455   4.445
  122OSM   H17S12881   0.664   6.451   4.373
  122OSM   H17T12882   0.791   6.353   4.451
  122OSM   C18S12883   0.857   6.545   4.386
  122OSM   H18S12884   0.816   6.644   4.356
  122OSM   H18T12885   0.901   6.505   4.294
  122OSM   H18U12886   0.939   6.558   4.458
  122OSM    C1F12887   0.439   6.534   5.646
  122OSM     OF12888   0.543   6.593   5.654
  122OSM    C2F12889   0.321   6.597   5.605
  122OSM    H2F12890   0.263   6.592   5.701
  122OSM    H2G12891   0.246   6.541   5.552
  122OSM    C3F12892   0.363   6.735   5.545
  122OSM    H3F12893   0.403   6.817   5.604
  122OSM    H3G12894   0.294   6.823   5.534
  122OSM    C4F12895   0.403   6.712   5.410
  122OSM    H4F12896   0.350   6.655   5.332
  122OSM    H4G12897   0.502   6.665   5.427
  122OSM    C5F12898   0.395   6.851   5.365
  122OSM    H5F12899   0.459   6.808   5.286
  122OSM    H5G12900   0.470   6.890   5.436
  122OSM    C6F12901   0.266   6.958   5.302
  122OSM    H6F12902   0.232   7.043   5.363
  122OSM    H6G12903   0.234   6.868   5.288
  122OSM    C7F12904   0.241   7.028   5.143
  122OSM    H7F12905   0.309   7.094   5.078
  122OSM    H7G12906   0.240   7.137   5.154
  122OSM    C8F12907   0.269   6.935   5.027
  122OSM    H8F12908   0.312   6.838   5.064
  122OSM    H8G12909   0.319   6.921   4.930
  122OSM    C9F12910   0.142   6.976   4.970
  122OSM    H9F12911   0.063   6.946   5.037
  122OSM   C10F12912   0.116   7.007   4.845
  122OSM   H10F12913   0.012   6.991   4.830
  122OSM   C11F12914   0.208   7.010   4.724
  122OSM   H11F12915   0.300   7.059   4.755
  122OSM   H11G12916   0.152   7.063   4.648
  122OSM   C12F12917   0.280   6.907   4.639
  122OSM   H12F12918   0.350   6.843   4.702
  122OSM   H12G12919   0.335   6.945   4.551
  122OSM   C13F12920   0.179   6.824   4.577
  122OSM   H13F12921   0.110   6.811   4.510
  122OSM   H13G12922   0.130   6.734   4.595
  122OSM   C14F12923   0.217   6.741   4.513
  122OSM   H14F12924   0.318   6.722   4.565
  122OSM   H14G12925   0.293   6.782   4.430
  122OSM   C15F12926   0.076   6.559   4.474
  122OSM   H15F12927   0.031   6.646   4.445
  122OSM   H15G12928  -0.008   6.501   4.477
  122OSM   C16F12929   0.157   6.418   4.326
  122OSM   H16F12930   0.179   6.322   4.360
  122OSM   H16G12931   0.267   6.440   4.313
  122OSM   C17F12932   0.221   6.398   4.167
  122OSM   H17F12933   0.294   6.477   4.109
  122OSM   H17G12934   0.117   6.414   4.188
  122OSM   C18F12935   0.294   6.429   4.025
  122OSM   H18F12936   0.224   6.437   3.935
  122OSM   H18G12937   0.228   6.340   4.062
  122OSM   H18H12938   0.402   6.417   3.991
  123OSM      N12939   2.991   3.763   2.088
  123OSM    C1512940   2.879   3.695   2.019
  123OSM   H15A12941   2.903   3.598   1.981
  123OSM   H15B12942   2.825   3.760   1.952
  123OSM   H15C12943   2.802   3.678   2.094
  123OSM    C1412944   2.928   3.870   2.172
  123OSM   H14A12945   2.882   3.827   2.261
  123OSM   H14B12946   2.852   3.922   2.115
  123OSM   H14C12947   3.006   3.938   2.205
  123OSM    C1312948   3.074   3.677   2.180
  123OSM   H13A12949   3.014   3.608   2.238
  123OSM   H13B12950   3.129   3.743   2.247
  123OSM   H13C12951   3.153   3.624   2.128
  123OSM    C1212952   3.077   3.825   1.985
  123OSM   H12A12953   3.010   3.863   1.910
  123OSM   H12B12954   3.141   3.748   1.946
  123OSM    C1112955   3.166   3.938   2.032
  123OSM   H11A12956   3.104   4.026   2.064
  123OSM   H11B12957   3.228   3.971   1.947
  123OSM      P12958   3.316   3.997   2.226
  123OSM    O1312959   3.424   3.944   2.311
  123OSM    O1412960   3.334   4.117   2.143
  123OSM    O1112961   3.189   4.031   2.314
  123OSM    O1212962   3.252   3.889   2.135
  123OSM    C1S12963   3.187   4.148   2.396
  123OSM    H1S12964   3.120   4.224   2.349
  123OSM    H1T12965   3.286   4.196   2.414
  123OSM     NF12966   3.223   4.026   2.616
  123OSM    HNF12967   3.210   3.931   2.624
  123OSM    C2S12968   3.132   4.106   2.534
  123OSM    H2S12969   3.104   4.204   2.582
  123OSM    C3S12970   3.006   4.020   2.518
  123OSM    H3S12971   3.038   3.920   2.478
  123OSM     O312972   2.903   4.072   2.434
  123OSM    HO312973   2.940   4.153   2.398
  123OSM    C4S12974   2.958   3.992   2.658
  123OSM    H4S12975   2.973   4.075   2.729
  123OSM    C5S12976   2.914   3.872   2.700
  123OSM    H5S12977   2.901   3.794   2.622
  123OSM    C6S12978   2.865   3.833   2.838
  123OSM    H6S12979   2.939   3.765   2.880
  123OSM    H6T12980   2.779   3.762   2.846
  123OSM    C7S12981   2.823   3.940   2.937
  123OSM    H7S12982   2.732   3.995   2.903
  123OSM    H7T12983   2.904   4.013   2.954
  123OSM    C8S12984   2.790   3.866   3.065
  123OSM    H8S12985   2.873   3.798   3.091
  123OSM    H8T12986   2.706   3.798   3.050
  123OSM    C9S12987   2.746   3.962   3.173
  123OSM    H9S12988   2.637   3.980   3.155
  123OSM    H9T12989   2.801   4.056   3.180
  123OSM   C10S12990   2.754   3.901   3.308
  123OSM   H10S12991   2.672   3.829   3.292
  123OSM   H10T12992   2.729   3.979   3.384
  123OSM   C11S12993   2.874   3.820   3.352
  123OSM   H11S12994   2.958   3.871   3.305
  123OSM   H11T12995   2.860   3.724   3.297
  123OSM   C12S12996   2.907   3.816   3.504
  123OSM   H12S12997   2.850   3.755   3.568
  123OSM   H12T12998   2.863   3.894   3.567
  123OSM   C13S12999   3.041   3.752   3.540
  123OSM   H13S13000   3.114   3.810   3.482
  123OSM   H13T13001   3.055   3.645   3.512
  123OSM   C14S13002   3.063   3.765   3.690
  123OSM   H14S13003   3.004   3.695   3.754
  123OSM   H14T13004   3.030   3.867   3.717
  123OSM   C15S13005   3.209   3.762   3.723
  123OSM   H15S13006   3.258   3.851   3.676
  123OSM   H15T13007   3.266   3.678   3.683
  123OSM   C16S13008   3.221   3.779   3.873
  123OSM   H16S13009   3.181   3.875   3.906
  123OSM   H16T13010   3.329   3.798   3.870
  123OSM   C17S13011   3.161   3.667   3.967
  123OSM   H17S13012   3.191   3.569   3.921
  123OSM   H17T13013   3.051   3.671   3.956
  123OSM   C18S13014   3.180   3.674   4.125
  123OSM   H18S13015   3.166   3.576   4.176
  123OSM   H18T13016   3.167   3.772   4.171
  123OSM   H18U13017   3.278   3.690   4.172
  123OSM    C1F13018   3.323   4.066   2.685
  123OSM     OF13019   3.359   4.169   2.673
  123OSM    C2F13020   3.398   4.001   2.787
  123OSM    H2F13021   3.505   4.034   2.773
  123OSM    H2G13022   3.381   3.895   2.775
  123OSM    C3F13023   3.351   4.069   2.917
  123OSM    H3F13024   3.240   4.062   2.921
  123OSM    H3G13025   3.376   4.179   2.921
  123OSM    C4F13026   3.407   3.997   3.039
  123OSM    H4F13027   3.518   4.004   3.040
  123OSM    H4G13028   3.383   3.889   3.025
  123OSM    C5F13029   3.347   4.051   3.170
  123OSM    H5F13030   3.240   4.069   3.154
  123OSM    H5G13031   3.395   4.148   3.198
  123OSM    C6F13032   3.362   3.959   3.289
  123OSM    H6F13033   3.344   3.852   3.263
  123OSM    H6G13034   3.297   3.986   3.376
  123OSM    C7F13035   3.499   3.983   3.340
  123OSM    H7F13036   3.520   4.084   3.368
  123OSM    H7G13037   3.575   3.959   3.262
  123OSM    C8F13038   3.518   3.916   3.466
  123OSM    H8F13039   3.532   3.827   3.397
  123OSM    H8G13040   3.443   3.861   3.527
  123OSM    C9F13041   3.639   3.982   3.539
  123OSM    H9F13042   3.732   3.962   3.489
  123OSM   C10F13043   3.659   4.003   3.671
  123OSM   H10F13044   3.759   3.970   3.714
  123OSM   C11F13045   3.550   3.962   3.764
  123OSM   H11F13046   3.582   3.946   3.867
  123OSM   H11G13047   3.477   3.879   3.740
  123OSM   C12F13048   3.502   4.071   3.836
  123OSM   H12F13049   3.419   4.027   3.898
  123OSM   H12G13050   3.464   4.121   3.746
  123OSM   C13F13051   3.624   4.128   3.919
  123OSM   H13F13052   3.712   4.147   3.854
  123OSM   H13G13053   3.660   4.065   4.002
  123OSM   C14F13054   3.571   4.250   3.975
  123OSM   H14F13055   3.545   4.291   3.883
  123OSM   H14G13056   3.642   4.320   4.018
  123OSM   C15F13057   3.442   4.223   4.044
  123OSM   H15F13058   3.360   4.173   3.991
  123OSM   H15G13059   3.400   4.312   4.049
  123OSM   C16F13060   3.457   4.175   4.182
  123OSM   H16F13061   3.503   4.250   4.251
  123OSM   H16G13062   3.524   4.088   4.170
  123OSM   C17F13063   3.320   4.127   4.225
  123OSM   H17F13064   3.333   4.103   4.331
  123OSM   H17G13065   3.300   4.040   4.157
  123OSM   C18F13066   3.203   4.223   4.219
  123OSM   H18F13067   3.122   4.198   4.290
  123OSM   H18G13068   3.163   4.226   4.116
  123OSM   H18H13069   3.243   4.320   4.252
  124OSM      N13070   2.870   4.468   2.043
  124OSM    C1513071   2.745   4.475   1.965
  124OSM   H15A13072   2.660   4.450   2.027
  124OSM   H15B13073   2.747   4.409   1.881
  124OSM   H15C13074   2.732   4.577   1.931
  124OSM    C1413075   2.911   4.327   2.064
  124OSM   H14A13076   3.006   4.325   2.119
  124OSM   H14B13077   2.926   4.279   1.969
  124OSM   H14C13078   2.834   4.275   2.119
  124OSM    C1313079   2.979   4.544   1.976
  124OSM   H13A13080   3.074   4.539   2.032
  124OSM   H13B13081   2.951   4.650   1.984
  124OSM   H13C13082   2.997   4.518   1.874
  124OSM    C1213083   2.837   4.525   2.180
  124OSM   H12A13084   2.924   4.514   2.244
  124OSM   H12B13085   2.754   4.467   2.219
  124OSM    C1113086   2.791   4.671   2.190
  124OSM   H11A13087   2.764   4.684   2.298
  124OSM   H11B13088   2.698   4.689   2.131
  124OSM      P13089   2.938   4.875   2.245
  124OSM    O1313090   3.056   4.946   2.189
  124OSM    O1413091   2.818   4.953   2.280
  124OSM    O1113092   2.985   4.788   2.370
  124OSM    O1213093   2.896   4.759   2.145
  124OSM    C1S13094   3.089   4.839   2.453
  124OSM    H1S13095   3.090   4.951   2.454
  124OSM    H1T13096   3.189   4.805   2.415
  124OSM     NF13097   3.184   4.837   2.670
  124OSM    HNF13098   3.259   4.774   2.676
  124OSM    C2S13099   3.072   4.791   2.599
  124OSM    H2S13100   2.980   4.837   2.639
  124OSM    C3S13101   3.069   4.637   2.617
  124OSM    H3S13102   3.166   4.594   2.587
  124OSM     O313103   2.972   4.571   2.537
  124OSM    HO313104   2.954   4.636   2.467
  124OSM    C4S13105   3.045   4.604   2.763
  124OSM    H4S13106   2.943   4.612   2.798
  124OSM    C5S13107   3.134   4.555   2.850
  124OSM    H5S13108   3.233   4.533   2.816
  124OSM    C6S13109   3.109   4.523   2.994
  124OSM    H6S13110   3.202   4.486   3.045
  124OSM    H6T13111   3.032   4.444   3.000
  124OSM    C7S13112   3.059   4.650   3.063
  124OSM    H7S13113   2.963   4.677   3.011
  124OSM    H7T13114   3.131   4.733   3.050
  124OSM    C8S13115   3.024   4.634   3.211
  124OSM    H8S13116   2.968   4.539   3.226
  124OSM    H8T13117   2.953   4.716   3.236
  124OSM    C9S13118   3.141   4.637   3.308
  124OSM    H9S13119   3.193   4.735   3.309
  124OSM    H9T13120   3.217   4.562   3.277
  124OSM   C10S13121   3.092   4.600   3.447
  124OSM   H10S13122   3.037   4.504   3.448
  124OSM   H10T13123   3.027   4.681   3.488
  124OSM   C11S13124   3.206   4.583   3.537
  124OSM   H11S13125   3.295   4.536   3.491
  124OSM   H11T13126   3.174   4.507   3.612
  124OSM   C12S13127   3.246   4.726   3.575
  124OSM   H12S13128   3.175   4.788   3.635
  124OSM   H12T13129   3.307   4.783   3.503
  124OSM   C13S13130   3.354   4.710   3.661
  124OSM   H13S13131   3.412   4.800   3.684
  124OSM   H13T13132   3.423   4.641   3.611
  124OSM   C14S13133   3.261   4.654   3.761
  124OSM   H14S13134   3.301   4.549   3.798
  124OSM   H14T13135   3.250   4.544   3.761
  124OSM   C15S13136   3.165   4.758   3.871
  124OSM   H15S13137   3.070   4.721   3.834
  124OSM   H15T13138   3.211   4.855   3.844
  124OSM   C16S13139   3.135   4.764   4.047
  124OSM   H16S13140   3.101   4.866   4.070
  124OSM   H16T13141   3.230   4.798   4.105
  124OSM   C17S13142   3.071   4.638   4.136
  124OSM   H17S13143   3.081   4.525   4.123
  124OSM   H17T13144   2.972   4.597   4.130
  124OSM   C18S13145   3.151   4.604   4.253
  124OSM   H18S13146   3.252   4.650   4.281
  124OSM   H18T13147   3.168   4.495   4.286
  124OSM   H18U13148   3.075   4.662   4.298
  124OSM    C1F13149   3.203   4.953   2.718
  124OSM     OF13150   3.126   5.048   2.715
  124OSM    C2F13151   3.341   4.955   2.765
  124OSM    H2F13152   3.389   4.995   2.675
  124OSM    H2G13153   3.397   4.863   2.777
  124OSM    C3F13154   3.348   5.030   2.893
  124OSM    H3F13155   3.288   5.121   2.868
  124OSM    H3G13156   3.455   5.054   2.912
  124OSM    C4F13157   3.287   4.967   3.012
  124OSM    H4F13158   3.360   4.889   3.046
  124OSM    H4G13159   3.183   4.943   2.990
  124OSM    C5F13160   3.274   5.061   3.124
  124OSM    H5F13161   3.236   5.157   3.090
  124OSM    H5G13162   3.380   5.051   3.147
  124OSM    C6F13163   3.192   5.030   3.243
  124OSM    H6F13164   3.227   5.078   3.337
  124OSM    H6G13165   3.207   4.922   3.254
  124OSM    C7F13166   3.052   5.081   3.217
  124OSM    H7F13167   3.021   5.058   3.113
  124OSM    H7G13168   3.049   5.192   3.230
  124OSM    C8F13169   2.965   5.008   3.316
  124OSM    H8F13170   3.004   5.030   3.418
  124OSM    H8G13171   2.984   4.901   3.294
  124OSM    C9F13172   2.819   5.034   3.302
  124OSM    H9F13173   2.791   5.117   3.235
  124OSM   C10F13174   2.728   4.953   3.359
  124OSM   H10F13175   2.621   4.978   3.346
  124OSM   C11F13176   2.758   4.829   3.441
  124OSM   H11F13177   2.850   4.776   3.409
  124OSM   H11G13178   2.678   4.755   3.419
  124OSM   C12F13179   2.764   4.856   3.594
  124OSM   H12F13180   2.659   4.867   3.631
  124OSM   H12G13181   2.815   4.953   3.612
  124OSM   C13F13182   2.841   4.756   3.684
  124OSM   H13F13183   2.949   4.778   3.669
  124OSM   H13G13184   2.826   4.650   3.653
  124OSM   C14F13185   2.810   4.773   3.834
  124OSM   H14F13186   2.851   4.687   3.892
  124OSM   H14G13187   2.700   4.772   3.850
  124OSM   C15F13188   2.869   4.906   3.890
  124OSM   H15F13189   2.871   4.984   3.813
  124OSM   H15G13190   2.975   4.893   3.915
  124OSM   C16F13191   2.806   4.958   4.018
  124OSM   H16F13192   2.696   4.952   4.010
  124OSM   H16G13193   2.837   5.063   4.042
  124OSM   C17F13194   2.851   4.862   4.125
  124OSM   H17F13195   2.953   4.890   4.156
  124OSM   H17G13196   2.834   4.757   4.101
  124OSM   C18F13197   2.780   4.851   4.247
  124OSM   H18F13198   2.792   4.780   4.327
  124OSM   H18G13199   2.688   4.914   4.256
  124OSM   H18H13200   2.870   4.880   4.309
  125OSM      N13201   3.798   2.303   2.016
  125OSM    C1513202   3.778   2.313   1.875
  125OSM   H15A13203   3.696   2.381   1.863
  125OSM   H15B13204   3.752   2.214   1.842
  125OSM   H15C13205   3.873   2.346   1.832
  125OSM    C1413206   3.935   2.258   2.015
  125OSM   H14A13207   3.937   2.237   2.122
  125OSM   H14B13208   4.014   2.334   2.013
  125OSM   H14C13209   3.969   2.155   2.009
  125OSM    C1313210   3.771   2.442   2.073
  125OSM   H13A13211   3.845   2.520   2.056
  125OSM   H13B13212   3.768   2.433   2.182
  125OSM   H13C13213   3.666   2.470   2.064
  125OSM    C1213214   3.710   2.201   2.091
  125OSM   H12A13215   3.722   2.206   2.201
  125OSM   H12B13216   3.744   2.100   2.072
  125OSM    C1113217   3.563   2.224   2.069
  125OSM   H11A13218   3.501   2.143   2.110
  125OSM   H11B13219   3.554   2.225   1.959
  125OSM      P13220   3.467   2.372   2.260
  125OSM    O1313221   3.454   2.516   2.286
  125OSM    O1413222   3.350   2.285   2.285
  125OSM    O1113223   3.585   2.324   2.352
  125OSM    O1213224   3.520   2.349   2.117
  125OSM    C1S13225   3.507   2.312   2.474
  125OSM    H1S13226   3.443   2.216   2.479
  125OSM    H1T13227   3.501   2.396   2.545
  125OSM     NF13228   3.543   2.207   2.697
  125OSM    HNF13229   3.616   2.193   2.761
  125OSM    C2S13230   3.602   2.271   2.565
  125OSM    H2S13231   3.618   2.169   2.512
  125OSM    C3S13232   3.734   2.414   2.604
  125OSM    H3S13233   3.714   2.490   2.667
  125OSM     O313234   3.818   2.467   2.502
  125OSM    HO313235   3.821   2.391   2.441
  125OSM    C4S13236   3.864   2.377   2.695
  125OSM    H4S13237   3.918   2.327   2.618
  125OSM    C5S13238   3.892   2.357   2.832
  125OSM    H5S13239   3.841   2.420   2.901
  125OSM    C6S13240   4.006   2.303   2.921
  125OSM    H6S13241   4.110   2.339   2.922
  125OSM    H6T13242   4.015   2.200   2.884
  125OSM    C7S13243   3.964   2.253   3.062
  125OSM    H7S13244   3.940   2.349   3.105
  125OSM    H7T13245   4.048   2.209   3.121
  125OSM    C8S13246   3.840   2.161   3.079
  125OSM    H8S13247   3.834   2.097   2.990
  125OSM    H8T13248   3.746   2.202   3.045
  125OSM    C9S13249   3.846   2.082   3.215
  125OSM    H9S13250   3.953   2.065   3.248
  125OSM    H9T13251   3.791   1.984   3.217
  125OSM   C10S13252   3.797   2.133   3.339
  125OSM   H10S13253   3.688   2.125   3.318
  125OSM   H10T13254   3.851   2.230   3.336
  125OSM   C11S13255   3.848   2.048   3.454
  125OSM   H11S13256   3.959   2.051   3.456
  125OSM   H11T13257   3.816   1.943   3.456
  125OSM   C12S13258   3.793   2.098   3.582
  125OSM   H12S13259   3.802   2.209   3.577
  125OSM   H12T13260   3.860   2.056   3.659
  125OSM   C13S13261   3.651   2.047   3.608
  125OSM   H13S13262   3.646   1.937   3.591
  125OSM   H13T13263   3.577   2.099   3.544
  125OSM   C14S13264   3.612   2.074   3.752
  125OSM   H14S13265   3.623   2.184   3.769
  125OSM   H14T13266   3.684   2.021   3.818
  125OSM   C15S13267   3.468   2.036   3.784
  125OSM   H15S13268   3.456   1.925   3.778
  125OSM   H15T13269   3.401   2.076   3.705
  125OSM   C16S13270   3.426   2.100   3.920
  125OSM   H16S13271   3.324   2.068   3.952
  125OSM   H16T13272   3.437   2.208   3.912
  125OSM   C17S13273   3.518   2.083   4.039
  125OSM   H17S13274   3.501   2.122   4.141
  125OSM   H17T13275   3.627   2.088   4.012
  125OSM   C18S13276   3.492   1.953   4.073
  125OSM   H18S13277   3.405   1.889   4.094
  125OSM   H18T13278   3.576   1.930   4.146
  125OSM   H18U13279   3.510   1.911   3.970
  125OSM    C1F13280   3.501   2.078   2.725
  125OSM     OF13281   3.443   2.007   2.645
  125OSM    C2F13282   3.540   2.028   2.866
  125OSM    H2F13283   3.607   2.088   2.931
  125OSM    H2G13284   3.551   1.918   2.882
  125OSM    C3F13285   3.419   2.049   2.942
  125OSM    H3F13286   3.419   2.020   3.050
  125OSM    H3G13287   3.338   2.008   2.880
  125OSM    C4F13288   3.361   2.172   2.948
  125OSM    H4F13289   3.269   2.126   3.003
  125OSM    H4G13290   3.322   2.209   2.849
  125OSM    C5F13291   3.447   2.275   3.019
  125OSM    H5F13292   3.395   2.369   3.010
  125OSM    H5G13293   3.534   2.308   2.963
  125OSM    C6F13294   3.489   2.243   3.165
  125OSM    H6F13295   3.593   2.217   3.167
  125OSM    H6G13296   3.436   2.151   3.199
  125OSM    C7F13297   3.484   2.351   3.275
  125OSM    H7F13298   3.477   2.311   3.377
  125OSM    H7G13299   3.392   2.393   3.276
  125OSM    C8F13300   3.504   2.497   3.245
  125OSM    H8F13301   3.446   2.579   3.294
  125OSM    H8G13302   3.481   2.504   3.139
  125OSM    C9F13303   3.642   2.485   3.289
  125OSM    H9F13304   3.707   2.460   3.206
  125OSM   C10F13305   3.686   2.484   3.413
  125OSM   H10F13306   3.792   2.501   3.428
  125OSM   C11F13307   3.610   2.495   3.540
  125OSM   H11F13308   3.652   2.436   3.621
  125OSM   H11G13309   3.500   2.476   3.535
  125OSM   C12F13310   3.638   2.634   3.577
  125OSM   H12F13311   3.555   2.626   3.648
  125OSM   H12G13312   3.617   2.700   3.489
  125OSM   C13F13313   3.749   2.683   3.670
  125OSM   H13F13314   3.753   2.793   3.697
  125OSM   H13G13315   3.842   2.662   3.615
  125OSM   C14F13316   3.738   2.621   3.805
  125OSM   H14F13317   3.681   2.527   3.809
  125OSM   H14G13318   3.692   2.693   3.878
  125OSM   C15F13319   3.877   2.602   3.852
  125OSM   H15F13320   3.866   2.609   3.961
  125OSM   H15G13321   3.933   2.683   3.800
  125OSM   C16F13322   3.966   2.495   3.806
  125OSM   H16F13323   4.048   2.488   3.881
  125OSM   H16G13324   4.008   2.524   3.706
  125OSM   C17F13325   3.890   2.371   3.804
  125OSM   H17F13326   3.956   2.303   3.752
  125OSM   H17G13327   3.807   2.381   3.735
  125OSM   C18F13328   3.845   2.329   3.944
  125OSM   H18F13329   3.930   2.331   4.016
  125OSM   H18G13330   3.802   2.228   3.937
  125OSM   H18H13331   3.767   2.397   3.984
  126OSM      N13332   2.234   2.774   2.053
  126OSM    C1513333   2.330   2.839   1.961
  126OSM   H15A13334   2.351   2.939   1.998
  126OSM   H15B13335   2.289   2.843   1.861
  126OSM   H15C13336   2.424   2.781   1.962
  126OSM    C1413337   2.277   2.793   2.194
  126OSM   H14A13338   2.265   2.897   2.224
  126OSM   H14B13339   2.384   2.773   2.207
  126OSM   H14C13340   2.217   2.732   2.260
  126OSM    C1313341   2.102   2.840   2.037
  126OSM   H13A13342   2.058   2.817   1.942
  126OSM   H13B13343   2.113   2.947   2.042
  126OSM   H13C13344   2.032   2.805   2.112
  126OSM    C1213345   2.231   2.630   2.017
  126OSM   H12A13346   2.320   2.584   2.059
  126OSM   H12B13347   2.240   2.624   1.909
  126OSM    C1113348   2.110   2.550   2.062
  126OSM   H11A13349   2.130   2.444   2.037
  126OSM   H11B13350   2.022   2.585   2.002
  126OSM      P13351   1.948   2.575   2.260
  126OSM    O1313352   1.874   2.661   2.170
  126OSM    O1413353   1.914   2.433   2.272
  126OSM    O1113354   1.963   2.641   2.400
  126OSM    O1213355   2.096   2.566   2.204
  126OSM    C1S13356   2.085   2.625   2.469
  126OSM    H1S13357   2.151   2.709   2.439
  126OSM    H1T13358   2.139   2.531   2.446
  126OSM     NF13359   2.173   2.647   2.691
  126OSM    HNF13360   2.206   2.572   2.745
  126OSM    C2S13361   2.053   2.626   2.620
  126OSM    H2S13362   1.981   2.709   2.638
  126OSM    C3S13363   1.991   2.494   2.670
  126OSM    H3S13364   2.063   2.413   2.642
  126OSM     O313365   1.865   2.463   2.612
  126OSM    HO313366   1.846   2.534   2.549
  126OSM    C4S13367   1.973   2.496   2.824
  126OSM    H4S13368   2.032   2.418   2.872
  126OSM    C5S13369   1.900   2.578   2.906
  126OSM    H5S13370   1.850   2.666   2.863
  126OSM    C6S13371   1.889   2.569   3.058
  126OSM    H6S13372   1.795   2.514   3.082
  126OSM    H6T13373   1.874   2.669   3.106
  126OSM    C7S13374   2.000   2.489   3.131
  126OSM    H7S13375   2.099   2.527   3.099
  126OSM    H7T13376   1.990   2.384   3.097
  126OSM    C8S13377   1.988   2.486   3.286
  126OSM    H8S13378   1.879   2.482   3.311
  126OSM    H8T13379   2.028   2.577   3.333
  126OSM    C9S13380   2.078   2.385   3.360
  126OSM    H9S13381   2.183   2.381   3.327
  126OSM    H9T13382   2.047   2.292   3.336
  126OSM   C10S13383   2.049   2.337   3.501
  126OSM   H10S13384   2.104   2.239   3.515
  126OSM   H10T13385   1.941   2.318   3.520
  126OSM   C11S13386   2.098   2.440   3.596
  126OSM   H11S13387   2.086   2.398   3.698
  126OSM   H11T13388   2.031   2.528   3.585
  126OSM   C12S13389   2.244   2.479   3.570
  126OSM   H12S13390   2.256   2.537   3.476
  126OSM   H12T13391   2.303   2.386   3.558
  126OSM   C13S13392   2.288   2.559   3.693
  126OSM   H13S13393   2.331   2.486   3.765
  126OSM   H13T13394   2.194   2.601   3.736
  126OSM   C14S13395   2.379   2.682   3.682
  126OSM   H14S13396   2.339   2.745   3.600
  126OSM   H14T13397   2.485   2.670   3.655
  126OSM   C15S13398   2.384   2.757   3.816
  126OSM   H15S13399   2.283   2.792   3.840
  126OSM   H15T13400   2.451   2.844   3.816
  126OSM   C16S13401   2.458   2.696   3.931
  126OSM   H16S13402   2.413   2.597   3.951
  126OSM   H16T13403   2.440   2.764   4.017
  126OSM   C17S13404   2.609   2.691   3.903
  126OSM   H17S13405   2.657   2.782   3.863
  126OSM   H17T13406   2.622   2.612   3.826
  126OSM   C18S13407   2.687   2.663   4.028
  126OSM   H18S13408   2.637   2.569   4.053
  126OSM   H18T13409   2.672   2.716   4.122
  126OSM   H18U13410   2.796   2.651   4.006
  126OSM    C1F13411   2.243   2.754   2.681
  126OSM     OF13412   2.205   2.842   2.605
  126OSM    C2F13413   2.359   2.748   2.775
  126OSM    H2F13414   2.439   2.682   2.740
  126OSM    H2G13415   2.313   2.708   2.868
  126OSM    C3F13416   2.419   2.877   2.808
  126OSM    H3F13417   2.334   2.929   2.861
  126OSM    H3G13418   2.475   2.926   2.724
  126OSM    C4F13419   2.513   2.891   2.905
  126OSM    H4F13420   2.535   2.999   2.925
  126OSM    H4G13421   2.598   2.840   2.851
  126OSM    C5F13422   2.443   2.824   3.017
  126OSM    H5F13423   2.485   2.908   3.079
  126OSM    H5G13424   2.474   2.717   3.013
  126OSM    C6F13425   2.325   2.846   3.103
  126OSM    H6F13426   2.262   2.774   3.050
  126OSM    H6G13427   2.302   2.954   3.095
  126OSM    C7F13428   2.325   2.788   3.246
  126OSM    H7F13429   2.359   2.848   3.330
  126OSM    H7G13430   2.389   2.699   3.264
  126OSM    C8F13431   2.196   2.805   3.319
  126OSM    H8F13432   2.214   2.784   3.427
  126OSM    H8G13433   2.143   2.723   3.272
  126OSM    C9F13434   2.121   2.932   3.294
  126OSM    H9F13435   2.080   2.944   3.193
  126OSM   C10F13436   2.092   3.027   3.382
  126OSM   H10F13437   2.033   3.113   3.351
  126OSM   C11F13438   2.129   3.030   3.523
  126OSM   H11F13439   2.185   3.125   3.524
  126OSM   H11G13440   2.198   2.948   3.549
  126OSM   C12F13441   2.015   3.030   3.627
  126OSM   H12F13442   1.945   3.114   3.606
  126OSM   H12G13443   2.057   3.048   3.729
  126OSM   C13F13444   1.940   2.896   3.633
  126OSM   H13F13445   2.015   2.817   3.653
  126OSM   H13G13446   1.885   2.875   3.538
  126OSM   C14F13447   1.837   2.885   3.745
  126OSM   H14F13448   1.738   2.921   3.708
  126OSM   H14G13449   1.872   2.950   3.827
  126OSM   C15F13450   1.820   2.738   3.790
  126OSM   H15F13451   1.825   2.674   3.701
  126OSM   H15G13452   1.722   2.730   3.844
  126OSM   C16F13453   1.924   2.697   3.892
  126OSM   H16F13454   1.882   2.771   3.962
  126OSM   H16G13455   2.029   2.715   3.857
  126OSM   C17F13456   1.909   2.579   3.987
  126OSM   H17F13457   1.893   2.493   3.921
  126OSM   H17G13458   1.820   2.598   4.051
  126OSM   C18F13459   2.028   2.548   4.080
  126OSM   H18F13460   2.052   2.631   4.150
  126OSM   H18G13461   2.120   2.526   4.022
  126OSM   H18H13462   2.000   2.460   4.142
  127OSM      N13463   1.969   4.866   2.011
  127OSM    C1513464   2.000   4.821   1.874
  127OSM   H15A13465   1.942   4.880   1.802
  127OSM   H15B13466   1.967   4.719   1.856
  127OSM   H15C13467   2.106   4.833   1.858
  127OSM    C1413468   2.021   5.004   2.030
  127OSM   H14A13469   2.004   5.066   1.943
  127OSM   H14B13470   2.128   4.994   2.048
  127OSM   H14C13471   1.972   5.048   2.116
  127OSM    C1313472   1.827   4.869   2.019
  127OSM   H13A13473   1.777   4.945   1.957
  127OSM   H13B13474   1.784   4.892   2.116
  127OSM   H13C13475   1.776   4.777   1.989
  127OSM    C1213476   2.007   4.769   2.121
  127OSM   H12A13477   1.948   4.679   2.107
  127OSM   H12B13478   1.973   4.808   2.218
  127OSM    C1113479   2.152   4.723   2.135
  127OSM   H11A13480   2.181   4.665   2.045
  127OSM   H11B13481   2.149   4.651   2.221
  127OSM      P13482   2.301   4.862   2.300
  127OSM    O1313483   2.387   4.750   2.345
  127OSM    O1413484   2.355   5.000   2.293
  127OSM    O1113485   2.167   4.862   2.385
  127OSM    O1213486   2.242   4.831   2.155
  127OSM    C1S13487   2.112   4.975   2.452
  127OSM    H1S13488   2.032   5.016   2.387
  127OSM    H1T13489   2.187   5.055   2.471
  127OSM     NF13490   2.164   4.924   2.693
  127OSM    HNF13491   2.192   4.831   2.705
  127OSM    C2S13492   2.057   4.936   2.595
  127OSM    H2S13493   1.992   5.018   2.623
  127OSM    C3S13494   1.975   4.806   2.592
  127OSM    H3S13495   2.047   4.722   2.588
  127OSM     O313496   1.891   4.796   2.479
  127OSM    HO313497   1.891   4.883   2.438
  127OSM    C4S13498   1.901   4.792   2.725
  127OSM    H4S13499   1.939   4.713   2.788
  127OSM    C5S13500   1.792   4.855   2.768
  127OSM    H5S13501   1.742   4.918   2.698
  127OSM    C6S13502   1.722   4.840   2.899
  127OSM    H6S13503   1.639   4.773   2.871
  127OSM    H6T13504   1.672   4.934   2.930
  127OSM    C7S13505   1.803   4.781   3.017
  127OSM    H7S13506   1.834   4.678   2.990
  127OSM    H7T13507   1.741   4.773   3.110
  127OSM    C8S13508   1.922   4.866   3.059
  127OSM    H8S13509   1.889   4.968   3.082
  127OSM    H8T13510   1.992   4.866   2.972
  127OSM    C9S13511   1.994   4.813   3.183
  127OSM    H9S13512   2.039   4.718   3.146
  127OSM    H9T13513   1.921   4.792   3.264
  127OSM   C10S13514   2.103   4.910   3.235
  127OSM   H10S13515   2.167   4.939   3.149
  127OSM   H10T13516   2.165   4.858   3.311
  127OSM   C11S13517   2.047   5.038   3.301
  127OSM   H11S13518   1.995   5.008   3.394
  127OSM   H11T13519   1.968   5.083   3.236
  127OSM   C12S13520   2.148   5.148   3.338
  127OSM   H12S13521   2.095   5.223   3.401
  127OSM   H12T13522   2.185   5.202   3.248
  127OSM   C13S13523   2.278   5.106   3.407
  127OSM   H13S13524   2.333   5.195   3.444
  127OSM   H13T13525   2.343   5.056   3.333
  127OSM   C14S13526   2.266   5.023   3.531
  127OSM   H14S13527   2.371   5.013   3.571
  127OSM   H14T13528   2.229   4.920   3.520
  127OSM   C15S13529   2.177   5.078   3.637
  127OSM   H15S13530   2.070   5.055   3.623
  127OSM   H15T13531   2.167   5.189   3.643
  127OSM   C16S13532   2.241   4.999   3.756
  127OSM   H16S13533   2.326   5.019   3.820
  127OSM   H16T13534   2.259   4.894   3.747
  127OSM   C17S13535   2.187   5.031   3.874
  127OSM   H17S13536   2.104   5.008   3.814
  127OSM   H17T13537   2.123   5.122   3.887
  127OSM   C18S13538   2.257   4.962   4.004
  127OSM   H18S13539   2.196   5.000   4.079
  127OSM   H18T13540   2.302   5.021   4.089
  127OSM   H18U13541   2.224   4.860   4.024
  127OSM    C1F13542   2.238   5.020   2.748
  127OSM     OF13543   2.199   5.134   2.755
  127OSM    C2F13544   2.373   4.982   2.802
  127OSM    H2F13545   2.438   5.072   2.805
  127OSM    H2G13546   2.417   4.905   2.736
  127OSM    C3F13547   2.365   4.926   2.947
  127OSM    H3F13548   2.281   4.853   2.950
  127OSM    H3G13549   2.344   5.011   3.016
  127OSM    C4F13550   2.500   4.865   2.992
  127OSM    H4F13551   2.572   4.950   2.993
  127OSM    H4G13552   2.536   4.796   2.912
  127OSM    C5F13553   2.505   4.793   3.131
  127OSM    H5F13554   2.494   4.867   3.213
  127OSM    H5G13555   2.608   4.751   3.139
  127OSM    C6F13556   2.406   4.677   3.154
  127OSM    H6F13557   2.433   4.598   3.080
  127OSM    H6G13558   2.303   4.708   3.127
  127OSM    C7F13559   2.407   4.608   3.294
  127OSM    H7F13560   2.384   4.677   3.379
  127OSM    H7G13561   2.509   4.570   3.313
  127OSM    C8F13562   2.312   4.487   3.302
  127OSM    H8F13563   2.341   4.420   3.386
  127OSM    H8G13564   2.323   4.425   3.210
  127OSM    C9F13565   2.169   4.533   3.317
  127OSM    H9F13566   2.126   4.570   3.225
  127OSM   C10F13567   2.095   4.544   3.428
  127OSM   H10F13568   1.990   4.575   3.418
  127OSM   C11F13569   2.139   4.512   3.566
  127OSM   H11F13570   2.150   4.604   3.625
  127OSM   H11G13571   2.239   4.463   3.564
  127OSM   C12F13572   2.050   4.415   3.642
  127OSM   H12F13573   2.088   4.403   3.746
  127OSM   H12G13574   2.059   4.321   3.590
  127OSM   C13F13575   1.899   4.430   3.638
  127OSM   H13F13576   1.867   4.350   3.708
  127OSM   H13G13577   1.854   4.399   3.546
  127OSM   C14F13578   1.846   4.571   3.660
  127OSM   H14F13579   1.744   4.573   3.694
  127OSM   H14G13580   1.841   4.647   3.584
  127OSM   C15F13581   1.910   4.633   3.773
  127OSM   H15F13582   2.016   4.661   3.776
  127OSM   H15G13583   1.920   4.531   3.823
  127OSM   C16F13584   1.812   4.751   3.836
  127OSM   H16F13585   1.707   4.752   3.808
  127OSM   H16G13586   1.852   4.809   3.748
  127OSM   C17F13587   1.806   4.815   4.015
  127OSM   H17F13588   1.917   4.809   4.032
  127OSM   H17G13589   1.755   4.767   4.095
  127OSM   C18F13590   1.752   4.935   4.109
  127OSM   H18F13591   1.779   5.040   4.091
  127OSM   H18G13592   1.797   4.940   4.210
  127OSM   H18H13593   1.650   4.954   4.086
  128OSM      N13594   1.634   4.179   1.947
  128OSM    C1513595   1.744   4.097   2.002
  128OSM   H15A13596   1.738   3.995   1.964
  128OSM   H15B13597   1.734   4.092   2.111
  128OSM   H15C13598   1.838   4.143   1.980
  128OSM    C1413599   1.672   4.323   1.939
  128OSM   H14A13600   1.594   4.384   1.893
  128OSM   H14B13601   1.760   4.338   1.878
  128OSM   H14C13602   1.687   4.365   2.039
  128OSM    C1313603   1.599   4.125   1.813
  128OSM   H13A13604   1.545   4.200   1.755
  128OSM   H13B13605   1.533   4.038   1.821
  128OSM   H13C13606   1.682   4.091   1.752
  128OSM    C1213607   1.510   4.165   2.035
  128OSM   H12A13608   1.462   4.073   2.009
  128OSM   H12B13609   1.442   4.247   2.013
  128OSM    C1113610   1.521   4.166   2.188
  128OSM   H11A13611   1.581   4.079   2.222
  128OSM   H11B13612   1.419   4.151   2.233
  128OSM      P13613   1.679   4.301   2.340
  128OSM    O1313614   1.812   4.302   2.274
  128OSM    O1413615   1.648   4.407   2.435
  128OSM    O1113616   1.666   4.160   2.417
  128OSM    O1213617   1.570   4.293   2.228
  128OSM    C1S13618   1.772   4.143   2.512
  128OSM    H1S13619   1.828   4.235   2.536
  128OSM    H1T13620   1.843   4.066   2.475
  128OSM     NF13621   1.827   4.113   2.744
  128OSM    HNF13622   1.862   4.026   2.784
  128OSM    C2S13623   1.725   4.093   2.647
  128OSM    H2S13624   1.631   4.143   2.684
  128OSM    C3S13625   1.707   3.951   2.620
  128OSM    H3S13626   1.791   3.888   2.591
  128OSM     O313627   1.608   3.916   2.525
  128OSM    HO313628   1.606   3.984   2.456
  128OSM    C4S13629   1.683   3.898   2.747
  128OSM    H4S13630   1.568   3.921   2.743
  128OSM    C5S13631   1.766   3.801   2.828
  128OSM    H5S13632   1.836   3.752   2.765
  128OSM    C6S13633   1.760   3.712   2.972
  128OSM    H6S13634   1.746   3.599   2.967
  128OSM    H6T13635   1.663   3.670   3.021
  128OSM    C7S13636   1.781   3.780   3.111
  128OSM    H7S13637   1.883   3.756   3.086
  128OSM    H7T13638   1.727   3.710   3.185
  128OSM    C8S13639   1.759   3.943   3.130
  128OSM    H8S13640   1.662   3.995   3.120
  128OSM    H8T13641   1.796   3.998   3.046
  128OSM    C9S13642   1.759   4.003   3.263
  128OSM    H9S13643   1.684   3.987   3.341
  128OSM    H9T13644   1.732   4.111   3.266
  128OSM   C10S13645   1.854   3.912   3.318
  128OSM   H10S13646   1.931   3.918   3.241
  128OSM   H10T13647   1.886   3.808   3.312
  128OSM   C11S13648   1.864   3.965   3.446
  128OSM   H11S13649   1.858   4.077   3.437
  128OSM   H11T13650   1.964   3.913   3.452
  128OSM   C12S13651   1.760   3.955   3.552
  128OSM   H12S13652   1.753   3.847   3.560
  128OSM   H12T13653   1.664   3.997   3.524
  128OSM   C13S13654   1.767   4.044   3.674
  128OSM   H13S13655   1.761   4.152   3.676
  128OSM   H13T13656   1.868   4.041   3.699
  128OSM   C14S13657   1.682   3.984   3.783
  128OSM   H14S13658   1.726   3.887   3.772
  128OSM   H14T13659   1.577   3.978   3.785
  128OSM   C15S13660   1.708   4.041   3.913
  128OSM   H15S13661   1.721   4.150   3.900
  128OSM   H15T13662   1.807   3.998   3.871
  128OSM   C16S13663   1.679   4.005   4.075
  128OSM   H16S13664   1.571   3.995   4.086
  128OSM   H16T13665   1.703   4.084   4.151
  128OSM   C17S13666   1.768   3.895   4.166
  128OSM   H17S13667   1.813   3.905   4.264
  128OSM   H17T13668   1.854   3.843   4.113
  128OSM   C18S13669   1.752   3.778   4.190
  128OSM   H18S13670   1.798   3.683   4.158
  128OSM   H18T13671   1.682   3.822   4.112
  128OSM   H18U13672   1.685   3.718   4.246
  128OSM    C1F13673   1.849   4.242   2.777
  128OSM     OF13674   1.760   4.322   2.773
  128OSM    C2F13675   1.979   4.290   2.819
  128OSM    H2F13676   2.066   4.307   2.749
  128OSM    H2G13677   1.999   4.184   2.819
  128OSM    C3F13678   1.966   4.370   2.961
  128OSM    H3F13679   2.001   4.469   2.935
  128OSM    H3G13680   2.045   4.361   3.040
  128OSM    C4F13681   1.851   4.344   3.072
  128OSM    H4F13682   1.824   4.242   3.113
  128OSM    H4G13683   1.757   4.365   3.024
  128OSM    C5F13684   1.891   4.412   3.204
  128OSM    H5F13685   1.918   4.516   3.182
  128OSM    H5G13686   1.971   4.371   3.266
  128OSM    C6F13687   1.786   4.416   3.304
  128OSM    H6F13688   1.813   4.478   3.391
  128OSM    H6G13689   1.743   4.319   3.336
  128OSM    C7F13690   1.692   4.495   3.235
  128OSM    H7F13691   1.641   4.452   3.146
  128OSM    H7G13692   1.710   4.609   3.237
  128OSM    C8F13693   1.589   4.465   3.318
  128OSM    H8F13694   1.534   4.552   3.278
  128OSM    H8G13695   1.624   4.519   3.412
  128OSM    C9F13696   1.506   4.329   3.327
  128OSM    H9F13697   1.418   4.321   3.258
  128OSM   C10F13698   1.490   4.256   3.443
  128OSM   H10F13699   1.407   4.183   3.448
  128OSM   C11F13700   1.548   4.288   3.583
  128OSM   H11F13701   1.632   4.360   3.574
  128OSM   H11G13702   1.590   4.192   3.610
  128OSM   C12F13703   1.469   4.329   3.714
  128OSM   H12F13704   1.369   4.291   3.721
  128OSM   H12G13705   1.449   4.432   3.714
  128OSM   C13F13706   1.532   4.347   3.852
  128OSM   H13F13707   1.567   4.250   3.882
  128OSM   H13G13708   1.465   4.394   3.928
  128OSM   C14F13709   1.644   4.446   3.851
  128OSM   H14F13710   1.602   4.540   3.808
  128OSM   H14G13711   1.706   4.397   3.776
  128OSM   C15F13712   1.719   4.453   3.984
  128OSM   H15F13713   1.789   4.374   4.004
  128OSM   H15G13714   1.646   4.484   4.064
  128OSM   C16F13715   1.801   4.565   4.014
  128OSM   H16F13716   1.713   4.629   3.983
  128OSM   H16G13717   1.892   4.607   3.976
  128OSM   C17F13718   1.893   4.603   4.128
  128OSM   H17F13719   1.827   4.626   4.209
  128OSM   H17G13720   1.933   4.695   4.159
  128OSM   C18F13721   2.046   4.599   4.106
  128OSM   H18F13722   2.009   4.505   4.062
  128OSM   H18G13723   2.084   4.592   4.211
  128OSM   H18H13724   2.110   4.560   4.027
  129OSM      N13725   3.839   1.528   1.930
  129OSM    C1513726   3.776   1.541   1.797
  129OSM   H15A13727   3.685   1.481   1.791
  129OSM   H15B13728   3.840   1.510   1.716
  129OSM   H15C13729   3.743   1.643   1.783
  129OSM    C1413730   3.913   1.400   1.936
  129OSM   H14A13731   3.978   1.384   1.851
  129OSM   H14B13732   3.849   1.313   1.943
  129OSM   H14C13733   3.979   1.397   2.023
  129OSM    C1313734   3.934   1.641   1.953
  129OSM   H13A13735   3.883   1.736   1.951
  129OSM   H13B13736   4.015   1.641   1.881
  129OSM   H13C13737   3.980   1.630   2.052
  129OSM    C1213738   3.724   1.526   2.034
  129OSM   H12A13739   3.679   1.427   2.041
  129OSM   H12B13740   3.643   1.588   1.999
  129OSM    C1113741   3.754   1.574   2.178
  129OSM   H11A13742   3.669   1.544   2.245
  129OSM   H11B13743   3.757   1.684   2.175
  129OSM      P13744   3.932   1.538   2.368
  129OSM    O1313745   3.999   1.409   2.396
  129OSM    O1413746   4.014   1.659   2.383
  129OSM    O1113747   3.802   1.552   2.458
  129OSM    O1213748   3.879   1.523   2.221
  129OSM    C1S13749   3.788   1.506   2.591
  129OSM    H1S13750   3.820   1.401   2.603
  129OSM    H1T13751   3.680   1.512   2.617
  129OSM     NF13752   3.857   1.533   2.827
  129OSM    HNF13753   3.803   1.571   2.900
  129OSM    C2S13754   3.860   1.594   2.695
  129OSM    H2S13755   3.968   1.603   2.663
  129OSM    C3S13756   3.791   1.731   2.694
  129OSM    H3S13757   3.683   1.724   2.713
  129OSM     O313758   3.818   1.811   2.578
  129OSM    HO313759   3.877   1.757   2.524
  129OSM    C4S13760   3.832   1.796   2.817
  129OSM    H4S13761   3.776   1.789   2.909
  129OSM    C5S13762   3.940   1.859   2.819
  129OSM    H5S13763   3.993   1.879   2.725
  129OSM    C6S13764   3.981   1.922   2.937
  129OSM    H6S13765   4.000   2.030   2.941
  129OSM    H6T13766   4.077   1.894   2.919
  129OSM    C7S13767   3.927   1.885   3.064
  129OSM    H7S13768   3.820   1.913   3.052
  129OSM    H7T13769   3.997   1.959   3.112
  129OSM    C8S13770   3.962   1.774   3.156
  129OSM    H8S13771   4.067   1.753   3.134
  129OSM    H8T13772   3.885   1.703   3.123
  129OSM    C9S13773   3.952   1.805   3.307
  129OSM    H9S13774   3.845   1.823   3.321
  129OSM    H9T13775   4.014   1.892   3.341
  129OSM   C10S13776   3.995   1.695   3.404
  129OSM   H10S13777   4.104   1.682   3.389
  129OSM   H10T13778   3.939   1.605   3.375
  129OSM   C11S13779   3.970   1.727   3.554
  129OSM   H11S13780   3.863   1.749   3.570
  129OSM   H11T13781   4.025   1.819   3.583
  129OSM   C12S13782   4.009   1.615   3.650
  129OSM   H12S13783   3.960   1.637   3.748
  129OSM   H12T13784   4.119   1.614   3.669
  129OSM   C13S13785   3.955   1.479   3.606
  129OSM   H13S13786   3.980   1.451   3.502
  129OSM   H13T13787   3.844   1.483   3.608
  129OSM   C14S13788   4.000   1.368   3.699
  129OSM   H14S13789   4.108   1.375   3.724
  129OSM   H14T13790   3.986   1.274   3.644
  129OSM   C15S13791   3.920   1.369   3.830
  129OSM   H15S13792   3.819   1.321   3.815
  129OSM   H15T13793   3.902   1.473   3.855
  129OSM   C16S13794   4.008   1.306   3.941
  129OSM   H16S13795   4.114   1.287   3.925
  129OSM   H16T13796   3.973   1.227   3.896
  129OSM   C17S13797   3.959   1.278   4.089
  129OSM   H17S13798   3.853   1.316   4.093
  129OSM   H17T13799   4.046   1.339   4.110
  129OSM   C18S13800   4.002   1.181   4.206
  129OSM   H18S13801   4.109   1.175   4.213
  129OSM   H18T13802   3.980   1.078   4.203
  129OSM   H18U13803   3.946   1.188   4.300
  129OSM    C1F13804   3.927   1.429   2.853
  129OSM     OF13805   3.979   1.368   2.762
  129OSM    C2F13806   3.938   1.394   2.996
  129OSM    H2F13807   4.006   1.458   3.053
  129OSM    H2G13808   3.992   1.303   2.995
  129OSM    C3F13809   3.803   1.365   3.064
  129OSM    H3F13810   3.758   1.270   3.023
  129OSM    H3G13811   3.733   1.447   3.041
  129OSM    C4F13812   3.813   1.363   3.216
  129OSM    H4F13813   3.848   1.458   3.259
  129OSM    H4G13814   3.892   1.310   3.261
  129OSM    C5F13815   3.690   1.314   3.285
  129OSM    H5F13816   3.722   1.242   3.364
  129OSM    H5G13817   3.623   1.257   3.217
  129OSM    C6F13818   3.625   1.443   3.338
  129OSM    H6F13819   3.600   1.512   3.256
  129OSM    H6G13820   3.679   1.487   3.423
  129OSM    C7F13821   3.497   1.412   3.393
  129OSM    H7F13822   3.452   1.397   3.294
  129OSM    H7G13823   3.420   1.476   3.441
  129OSM    C8F13824   3.524   1.294   3.475
  129OSM    H8F13825   3.535   1.194   3.422
  129OSM    H8G13826   3.418   1.296   3.498
  129OSM    C9F13827   3.602   1.310   3.601
  129OSM    H9F13828   3.652   1.214   3.624
  129OSM   C10F13829   3.555   1.383   3.704
  129OSM   H10F13830   3.605   1.373   3.801
  129OSM   C11F13831   3.425   1.460   3.719
  129OSM   H11F13832   3.370   1.440   3.815
  129OSM   H11G13833   3.348   1.438   3.642
  129OSM   C12F13834   3.471   1.604   3.706
  129OSM   H12F13835   3.380   1.668   3.700
  129OSM   H12G13836   3.525   1.617   3.610
  129OSM   C13F13837   3.572   1.651   3.813
  129OSM   H13F13838   3.614   1.750   3.782
  129OSM   H13G13839   3.658   1.585   3.832
  129OSM   C14F13840   3.511   1.663   3.947
  129OSM   H14F13841   3.476   1.573   4.001
  129OSM   H14G13842   3.421   1.730   3.930
  129OSM   C15F13843   3.605   1.730   4.041
  129OSM   H15F13844   3.539   1.741   4.135
  129OSM   H15G13845   3.658   1.819   3.991
  129OSM   C16F13846   3.726   1.722   4.103
  129OSM   H16F13847   3.743   1.815   4.169
  129OSM   H16G13848   3.812   1.723   4.030
  129OSM   C17F13849   3.681   1.606   4.179
  129OSM   H17F13850   3.691   1.530   4.094
  129OSM   H17G13851   3.587   1.571   4.224
  129OSM   C18F13852   3.771   1.656   4.286
  129OSM   H18F13853   3.871   1.697   4.253
  129OSM   H18G13854   3.775   1.554   4.257
  129OSM   H18H13855   3.785   1.636   4.391
  130OSM      N13856   3.959   5.674   2.168
  130OSM    C1513857   4.013   5.737   2.294
  130OSM   H15A13858   4.119   5.726   2.298
  130OSM   H15B13859   3.971   5.692   2.383
  130OSM   H15C13860   3.988   5.844   2.299
  130OSM    C1413861   4.020   5.539   2.151
  130OSM   H14A13862   3.979   5.487   2.066
  130OSM   H14B13863   4.003   5.480   2.240
  130OSM   H14C13864   4.127   5.548   2.135
  130OSM    C1313865   3.812   5.658   2.183
  130OSM   H13A13866   3.770   5.594   2.106
  130OSM   H13B13867   3.765   5.757   2.175
  130OSM   H13C13868   3.787   5.617   2.280
  130OSM    C1213869   3.992   5.762   2.048
  130OSM   H12A13870   3.919   5.740   1.971
  130OSM   H12B13871   4.092   5.736   2.014
  130OSM    C1113872   3.996   5.915   2.066
  130OSM   H11A13873   4.005   5.961   1.965
  130OSM   H11B13874   4.088   5.938   2.126
  130OSM      P13875   3.856   6.121   2.143
  130OSM    O1313876   3.882   6.187   2.012
  130OSM    O1413877   3.720   6.141   2.200
  130OSM    O1113878   3.963   6.169   2.251
  130OSM    O1213879   3.880   5.964   2.131
  130OSM    C1S13880   3.979   6.105   2.379
  130OSM    H1S13881   4.066   6.037   2.375
  130OSM    H1T13882   3.889   6.048   2.410
  130OSM     NF13883   4.030   6.131   2.625
  130OSM    HNF13884   3.966   6.158   2.697
  130OSM    C2S13885   4.008   6.201   2.500
  130OSM    H2S13886   4.101   6.259   2.481
  130OSM    C3S13887   3.891   6.296   2.512
  130OSM    H3S13888   3.799   6.245   2.474
  130OSM     O313889   3.916   6.409   2.433
  130OSM    HO313890   3.989   6.388   2.373
  130OSM    C4S13891   3.870   6.341   2.655
  130OSM    H4S13892   3.940   6.415   2.697
  130OSM    C5S13893   3.777   6.285   2.734
  130OSM    H5S13894   3.701   6.226   2.679
  130OSM    C6S13895   3.736   6.315   2.875
  130OSM    H6S13896   3.626   6.337   2.874
  130OSM    H6T13897   3.786   6.401   2.929
  130OSM    C7S13898   3.790   6.229   2.980
  130OSM    H7S13899   3.900   6.252   2.978
  130OSM    H7T13900   3.765   6.130   2.939
  130OSM    C8S13901   3.734   6.258   3.120
  130OSM    H8S13902   3.623   6.250   3.115
  130OSM    H8T13903   3.757   6.362   3.153
  130OSM    C9S13904   3.794   6.152   3.214
  130OSM    H9S13905   3.904   6.146   3.199
  130OSM    H9T13906   3.751   6.055   3.183
  130OSM   C10S13907   3.772   6.176   3.363
  130OSM   H10S13908   3.665   6.178   3.378
  130OSM   H10T13909   3.806   6.276   3.393
  130OSM   C11S13910   3.840   6.076   3.456
  130OSM   H11S13911   3.845   5.972   3.415
  130OSM   H11T13912   3.788   6.069   3.556
  130OSM   C12S13913   3.979   6.125   3.485
  130OSM   H12S13914   3.983   6.237   3.488
  130OSM   H12T13915   4.050   6.097   3.405
  130OSM   C13S13916   4.021   6.064   3.615
  130OSM   H13S13917   4.018   5.954   3.625
  130OSM   H13T13918   3.973   6.112   3.704
  130OSM   C14S13919   4.160   6.088   3.632
  130OSM   H14S13920   4.163   6.199   3.616
  130OSM   H14T13921   4.238   6.051   3.559
  130OSM   C15S13922   4.186   6.039   3.777
  130OSM   H15S13923   4.184   6.115   3.858
  130OSM   H15T13924   4.284   6.036   3.735
  130OSM   C16S13925   4.177   5.890   3.823
  130OSM   H16S13926   4.198   5.834   3.730
  130OSM   H16T13927   4.076   5.883   3.863
  130OSM   C17S13928   4.275   5.828   3.929
  130OSM   H17S13929   4.285   5.891   4.021
  130OSM   H17T13930   4.370   5.824   3.873
  130OSM   C18S13931   4.296   5.681   3.946
  130OSM   H18S13932   4.276   5.634   3.848
  130OSM   H18T13933   4.228   5.647   4.022
  130OSM   H18U13934   4.403   5.658   3.974
  130OSM    C1F13935   4.130   6.047   2.648
  130OSM     OF13936   4.214   6.024   2.563
  130OSM    C2F13937   4.126   5.981   2.782
  130OSM    H2F13938   4.060   5.892   2.779
  130OSM    H2G13939   4.093   6.060   2.855
  130OSM    C3F13940   4.257   5.931   2.838
  130OSM    H3F13941   4.305   6.022   2.877
  130OSM    H3G13942   4.319   5.880   2.760
  130OSM    C4F13943   4.246   5.841   2.962
  130OSM    H4F13944   4.343   5.844   3.012
  130OSM    H4G13945   4.234   5.738   2.924
  130OSM    C5F13946   4.141   5.885   3.065
  130OSM    H5F13947   4.046   5.900   3.009
  130OSM    H5G13948   4.169   5.981   3.115
  130OSM    C6F13949   4.103   5.784   3.173
  130OSM    H6F13950   4.065   5.691   3.125
  130OSM    H6G13951   4.017   5.831   3.225
  130OSM    C7F13952   4.211   5.747   3.277
  130OSM    H7F13953   4.253   5.839   3.325
  130OSM    H7G13954   4.294   5.694   3.227
  130OSM    C8F13955   4.154   5.661   3.392
  130OSM    H8F13956   4.072   5.718   3.442
  130OSM    H8G13957   4.234   5.649   3.468
  130OSM    C9F13958   4.113   5.521   3.356
  130OSM    H9F13959   4.181   5.466   3.289
  130OSM   C10F13960   4.005   5.457   3.404
  130OSM   H10F13961   3.995   5.349   3.384
  130OSM   C11F13962   3.904   5.513   3.502
  130OSM   H11F13963   3.812   5.452   3.495
  130OSM   H11G13964   3.879   5.618   3.475
  130OSM   C12F13965   3.948   5.509   3.649
  130OSM   H12F13966   4.045   5.562   3.658
  130OSM   H12G13967   3.963   5.403   3.683
  130OSM   C13F13968   3.850   5.574   3.747
  130OSM   H13F13969   3.894   5.557   3.849
  130OSM   H13G13970   3.750   5.524   3.746
  130OSM   C14F13971   3.819   5.724   3.720
  130OSM   H14F13972   3.759   5.741   3.630
  130OSM   H14G13973   3.913   5.785   3.728
  130OSM   C15F13974   3.728   5.780   3.826
  130OSM   H15F13975   3.797   5.727   3.894
  130OSM   H15G13976   3.634   5.724   3.843
  130OSM   C16F13977   3.715   5.941   3.844
  130OSM   H16F13978   3.651   5.970   3.760
  130OSM   H16G13979   3.818   5.977   3.828
  130OSM   C17F13980   3.650   6.027   3.966
  130OSM   H17F13981   3.547   5.988   3.990
  130OSM   H17G13982   3.632   6.135   3.955
  130OSM   C18F13983   3.737   6.053   4.092
  130OSM   H18F13984   3.677   6.023   4.182
  130OSM   H18G13985   3.840   6.025   4.059
  130OSM   H18H13986   3.783   5.977   4.148
  131OSM      N13987   1.137   2.779   2.137
  131OSM    C1513988   1.005   2.787   2.202
  131OSM   H15A13989   0.956   2.875   2.164
  131OSM   H15B13990   1.012   2.801   2.310
  131OSM   H15C13991   0.944   2.701   2.178
  131OSM    C1413992   1.210   2.656   2.181
  131OSM   H14A13993   1.142   2.575   2.198
  131OSM   H14B13994   1.271   2.675   2.270
  131OSM   H14C13995   1.280   2.624   2.103
  131OSM    C1313996   1.116   2.766   1.989
  131OSM   H13A13997   1.054   2.844   1.947
  131OSM   H13B13998   1.075   2.669   1.964
  131OSM   H13C13999   1.215   2.773   1.942
  131OSM    C1214000   1.208   2.910   2.170
  131OSM   H12A14001   1.237   2.913   2.275
  131OSM   H12B14002   1.135   2.987   2.155
  131OSM    C1114003   1.325   2.955   2.080
  131OSM   H11A14004   1.364   3.057   2.105
  131OSM   H11B14005   1.281   2.963   1.979
  131OSM      P14006   1.548   2.849   2.173
  131OSM    O1314007   1.631   2.736   2.132
  131OSM    O1414008   1.606   2.983   2.192
  131OSM    O1114009   1.472   2.803   2.304
  131OSM    O1214010   1.427   2.859   2.070
  131OSM    C1S14011   1.506   2.865   2.428
  131OSM    H1S14012   1.462   2.967   2.427
  131OSM    H1T14013   1.617   2.871   2.442
  131OSM     NF14014   1.428   2.847   2.671
  131OSM    HNF14015   1.489   2.823   2.746
  131OSM    C2S14016   1.447   2.780   2.545
  131OSM    H2S14017   1.347   2.748   2.511
  131OSM    C3S14018   1.533   2.657   2.572
  131OSM    H3S14019   1.636   2.690   2.601
  131OSM     O314020   1.542   2.576   2.457
  131OSM    HO314021   1.504   2.632   2.387
  131OSM    C4S14022   1.466   2.579   2.683
  131OSM    H4S14023   1.367   2.537   2.659
  131OSM    C5S14024   1.513   2.562   2.808
  131OSM    H5S14025   1.610   2.607   2.834
  131OSM    C6S14026   1.445   2.485   2.918
  131OSM    H6S14027   1.476   2.379   2.909
  131OSM    H6T14028   1.333   2.486   2.916
  131OSM    C7S14029   1.495   2.539   3.054
  131OSM    H7S14030   1.475   2.647   3.065
  131OSM    H7T14031   1.605   2.524   3.056
  131OSM    C8S14032   1.435   2.468   3.175
  131OSM    H8S14033   1.453   2.360   3.166
  131OSM    H8T14034   1.326   2.492   3.175
  131OSM    C9S14035   1.496   2.499   3.310
  131OSM    H9S14036   1.533   2.602   3.302
  131OSM    H9T14037   1.586   2.432   3.324
  131OSM   C10S14038   1.392   2.498   3.426
  131OSM   H10S14039   1.348   2.401   3.451
  131OSM   H10T14040   1.305   2.559   3.397
  131OSM   C11S14041   1.442   2.568   3.552
  131OSM   H11S14042   1.486   2.662   3.526
  131OSM   H11T14043   1.534   2.539   3.596
  131OSM   C12S14044   1.356   2.557   3.677
  131OSM   H12S14045   1.359   2.456   3.718
  131OSM   H12T14046   1.251   2.577   3.650
  131OSM   C13S14047   1.419   2.637   3.791
  131OSM   H13S14048   1.406   2.744   3.769
  131OSM   H13T14049   1.527   2.615   3.799
  131OSM   C14S14050   1.364   2.616   3.931
  131OSM   H14S14051   1.417   2.690   3.994
  131OSM   H14T14052   1.383   2.513   3.969
  131OSM   C15S14053   1.217   2.647   3.940
  131OSM   H15S14054   1.183   2.609   4.040
  131OSM   H15T14055   1.169   2.593   3.855
  131OSM   C16S14056   1.179   2.791   3.916
  131OSM   H16S14057   1.203   2.820   3.814
  131OSM   H16T14058   1.222   2.851   3.999
  131OSM   C17S14059   1.036   2.820   3.912
  131OSM   H17S14060   0.983   2.747   3.848
  131OSM   H17T14061   0.993   2.920   3.889
  131OSM   C18S14062   1.017   2.805   4.052
  131OSM   H18S14063   0.997   2.696   4.077
  131OSM   H18T14064   0.926   2.867   4.064
  131OSM   H18U14065   1.069   2.858   4.133
  131OSM    C1F14066   1.342   2.939   2.696
  131OSM     OF14067   1.274   2.986   2.606
  131OSM    C2F14068   1.347   2.978   2.839
  131OSM    H2F14069   1.334   3.081   2.865
  131OSM    H2G14070   1.446   2.961   2.885
  131OSM    C3F14071   1.228   2.928   2.910
  131OSM    H3F14072   1.227   2.818   2.899
  131OSM    H3G14073   1.145   2.979   2.856
  131OSM    C4F14074   1.240   2.973   3.054
  131OSM    H4F14075   1.283   3.074   3.056
  131OSM    H4G14076   1.310   2.908   3.110
  131OSM    C5F14077   1.107   2.980   3.121
  131OSM    H5F14078   1.055   2.883   3.103
  131OSM    H5G14079   1.053   3.059   3.070
  131OSM    C6F14080   1.121   3.019   3.267
  131OSM    H6F14081   1.025   3.060   3.308
  131OSM    H6G14082   1.203   3.088   3.283
  131OSM    C7F14083   1.163   2.895   3.341
  131OSM    H7F14084   1.234   2.823   3.299
  131OSM    H7G14085   1.072   2.860   3.296
  131OSM    C8F14086   1.178   2.896   3.491
  131OSM    H8F14087   1.165   2.799   3.541
  131OSM    H8G14088   1.098   2.962   3.534
  131OSM    C9F14089   1.323   2.920   3.517
  131OSM    H9F14090   1.395   2.840   3.510
  131OSM   C10F14091   1.360   3.037   3.552
  131OSM   H10F14092   1.469   3.065   3.561
  131OSM   C11F14093   1.246   3.132   3.560
  131OSM   H11F14094   1.211   3.180   3.466
  131OSM   H11G14095   1.330   3.186   3.548
  131OSM   C12F14096   1.154   3.154   3.690
  131OSM   H12F14097   1.057   3.112   3.658
  131OSM   H12G14098   1.123   3.258   3.713
  131OSM   C13F14099   1.192   3.094   3.832
  131OSM   H13F14100   1.238   2.996   3.812
  131OSM   H13G14101   1.137   3.147   3.913
  131OSM   C14F14102   1.307   3.133   3.935
  131OSM   H14F14103   1.305   3.247   3.953
  131OSM   H14G14104   1.379   3.087   3.860
  131OSM   C15F14105   1.358   3.087   4.063
  131OSM   H15F14106   1.360   2.983   4.034
  131OSM   H15G14107   1.304   3.161   4.130
  131OSM   C16F14108   1.499   3.097   4.099
  131OSM   H16F14109   1.498   3.210   4.101
  131OSM   H16G14110   1.568   3.028   4.038
  131OSM   C17F14111   1.578   3.043   4.207
  131OSM   H17F14112   1.683   3.078   4.215
  131OSM   H17G14113   1.590   2.934   4.192
  131OSM   C18F14114   1.491   3.089   4.309
  131OSM   H18F14115   1.402   3.026   4.307
  131OSM   H18G14116   1.466   3.199   4.298
  131OSM   H18H14117   1.557   3.058   4.387
  132OSM      N14118   1.072   3.372   2.122
  132OSM    C1514119   1.061   3.242   2.194
  132OSM   H15A14120   0.967   3.194   2.171
  132OSM   H15B14121   1.066   3.256   2.301
  132OSM   H15C14122   1.146   3.180   2.167
  132OSM    C1414123   1.101   3.354   1.975
  132OSM   H14A14124   1.013   3.320   1.920
  132OSM   H14B14125   1.184   3.287   1.954
  132OSM   H14C14126   1.130   3.452   1.936
  132OSM    C1314127   0.941   3.445   2.141
  132OSM   H13A14128   0.858   3.380   2.164
  132OSM   H13B14129   0.910   3.504   2.054
  132OSM   H13C14130   0.951   3.523   2.216
  132OSM    C1214131   1.184   3.449   2.189
  132OSM   H12A14132   1.273   3.387   2.185
  132OSM   H12B14133   1.160   3.465   2.293
  132OSM    C1114134   1.225   3.589   2.138
  132OSM   H11A14135   1.266   3.583   2.036
  132OSM   H11B14136   1.307   3.618   2.209
  132OSM      P14137   1.140   3.835   2.174
  132OSM    O1314138   1.266   3.876   2.106
  132OSM    O1414139   1.018   3.902   2.133
  132OSM    O1114140   1.153   3.842   2.330
  132OSM    O1214141   1.116   3.680   2.144
  132OSM    C1S14142   1.261   3.911   2.391
  132OSM    H1S14143   1.262   4.019   2.378
  132OSM    H1T14144   1.356   3.882   2.344
  132OSM     NF14145   1.246   3.744   2.553
  132OSM    HNF14146   1.213   3.713   2.644
  132OSM    C2S14147   1.258   3.876   2.540
  132OSM    H2S14148   1.351   3.916   2.591
  132OSM    C3S14149   1.145   3.931   2.610
  132OSM    H3S14150   1.051   3.883   2.573
  132OSM     O314151   1.148   4.065   2.579
  132OSM    HO314152   1.194   4.076   2.494
  132OSM    C4S14153   1.162   3.906   2.758
  132OSM    H4S14154   1.218   3.984   2.811
  132OSM    C5S14155   1.098   3.810   2.828
  132OSM    H5S14156   1.017   3.755   2.777
  132OSM    C6S14157   1.108   3.783   2.977
  132OSM    H6S14158   1.168   3.693   2.995
  132OSM    H6T14159   1.005   3.760   3.013
  132OSM    C7S14160   1.174   3.881   3.076
  132OSM    H7S14161   1.163   3.989   3.075
  132OSM    H7T14162   1.268   3.916   3.037
  132OSM    C8S14163   1.163   3.831   3.220
  132OSM    H8S14164   1.217   3.916   3.268
  132OSM    H8T14165   1.207   3.731   3.220
  132OSM    C9S14166   1.031   3.830   3.298
  132OSM    H9S14167   0.945   3.815   3.231
  132OSM    H9T14168   1.026   3.926   3.349
  132OSM   C10S14169   1.023   3.786   3.442
  132OSM   H10S14170   0.921   3.811   3.483
  132OSM   H10T14171   1.101   3.839   3.502
  132OSM   C11S14172   1.056   3.645   3.444
  132OSM   H11S14173   1.164   3.644   3.411
  132OSM   H11T14174   0.995   3.601   3.363
  132OSM   C12S14175   1.037   3.589   3.583
  132OSM   H12S14176   1.104   3.644   3.653
  132OSM   H12T14177   1.069   3.484   3.576
  132OSM   C13S14178   0.894   3.586   3.639
  132OSM   H13S14179   0.824   3.551   3.559
  132OSM   H13T14180   0.858   3.686   3.672
  132OSM   C14S14181   0.881   3.485   3.754
  132OSM   H14S14182   0.967   3.415   3.755
  132OSM   H14T14183   0.789   3.426   3.732
  132OSM   C15S14184   0.870   3.543   3.895
  132OSM   H15S14185   0.846   3.651   3.896
  132OSM   H15T14186   0.967   3.526   3.948
  132OSM   C16S14187   0.762   3.469   3.973
  132OSM   H16S14188   0.777   3.360   3.966
  132OSM   H16T14189   0.668   3.499   3.923
  132OSM   C17S14190   0.753   3.510   4.119
  132OSM   H17S14191   0.717   3.617   4.118
  132OSM   H17T14192   0.853   3.508   4.164
  132OSM   C18S14193   0.669   3.416   4.206
  132OSM   H18S14194   0.570   3.400   4.164
  132OSM   H18T14195   0.653   3.453   4.307
  132OSM   H18U14196   0.689   3.310   4.207
  132OSM    C1F14197   1.349   3.695   2.502
  132OSM     OF14198   1.447   3.730   2.440
  132OSM    C2F14199   1.356   3.601   2.567
  132OSM    H2F14200   1.464   3.552   2.598
  132OSM    H2G14201   1.471   3.578   2.543
  132OSM    C3F14202   1.189   3.539   2.677
  132OSM    H3F14203   1.097   3.570   2.635
  132OSM    H3G14204   1.187   3.570   2.785
  132OSM    C4F14205   1.127   3.390   2.750
  132OSM    H4F14206   1.083   3.315   2.679
  132OSM    H4G14207   1.038   3.400   2.816
  132OSM    C5F14208   1.210   3.283   2.836
  132OSM    H5F14209   1.301   3.248   2.794
  132OSM    H5G14210   1.167   3.181   2.835
  132OSM    C6F14211   1.290   3.324   2.954
  132OSM    H6F14212   1.356   3.409   2.946
  132OSM    H6G14213   1.366   3.246   2.978
  132OSM    C7F14214   1.181   3.351   3.046
  132OSM    H7F14215   1.115   3.263   3.040
  132OSM    H7G14216   1.128   3.441   3.006
  132OSM    C8F14217   1.233   3.380   3.180
  132OSM    H8F14218   1.148   3.382   3.250
  132OSM    H8G14219   1.277   3.483   3.167
  132OSM    C9F14220   1.339   3.276   3.209
  132OSM    H9F14221   1.332   3.175   3.184
  132OSM   C10F14222   1.434   3.292   3.288
  132OSM   H10F14223   1.488   3.218   3.353
  132OSM   C11F14224   1.414   3.426   3.351
  132OSM   H11F14225   1.341   3.504   3.337
  132OSM   H11G14226   1.521   3.457   3.341
  132OSM   C12F14227   1.326   3.441   3.502
  132OSM   H12F14228   1.380   3.340   3.482
  132OSM   H12G14229   1.245   3.470   3.539
  132OSM   C13F14230   1.401   3.537   3.746
  132OSM   H13F14231   1.397   3.652   3.737
  132OSM   H13G14232   1.541   3.544   3.747
  132OSM   C14F14233   1.372   3.518   3.855
  132OSM   H14F14234   1.469   3.472   3.874
  132OSM   H14G14235   1.278   3.477   3.855
  132OSM   C15F14236   1.417   3.616   3.920
  132OSM   H15F14237   1.512   3.665   3.864
  132OSM   H15G14238   1.430   3.550   4.015
  132OSM   C16F14239   1.354   3.736   3.928
  132OSM   H16F14240   1.321   3.781   3.836
  132OSM   H16G14241   1.431   3.815   3.949
  132OSM   C17F14242   1.255   3.683   4.017
  132OSM   H17F14243   1.273   3.669   4.122
  132OSM   H17G14244   1.196   3.597   3.987
  132OSM   C18F14245   1.201   3.801   4.033
  132OSM   H18F14246   1.133   3.793   4.120
  132OSM   H18G14247   1.151   3.848   3.947
  132OSM   H18H14248   1.283   3.875   4.065
  133OSM      N14249   6.328   3.517   2.006
  133OSM    C1514250   6.451   3.583   2.059
  133OSM   H15A14251   6.430   3.688   2.084
  133OSM   H15B14252   6.535   3.583   1.991
  133OSM   H15C14253   6.484   3.539   2.153
  133OSM    C1414254   6.283   3.589   1.882
  133OSM   H14A14255   6.178   3.576   1.862
  133OSM   H14B14256   6.334   3.553   1.793
  133OSM   H14C14257   6.302   3.695   1.890
  133OSM    C1314258   6.355   3.374   1.971
  133OSM   H13A14259   6.391   3.319   2.059
  133OSM   H13B14260   6.429   3.368   1.893
  133OSM   H13C14261   6.265   3.324   1.937
  133OSM    C1214262   6.217   3.522   2.110
  133OSM   H12A14263   6.136   3.461   2.072
  133OSM   H12B14264   6.187   3.625   2.117
  133OSM    C1114265   6.240   3.478   2.258
  133OSM   H11A14266   6.148   3.506   2.316
  133OSM   H11B14267   6.321   3.539   2.303
  133OSM      P14268   6.155   3.230   2.264
  133OSM    O1314269   6.039   3.297   2.200
  133OSM    O1414270   6.212   3.112   2.195
  133OSM    O1114271   6.126   3.196   2.416
  133OSM    O1214272   6.270   3.340   2.273
  133OSM    C1S14273   6.236   3.186   2.510
  133OSM    H1S14274   6.332   3.171   2.459
  133OSM    H1T14275   6.220   3.100   2.576
  133OSM     NF14276   6.360   3.288   2.704
  133OSM    HNF14277   6.321   3.281   2.794
  133OSM    C2S14278   6.261   3.307   2.605
  133OSM    H2S14279   6.284   3.391   2.535
  133OSM    C3S14280   6.140   3.339   2.683
  133OSM    H3S14281   6.086   3.260   2.734
  133OSM     O314282   6.045   3.362   2.596
  133OSM    HO314283   6.078   3.358   2.504
  133OSM    C4S14284   6.143   3.464   2.763
  133OSM    H4S14285   6.118   3.558   2.711
  133OSM    C5S14286   6.156   3.464   2.896
  133OSM    H5S14287   6.164   3.366   2.946
  133OSM    C6S14288   6.157   3.589   2.980
  133OSM    H6S14289   6.115   3.565   3.080
  133OSM    H6T14290   6.107   3.676   2.934
  133OSM    C7S14291   6.295   3.638   3.006
  133OSM    H7S14292   6.306   3.745   3.038
  133OSM    H7T14293   6.358   3.620   2.918
  133OSM    C8S14294   6.345   3.559   3.119
  133OSM    H8S14295   6.445   3.594   3.119
  133OSM    H8T14296   6.365   3.451   3.102
  133OSM    C9S14297   6.288   3.607   3.253
  133OSM    H9S14298   6.197   3.552   3.274
  133OSM    H9T14299   6.304   3.717   3.276
  133OSM   C10S14300   6.356   3.535   3.358
  133OSM   H10S14301   6.438   3.603   3.325
  133OSM   H10T14302   6.374   3.430   3.328
  133OSM   C11S14303   6.330   3.532   3.510
  133OSM   H11S14304   6.322   3.639   3.530
  133OSM   H11T14305   6.404   3.480   3.582
  133OSM   C12S14306   6.210   3.463   3.540
  133OSM   H12S14307   6.238   3.364   3.501
  133OSM   H12T14308   6.148   3.525   3.474
  133OSM   C13S14309   6.174   3.460   3.687
  133OSM   H13S14310   6.253   3.400   3.738
  133OSM   H13T14311   6.076   3.409   3.689
  133OSM   C14S14312   6.157   3.590   3.765
  133OSM   H14S14313   6.084   3.661   3.722
  133OSM   H14T14314   6.255   3.637   3.758
  133OSM   C15S14315   6.133   3.567   3.914
  133OSM   H15S14316   6.036   3.516   3.928
  133OSM   H15T14317   6.126   3.666   3.966
  133OSM   C16S14318   6.239   3.475   3.978
  133OSM   H16S14319   6.236   3.376   3.932
  133OSM   H16T14320   6.210   3.451   4.077
  133OSM   C17S14321   6.383   3.525   3.983
  133OSM   H17S14322   6.386   3.626   4.032
  133OSM   H17T14323   6.409   3.537   3.876
  133OSM   C18S14324   6.486   3.427   4.044
  133OSM   H18S14325   6.485   3.330   3.995
  133OSM   H18T14326   6.468   3.401   4.150
  133OSM   H18U14327   6.588   3.466   4.037
  133OSM    C1F14328   6.489   3.274   2.687
  133OSM     OF14329   6.546   3.320   2.591
  133OSM    C2F14330   6.558   3.205   2.800
  133OSM    H2F14331   6.596   3.284   2.867
  133OSM    H2G14332   6.639   3.141   2.759
  133OSM    C3F14333   6.467   3.112   2.884
  133OSM    H3F14334   6.426   3.033   2.816
  133OSM    H3G14335   6.382   3.171   2.925
  133OSM    C4F14336   6.542   3.046   3.002
  133OSM    H4F14337   6.652   3.044   2.987
  133OSM    H4G14338   6.506   2.942   3.003
  133OSM    C5F14339   6.508   3.103   3.140
  133OSM    H5F14340   6.403   3.080   3.162
  133OSM    H5G14341   6.514   3.212   3.130
  133OSM    C6F14342   6.594   3.055   3.259
  133OSM    H6F14343   6.699   3.073   3.231
  133OSM    H6G14344   6.578   2.947   3.278
  133OSM    C7F14345   6.564   3.140   3.385
  133OSM    H7F14346   6.459   3.140   3.399
  133OSM    H7G14347   6.594   3.242   3.366
  133OSM    C8F14348   6.608   3.099   3.525
  133OSM    H8F14349   6.716   3.080   3.520
  133OSM    H8G14350   6.554   3.003   3.543
  133OSM    C9F14351   6.573   3.202   3.632
  133OSM    H9F14352   6.631   3.293   3.643
  133OSM   C10F14353   6.481   3.184   3.726
  133OSM   H10F14354   6.467   3.255   3.809
  133OSM   C11F14355   6.404   3.061   3.737
  133OSM   H11F14356   6.477   2.997   3.784
  133OSM   H11G14357   6.374   3.004   3.645
  133OSM   C12F14358   6.272   3.095   3.800
  133OSM   H12F14359   6.216   3.004   3.789
  133OSM   H12G14360   6.232   3.192   3.758
  133OSM   C13F14361   6.230   3.096   3.944
  133OSM   H13F14362   6.147   3.164   3.969
  133OSM   H13G14363   6.310   3.172   3.957
  133OSM   C14F14364   6.217   2.956   4.029
  133OSM   H14F14365   6.279   2.860   3.987
  133OSM   H14G14366   6.124   2.914   4.041
  133OSM   C15F14367   6.201   3.002   4.181
  133OSM   H15F14368   6.100   3.031   4.209
  133OSM   H15G14369   6.278   3.069   4.216
  133OSM   C16F14370   6.244   2.938   4.308
  133OSM   H16F14371   6.331   2.924   4.297
  133OSM   H16G14372   6.242   2.832   4.292
  133OSM   C17F14373   6.263   2.994   4.451
  133OSM   H17F14374   6.290   2.916   4.528
  133OSM   H17G14375   6.163   3.027   4.471
  133OSM   C18F14376   6.356   3.101   4.483
  133OSM   H18F14377   6.377   3.097   4.592
  133OSM   H18G14378   6.300   3.186   4.463
  133OSM   H18H14379   6.447   3.092   4.423
  134OSM      N14380   5.280   5.646   2.078
  134OSM    C1514381   5.275   5.506   2.025
  134OSM   H15A14382   5.229   5.501   1.927
  134OSM   H15B14383   5.219   5.444   2.092
  134OSM   H15C14384   5.377   5.466   2.018
  134OSM    C1414385   5.357   5.728   1.983
  134OSM   H14A14386   5.323   5.716   1.881
  134OSM   H14B14387   5.463   5.700   1.987
  134OSM   H14C14388   5.352   5.832   2.011
  134OSM    C1314389   5.144   5.702   2.094
  134OSM   H13A14390   5.148   5.793   2.151
  134OSM   H13B14391   5.078   5.631   2.143
  134OSM   H13C14392   5.102   5.727   1.998
  134OSM    C1214393   5.346   5.649   2.216
  134OSM   H12A14394   5.301   5.571   2.277
  134OSM   H12B14395   5.325   5.746   2.258
  134OSM    C1114396   5.497   5.631   2.231
  134OSM   H11A14397   5.516   5.639   2.342
  134OSM   H11B14398   5.557   5.712   2.186
  134OSM      P14399   5.674   5.447   2.197
  134OSM    O1314400   5.671   5.304   2.172
  134OSM    O1414401   5.780   5.521   2.123
  134OSM    O1114402   5.688   5.462   2.354
  134OSM    O1214403   5.531   5.506   2.172
  134OSM    C1S14404   5.585   5.396   2.430
  134OSM    H1S14405   5.564   5.293   2.394
  134OSM    H1T14406   5.493   5.456   2.428
  134OSM     NF14407   5.639   5.511   2.642
  134OSM    HNF14408   5.733   5.545   2.647
  134OSM    C2S14409   5.618   5.377   2.579
  134OSM    H2S14410   5.543   5.315   2.631
  134OSM    C3S14411   5.738   5.291   2.583
  134OSM    H3S14412   5.816   5.324   2.538
  134OSM     O314413   5.745   5.173   2.507
  134OSM    HO314414   5.712   5.207   2.423
  134OSM    C4S14415   5.761   5.296   2.726
  134OSM    H4S14416   5.797   5.387   2.774
  134OSM    C5S14417   5.786   5.193   2.789
  134OSM    H5S14418   5.781   5.109   2.722
  134OSM    C6S14419   5.818   5.187   2.933
  134OSM    H6S14420   5.913   5.146   2.907
  134OSM    H6T14421   5.757   5.118   2.995
  134OSM    C7S14422   5.924   5.236   3.027
  134OSM    H7S14423   5.969   5.323   2.977
  134OSM    H7T14424   6.005   5.167   3.067
  134OSM    C8S14425   5.833   5.279   3.129
  134OSM    H8S14426   5.750   5.331   3.075
  134OSM    H8T14427   5.897   5.347   3.175
  134OSM    C9S14428   5.803   5.189   3.246
  134OSM    H9S14429   5.901   5.155   3.289
  134OSM    H9T14430   5.734   5.115   3.209
  134OSM   C10S14431   5.736   5.264   3.360
  134OSM   H10S14432   5.640   5.310   3.327
  134OSM   H10T14433   5.833   5.320   3.369
  134OSM   C11S14434   5.733   5.254   3.516
  134OSM   H11S14435   5.833   5.233   3.557
  134OSM   H11T14436   5.660   5.177   3.537
  134OSM   C12S14437   5.625   5.309   3.608
  134OSM   H12S14438   5.530   5.320   3.550
  134OSM   H12T14439   5.664   5.405   3.638
  134OSM   C13S14440   5.600   5.215   3.730
  134OSM   H13S14441   5.696   5.199   3.784
  134OSM   H13T14442   5.561   5.114   3.699
  134OSM   C14S14443   5.496   5.272   3.818
  134OSM   H14S14444   5.448   5.191   3.877
  134OSM   H14T14445   5.421   5.316   3.749
  134OSM   C15S14446   5.553   5.378   3.910
  134OSM   H15S14447   5.475   5.430   3.965
  134OSM   H15T14448   5.599   5.459   3.851
  134OSM   C16S14449   5.641   5.315   4.015
  134OSM   H16S14450   5.736   5.278   3.970
  134OSM   H16T14451   5.585   5.237   4.070
  134OSM   C17S14452   5.676   5.408   4.122
  134OSM   H17S14453   5.728   5.371   4.212
  134OSM   H17T14454   5.594   5.482   4.145
  134OSM   C18S14455   5.777   5.484   4.061
  134OSM   H18S14456   5.794   5.551   4.141
  134OSM   H18T14457   5.725   5.545   3.989
  134OSM   H18U14458   5.879   5.458   4.024
  134OSM    C1F14459   5.544   5.598   2.646
  134OSM     OF14460   5.429   5.558   2.639
  134OSM    C2F14461   5.585   5.743   2.653
  134OSM    H2F14462   5.605   5.780   2.551
  134OSM    H2G14463   5.679   5.751   2.712
  134OSM    C3F14464   5.478   5.834   2.712
  134OSM    H3F14465   5.385   5.824   2.651
  134OSM    H3G14466   5.507   5.942   2.713
  134OSM    C4F14467   5.439   5.794   2.850
  134OSM    H4F14468   5.511   5.826   2.929
  134OSM    H4G14469   5.420   5.685   2.857
  134OSM    C5F14470   5.313   5.864   2.882
  134OSM    H5F14471   5.225   5.829   2.826
  134OSM    H5G14472   5.317   5.971   2.874
  134OSM    C6F14473   5.307   5.849   3.028
  134OSM    H6F14474   5.237   5.917   3.059
  134OSM    H6G14475   5.372   5.912   3.087
  134OSM    C7F14476   5.300   5.703   3.064
  134OSM    H7F14477   5.397   5.667   3.083
  134OSM    H7G14478   5.252   5.653   2.976
  134OSM    C8F14479   5.270   5.655   3.213
  134OSM    H8F14480   5.165   5.690   3.148
  134OSM    H8G14481   5.255   5.756   3.252
  134OSM    C9F14482   5.261   5.492   3.315
  134OSM    H9F14483   5.160   5.414   3.300
  134OSM   C10F14484   5.260   5.450   3.437
  134OSM   H10F14485   5.170   5.377   3.452
  134OSM   C11F14486   5.275   5.575   3.521
  134OSM   H11F14487   5.235   5.555   3.618
  134OSM   H11G14488   5.239   5.681   3.498
  134OSM   C12F14489   5.410   5.617   3.510
  134OSM   H12F14490   5.415   5.642   3.400
  134OSM   H12G14491   5.442   5.520   3.553
  134OSM   C13F14492   5.425   5.732   3.605
  134OSM   H13F14493   5.365   5.813   3.581
  134OSM   H13G14494   5.523   5.774   3.589
  134OSM   C14F14495   5.375   5.709   3.748
  134OSM   H14F14496   5.339   5.606   3.761
  134OSM   H14G14497   5.295   5.778   3.780
  134OSM   C15F14498   5.493   5.702   3.836
  134OSM   H15F14499   5.551   5.643   3.768
  134OSM   H15G14500   5.483   5.645   3.929
  134OSM   C16F14501   5.555   5.827   3.877
  134OSM   H16F14502   5.552   5.888   3.791
  134OSM   H16G14503   5.662   5.840   3.903
  134OSM   C17F14504   5.464   5.861   3.983
  134OSM   H17F14505   5.472   5.814   4.078
  134OSM   H17G14506   5.356   5.862   3.960
  134OSM   C18F14507   5.509   5.983   4.024
  134OSM   H18F14508   5.457   6.025   4.111
  134OSM   H18G14509   5.463   6.017   3.951
  134OSM   H18H14510   5.606   6.030   3.995
  135OSM      N14511   1.168   4.972   2.260
  135OSM    C1514512   1.116   4.903   2.382
  135OSM   H15A14513   1.194   4.891   2.455
  135OSM   H15B14514   1.078   4.805   2.356
  135OSM   H15C14515   1.033   4.957   2.427
  135OSM    C1414516   1.055   4.999   2.166
  135OSM   H14A14517   1.007   4.907   2.135
  135OSM   H14B14518   1.100   5.046   2.079
  135OSM   H14C14519   0.981   5.068   2.207
  135OSM    C1314520   1.228   5.101   2.303
  135OSM   H13A14521   1.152   5.166   2.344
  135OSM   H13B14522   1.274   5.153   2.219
  135OSM   H13C14523   1.307   5.084   2.375
  135OSM    C1214524   1.274   4.884   2.194
  135OSM   H12A14525   1.238   4.782   2.197
  135OSM   H12B14526   1.365   4.889   2.254
  135OSM    C1114527   1.315   4.906   2.047
  135OSM   H11A14528   1.227   4.906   1.983
  135OSM   H11B14529   1.371   4.814   2.015
  135OSM      P14530   1.537   5.029   2.060
  135OSM    O1314531   1.579   4.899   2.011
  135OSM    O1414532   1.608   5.149   2.011
  135OSM    O1114533   1.540   5.024   2.215
  135OSM    O1214534   1.384   5.030   2.028
  135OSM    C1S14535   1.665   4.984   2.274
  135OSM    H1S14536   1.747   5.055   2.248
  135OSM    H1T14537   1.696   4.881   2.246
  135OSM     NF14538   1.539   4.891   2.462
  135OSM    HNF14539   1.456   4.936   2.492
  135OSM    C2S14540   1.647   4.978   2.425
  135OSM    H2S14541   1.737   4.942   2.473
  135OSM    C3S14542   1.627   5.119   2.472
  135OSM    H3S14543   1.542   5.166   2.422
  135OSM     O314544   1.738   5.199   2.441
  135OSM    HO314545   1.790   5.162   2.370
  135OSM    C4S14546   1.598   5.116   2.617
  135OSM    H4S14547   1.673   5.070   2.678
  135OSM    C5S14548   1.498   5.172   2.682
  135OSM    H5S14549   1.432   5.236   2.624
  135OSM    C6S14550   1.480   5.162   2.830
  135OSM    H6S14551   1.512   5.259   2.874
  135OSM    H6T14552   1.541   5.083   2.880
  135OSM    C7S14553   1.336   5.134   2.869
  135OSM    H7S14554   1.325   5.024   2.878
  135OSM    H7T14555   1.264   5.168   2.790
  135OSM    C8S14556   1.301   5.195   3.005
  135OSM    H8S14557   1.191   5.181   3.017
  135OSM    H8T14558   1.321   5.305   3.008
  135OSM    C9S14559   1.371   5.125   3.123
  135OSM    H9S14560   1.474   5.166   3.135
  135OSM    H9T14561   1.382   5.018   3.097
  135OSM   C10S14562   1.295   5.142   3.257
  135OSM   H10S14563   1.189   5.111   3.253
  135OSM   H10T14564   1.294   5.252   3.275
  135OSM   C11S14565   1.358   5.069   3.377
  135OSM   H11S14566   1.458   5.115   3.396
  135OSM   H11T14567   1.378   4.962   3.350
  135OSM   C12S14568   1.272   5.078   3.505
  135OSM   H12S14569   1.200   4.993   3.515
  135OSM   H12T14570   1.211   5.171   3.504
  135OSM   C13S14571   1.351   5.090   3.635
  135OSM   H13S14572   1.437   5.020   3.634
  135OSM   H13T14573   1.285   5.060   3.719
  135OSM   C14S14574   1.389   5.238   3.651
  135OSM   H14S14575   1.308   5.310   3.648
  135OSM   H14T14576   1.453   5.270   3.565
  135OSM   C15S14577   1.446   5.280   3.783
  135OSM   H15S14578   1.491   5.378   3.780
  135OSM   H15T14579   1.542   5.261   3.769
  135OSM   C16S14580   1.421   5.200   3.912
  135OSM   H16S14581   1.497   5.210   3.991
  135OSM   H16T14582   1.423   5.090   3.897
  135OSM   C17S14583   1.285   5.243   3.959
  135OSM   H17S14584   1.265   5.180   4.047
  135OSM   H17T14585   1.225   5.232   3.868
  135OSM   C18S14586   1.249   5.384   3.993
  135OSM   H18S14587   1.177   5.426   4.062
  135OSM   H18T14588   1.301   5.461   3.929
  135OSM   H18U14589   1.294   5.368   4.092
  135OSM    C1F14590   1.548   4.759   2.445
  135OSM     OF14591   1.641   4.710   2.384
  135OSM    C2F14592   1.435   4.678   2.497
  135OSM    H2F14593   1.388   4.622   2.412
  135OSM    H2G14594   1.364   4.750   2.541
  135OSM    C3F14595   1.479   4.579   2.605
  135OSM    H3F14596   1.579   4.608   2.646
  135OSM    H3G14597   1.492   4.478   2.562
  135OSM    C4F14598   1.373   4.552   2.712
  135OSM    H4F14599   1.370   4.443   2.738
  135OSM    H4G14600   1.274   4.578   2.671
  135OSM    C5F14601   1.397   4.631   2.838
  135OSM    H5F14602   1.303   4.632   2.896
  135OSM    H5G14603   1.428   4.735   2.813
  135OSM    C6F14604   1.505   4.567   2.919
  135OSM    H6F14605   1.603   4.570   2.864
  135OSM    H6G14606   1.487   4.460   2.942
  135OSM    C7F14607   1.527   4.647   3.044
  135OSM    H7F14608   1.559   4.750   3.036
  135OSM    H7G14609   1.627   4.613   3.063
  135OSM    C8F14610   1.410   4.681   3.139
  135OSM    H8F14611   1.363   4.766   3.087
  135OSM    H8G14612   1.463   4.732   3.223
  135OSM    C9F14613   1.309   4.576   3.188
  135OSM    H9F14614   1.249   4.528   3.110
  135OSM   C10F14615   1.296   4.524   3.314
  135OSM   H10F14616   1.240   4.429   3.320
  135OSM   C11F14617   1.383   4.557   3.438
  135OSM   H11F14618   1.457   4.640   3.429
  135OSM   H11G14619   1.454   4.482   3.481
  135OSM   C12F14620   1.342   4.556   3.568
  135OSM   H12F14621   1.440   4.586   3.624
  135OSM   H12G14622   1.301   4.451   3.585
  135OSM   C13F14623   1.259   4.669   3.558
  135OSM   H13F14624   1.165   4.631   3.515
  135OSM   H13G14625   1.304   4.744   3.486
  135OSM   C14F14626   1.262   4.719   3.697
  135OSM   H14F14627   1.175   4.785   3.694
  135OSM   H14G14628   1.358   4.775   3.708
  135OSM   C15F14629   1.257   4.610   3.806
  135OSM   H15F14630   1.357   4.561   3.814
  135OSM   H15G14631   1.184   4.531   3.778
  135OSM   C16F14632   1.230   4.661   3.948
  135OSM   H16F14633   1.247   4.581   4.024
  135OSM   H16G14634   1.123   4.687   3.956
  135OSM   C17F14635   1.311   4.785   3.991
  135OSM   H17F14636   1.260   4.826   4.081
  135OSM   H17G14637   1.304   4.866   3.915
  135OSM   C18F14638   1.456   4.755   4.027
  135OSM   H18F14639   1.503   4.675   3.966
  135OSM   H18G14640   1.463   4.721   4.133
  135OSM   H18H14641   1.516   4.846   4.014
  136OSM      N14642   3.177   0.805   2.273
  136OSM    C1514643   3.083   0.701   2.326
  136OSM   H15A14644   3.037   0.638   2.249
  136OSM   H15B14645   3.001   0.742   2.384
  136OSM   H15C14646   3.136   0.631   2.389
  136OSM    C1414647   3.104   0.931   2.241
  136OSM   H14A14648   3.034   0.956   2.318
  136OSM   H14B14649   3.050   0.925   2.146
  136OSM   H14C14650   3.176   1.014   2.227
  136OSM    C1314651   3.280   0.838   2.377
  136OSM   H13A14652   3.236   0.887   2.462
  136OSM   H13B14653   3.351   0.911   2.336
  136OSM   H13C14654   3.337   0.751   2.407
  136OSM    C1214655   3.249   0.749   2.151
  136OSM   H12A14656   3.177   0.722   2.075
  136OSM   H12B14657   3.298   0.657   2.181
  136OSM    C1114658   3.361   0.833   2.083
  136OSM   H11A14659   3.390   0.787   1.986
  136OSM   H11B14660   3.448   0.822   2.151
  136OSM      P14661   3.453   1.067   2.032
  136OSM    O1314662   3.581   0.993   2.017
  136OSM    O1414663   3.418   1.165   1.927
  136OSM    O1114664   3.458   1.142   2.172
  136OSM    O1214665   3.329   0.970   2.061
  136OSM    C1S14666   3.537   1.090   2.279
  136OSM    H1S14667   3.646   1.108   2.264
  136OSM    H1T14668   3.523   0.980   2.288
  136OSM     NF14669   3.547   1.071   2.524
  136OSM    HNF14670   3.471   1.022   2.564
  136OSM    C2S14671   3.506   1.155   2.416
  136OSM    H2S14672   3.552   1.257   2.422
  136OSM    C3S14673   3.363   1.175   2.435
  136OSM    H3S14674   3.295   1.093   2.399
  136OSM     O314675   3.322   1.287   2.363
  136OSM    HO314676   3.394   1.323   2.311
  136OSM    C4S14677   3.333   1.197   2.584
  136OSM    H4S14678   3.352   1.301   2.610
  136OSM    C5S14679   3.265   1.114   2.668
  136OSM    H5S14680   3.233   1.018   2.628
  136OSM    C6S14681   3.224   1.127   2.813
  136OSM    H6S14682   3.190   1.029   2.851
  136OSM    H6T14683   3.128   1.181   2.833
  136OSM    C7S14684   3.330   1.184   2.903
  136OSM    H7S14685   3.368   1.283   2.868
  136OSM    H7T14686   3.415   1.113   2.912
  136OSM    C8S14687   3.266   1.200   3.038
  136OSM    H8S14688   3.231   1.101   3.076
  136OSM    H8T14689   3.180   1.271   3.036
  136OSM    C9S14690   3.364   1.245   3.138
  136OSM    H9S14691   3.403   1.346   3.108
  136OSM    H9T14692   3.455   1.181   3.139
  136OSM   C10S14693   3.286   1.235   3.273
  136OSM   H10S14694   3.238   1.328   3.306
  136OSM   H10T14695   3.374   1.241   3.324
  136OSM   C11S14696   3.288   1.108   3.365
  136OSM   H11S14697   3.381   1.054   3.335
  136OSM   H11T14698   3.197   1.062   3.327
  136OSM   C12S14699   3.275   1.116   3.524
  136OSM   H12S14700   3.214   1.036   3.567
  136OSM   H12T14701   3.226   1.214   3.546
  136OSM   C13S14702   3.402   1.100   3.613
  136OSM   H13S14703   3.397   1.205   3.650
  136OSM   H13T14704   3.495   1.068   3.562
  136OSM   C14S14705   3.416   1.064   3.757
  136OSM   H14S14706   3.397   0.957   3.762
  136OSM   H14T14707   3.344   1.128   3.814
  136OSM   C15S14708   3.556   1.091   3.813
  136OSM   H15S14709   3.565   1.197   3.836
  136OSM   H15T14710   3.647   1.067   3.754
  136OSM   C16S14711   3.561   1.042   3.953
  136OSM   H16S14712   3.630   1.113   3.999
  136OSM   H16T14713   3.596   0.937   3.954
  136OSM   C17S14714   3.444   1.076   4.040
  136OSM   H17S14715   3.359   1.022   3.995
  136OSM   H17T14716   3.423   1.186   4.036
  136OSM   C18S14717   3.462   1.034   4.184
  136OSM   H18S14718   3.541   1.092   4.236
  136OSM   H18T14719   3.488   0.927   4.193
  136OSM   H18U14720   3.364   1.053   4.234
  136OSM    C1F14721   3.668   1.065   2.572
  136OSM     OF14722   3.762   1.118   2.517
  136OSM    C2F14723   3.677   0.979   2.693
  136OSM    H2F14724   3.718   0.881   2.659
  136OSM    H2G14725   3.577   0.968   2.737
  136OSM    C3F14726   3.766   1.034   2.802
  136OSM    H3F14727   3.738   1.136   2.837
  136OSM    H3G14728   3.858   1.049   2.748
  136OSM    C4F14729   3.788   0.931   2.915
  136OSM    H4F14730   3.845   0.972   3.001
  136OSM    H4G14731   3.848   0.846   2.874
  136OSM    C5F14732   3.659   0.876   2.970
  136OSM    H5F14733   3.604   0.817   2.893
  136OSM    H5G14734   3.593   0.958   3.005
  136OSM    C6F14735   3.685   0.781   3.085
  136OSM    H6F14736   3.731   0.833   3.172
  136OSM    H6G14737   3.763   0.710   3.050
  136OSM    C7F14738   3.555   0.703   3.112
  136OSM    H7F14739   3.565   0.630   3.188
  136OSM    H7G14740   3.525   0.643   3.024
  136OSM    C8F14741   3.437   0.777   3.175
  136OSM    H8F14742   3.353   0.702   3.171
  136OSM    H8G14743   3.420   0.864   3.112
  136OSM    C9F14744   3.472   0.823   3.313
  136OSM    H9F14745   3.580   0.830   3.323
  136OSM   C10F14746   3.395   0.831   3.425
  136OSM   H10F14747   3.442   0.841   3.524
  136OSM   C11F14748   3.252   0.792   3.434
  136OSM   H11F14749   3.234   0.766   3.330
  136OSM   H11G14750   3.193   0.882   3.450
  136OSM   C12F14751   3.185   0.692   3.534
  136OSM   H12F14752   3.204   0.586   3.514
  136OSM   H12G14753   3.077   0.699   3.513
  136OSM   C13F14754   3.189   0.737   3.678
  136OSM   H13F14755   3.175   0.847   3.673
  136OSM   H13G14756   3.288   0.717   3.724
  136OSM   C14F14757   3.071   0.684   3.761
  136OSM   H14F14758   3.072   0.573   3.761
  136OSM   H14G14759   2.976   0.719   3.715
  136OSM   C15F14760   3.078   0.738   3.904
  136OSM   H15F14761   2.994   0.702   3.966
  136OSM   H15G14762   3.067   0.848   3.899
  136OSM   C16F14763   3.215   0.710   3.965
  136OSM   H16F14764   3.276   0.803   3.969
  136OSM   H16G14765   3.267   0.626   3.913
  136OSM   C17F14766   3.207   0.669   4.105
  136OSM   H17F14767   3.126   0.593   4.104
  136OSM   H17G14768   3.173   0.754   4.169
  136OSM   C18F14769   3.338   0.607   4.156
  136OSM   H18F14770   3.429   0.663   4.135
  136OSM   H18G14771   3.344   0.500   4.127
  136OSM   H18H14772   3.337   0.610   4.265
  137OSM      N14773   0.680   4.394   2.080
  137OSM    C1514774   0.568   4.309   2.025
  137OSM   H15A14775   0.600   4.205   2.025
  137OSM   H15B14776   0.536   4.336   1.926
  137OSM   H15C14777   0.482   4.317   2.090
  137OSM    C1414778   0.653   4.540   2.070
  137OSM   H14A14779   0.586   4.574   2.149
  137OSM   H14B14780   0.615   4.565   1.972
  137OSM   H14C14781   0.747   4.593   2.081
  137OSM    C1314782   0.681   4.362   2.227
  137OSM   H13A14783   0.585   4.378   2.274
  137OSM   H13B14784   0.755   4.420   2.282
  137OSM   H13C14785   0.709   4.257   2.240
  137OSM    C1214786   0.813   4.366   2.010
  137OSM   H12A14787   0.887   4.439   2.040
  137OSM   H12B14788   0.801   4.380   1.903
  137OSM    C1114789   0.882   4.228   2.029
  137OSM   H11A14790   0.973   4.222   1.964
  137OSM   H11B14791   0.811   4.151   1.994
  137OSM      P14792   1.027   4.288   2.242
  137OSM    O1314793   1.145   4.205   2.274
  137OSM    O1414794   1.049   4.412   2.166
  137OSM    O1114795   0.948   4.335   2.371
  137OSM    O1214796   0.916   4.204   2.164
  137OSM    C1S14797   0.911   4.255   2.483
  137OSM    H1S14798   0.994   4.190   2.506
  137OSM    H1T14799   0.824   4.189   2.461
  137OSM     NF14800   0.867   4.241   2.721
  137OSM    HNF14801   0.776   4.221   2.753
  137OSM    C2S14802   0.885   4.334   2.614
  137OSM    H2S14803   0.973   4.399   2.638
  137OSM    C3S14804   0.761   4.421   2.602
  137OSM    H3S14805   0.676   4.355   2.568
  137OSM     O314806   0.779   4.526   2.508
  137OSM    HO314807   0.869   4.509   2.477
  137OSM    C4S14808   0.723   4.480   2.736
  137OSM    H4S14809   0.799   4.543   2.783
  137OSM    C5S14810   0.607   4.458   2.802
  137OSM    H5S14811   0.532   4.392   2.759
  137OSM    C6S14812   0.568   4.514   2.936
  137OSM    H6S14813   0.475   4.463   2.966
  137OSM    H6T14814   0.534   4.620   2.925
  137OSM    C7S14815   0.674   4.498   3.048
  137OSM    H7S14816   0.776   4.535   3.024
  137OSM    H7T14817   0.688   4.390   3.070
  137OSM    C8S14818   0.633   4.569   3.177
  137OSM    H8S14819   0.531   4.535   3.200
  137OSM    H8T14820   0.621   4.679   3.170
  137OSM    C9S14821   0.728   4.532   3.291
  137OSM    H9S14822   0.823   4.589   3.283
  137OSM    H9T14823   0.768   4.432   3.275
  137OSM   C10S14824   0.652   4.531   3.426
  137OSM   H10S14825   0.593   4.442   3.444
  137OSM   H10T14826   0.558   4.589   3.409
  137OSM   C11S14827   0.739   4.569   3.552
  137OSM   H11S14828   0.772   4.675   3.566
  137OSM   H11T14829   0.838   4.520   3.551
  137OSM   C12S14830   0.663   4.539   3.679
  137OSM   H12S14831   0.645   4.432   3.689
  137OSM   H12T14832   0.565   4.595   3.683
  137OSM   C13S14833   0.741   4.585   3.797
  137OSM   H13S14834   0.738   4.691   3.764
  137OSM   H13T14835   0.847   4.564   3.820
  137OSM   C14S14836   0.666   4.558   3.924
  137OSM   H14S14837   0.566   4.608   3.912
  137OSM   H14T14838   0.728   4.596   4.010
  137OSM   C15S14839   0.645   4.417   3.966
  137OSM   H15S14840   0.729   4.359   3.927
  137OSM   H15T14841   0.559   4.384   3.908
  137OSM   C16S14842   0.625   4.398   4.116
  137OSM   H16S14843   0.534   4.450   4.156
  137OSM   H16T14844   0.714   4.437   4.172
  137OSM   C17S14845   0.599   4.253   4.147
  137OSM   H17S14846   0.496   4.224   4.118
  137OSM   H17T14847   0.606   4.262   4.253
  137OSM   C18S14848   0.704   4.149   4.118
  137OSM   H18S14849   0.805   4.196   4.121
  137OSM   H18T14850   0.683   4.103   4.020
  137OSM   H18U14851   0.701   4.069   4.196
  137OSM    C1F14852   0.958   4.167   2.774
  137OSM     OF14853   1.075   4.203   2.780
  137OSM    C2F14854   0.897   4.046   2.834
  137OSM    H2F14855   0.905   3.958   2.767
  137OSM    H2G14856   0.793   4.059   2.865
  137OSM    C3F14857   0.958   4.024   2.969
  137OSM    H3F14858   1.063   4.026   2.936
  137OSM    H3G14859   0.918   3.928   3.006
  137OSM    C4F14860   0.945   4.126   3.079
  137OSM    H4F14861   0.835   4.130   3.094
  137OSM    H4G14862   1.005   4.213   3.048
  137OSM    C5F14863   0.987   4.095   3.220
  137OSM    H5F14864   1.080   4.043   3.218
  137OSM    H5G14865   0.905   4.034   3.263
  137OSM    C6F14866   1.067   4.189   3.311
  137OSM    H6F14867   0.989   4.261   3.336
  137OSM    H6G14868   1.152   4.227   3.249
  137OSM    C7F14869   1.137   4.136   3.441
  137OSM    H7F14870   1.188   4.223   3.487
  137OSM    H7G14871   1.219   4.064   3.416
  137OSM    C8F14872   1.052   4.074   3.553
  137OSM    H8F14873   1.123   4.019   3.618
  137OSM    H8G14874   0.981   4.000   3.517
  137OSM    C9F14875   0.957   4.150   3.637
  137OSM    H9F14876   0.852   4.141   3.605
  137OSM   C10F14877   0.993   4.218   3.746
  137OSM   H10F14878   0.914   4.251   3.814
  137OSM   C11F14879   1.134   4.228   3.798
  137OSM   H11F14880   1.153   4.327   3.844
  137OSM   H11G14881   1.203   4.218   3.713
  137OSM   C12F14882   1.171   4.112   3.890
  137OSM   H12F14883   1.278   4.112   3.921
  137OSM   H12G14884   1.159   4.022   3.824
  137OSM   C13F14885   1.078   4.113   4.012
  137OSM   H13F14886   0.983   4.058   3.983
  137OSM   H13G14887   1.055   4.214   4.044
  137OSM   C14F14888   1.137   4.067   4.145
  137OSM   H14F14889   1.245   4.071   4.167
  137OSM   H14G14890   1.129   3.981   4.097
  137OSM   C15F14891   1.049   3.996   4.245
  137OSM   H15F14892   0.966   3.934   4.202
  137OSM   H15G14893   1.006   4.089   4.283
  137OSM   C16F14894   1.121   3.909   4.349
  137OSM   H16F14895   1.189   3.967   4.412
  137OSM   H16G14896   1.194   3.832   4.315
  137OSM   C17F14897   1.007   3.849   4.433
  137OSM   H17F14898   1.036   3.801   4.528
  137OSM   H17G14899   0.962   3.797   4.347
  137OSM   C18F14900   0.870   3.894   4.476
  137OSM   H18F14901   0.814   3.947   4.400
  137OSM   H18G14902   0.885   3.976   4.538
  137OSM   H18H14903   0.822   3.826   4.550
  138OSM      N14904   6.066   1.290   2.272
  138OSM    C1514905   6.061   1.147   2.231
  138OSM   H15A14906   6.149   1.093   2.265
  138OSM   H15B14907   6.053   1.150   2.123
  138OSM   H15C14908   5.971   1.098   2.270
  138OSM    C1414909   5.960   1.356   2.188
  138OSM   H14A14910   5.945   1.348   2.081
  138OSM   H14B14911   5.919   1.444   2.235
  138OSM   H14C14912   5.881   1.282   2.204
  138OSM    C1314913   6.048   1.295   2.418
  138OSM   H13A14914   5.954   1.241   2.421
  138OSM   H13B14915   6.026   1.393   2.458
  138OSM   H13C14916   6.110   1.238   2.487
  138OSM    C1214917   6.187   1.365   2.263
  138OSM   H12A14918   6.256   1.316   2.329
  138OSM   H12B14919   6.163   1.464   2.300
  138OSM    C1114920   6.244   1.376   2.127
  138OSM   H11A14921   6.263   1.273   2.090
  138OSM   H11B14922   6.341   1.425   2.152
  138OSM      P14923   6.204   1.598   2.006
  138OSM    O1314924   6.351   1.611   2.014
  138OSM    O1414925   6.134   1.652   1.887
  138OSM    O1114926   6.136   1.670   2.131
  138OSM    O1214927   6.161   1.450   2.036
  138OSM    C1S14928   6.178   1.796   2.181
  138OSM    H1S14929   6.109   1.875   2.144
  138OSM    H1T14930   6.280   1.826   2.146
  138OSM     NF14931   6.239   1.686   2.400
  138OSM    HNF14932   6.183   1.627   2.456
  138OSM    C2S14933   6.168   1.794   2.337
  138OSM    H2S14934   6.210   1.891   2.375
  138OSM    C3S14935   6.023   1.788   2.387
  138OSM    H3S14936   5.971   1.695   2.356
  138OSM     O314937   5.948   1.893   2.334
  138OSM    HO314938   6.011   1.939   2.277
  138OSM    C4S14939   6.025   1.794   2.539
  138OSM    H4S14940   6.102   1.863   2.576
  138OSM    C5S14941   5.952   1.723   2.628
  138OSM    H5S14942   5.880   1.649   2.591
  138OSM    C6S14943   5.960   1.733   2.778
  138OSM    H6S14944   5.975   1.633   2.823
  138OSM    H6T14945   5.861   1.766   2.819
  138OSM    C7S14946   6.071   1.818   2.843
  138OSM    H7S14947   6.062   1.923   2.810
  138OSM    H7T14948   6.172   1.793   2.810
  138OSM    C8S14949   6.071   1.797   2.996
  138OSM    H8S14950   6.131   1.884   3.034
  138OSM    H8T14951   6.127   1.707   3.027
  138OSM    C9S14952   5.930   1.777   3.063
  138OSM    H9S14953   5.884   1.684   3.035
  138OSM    H9T14954   5.846   1.838   3.031
  138OSM   C10S14955   5.939   1.792   3.212
  138OSM   H10S14956   5.843   1.830   3.259
  138OSM   H10T14957   6.027   1.860   3.222
  138OSM   C11S14958   5.989   1.668   3.275
  138OSM   H11S14959   6.089   1.655   3.229
  138OSM   H11T14960   5.918   1.592   3.236
  138OSM   C12S14961   6.009   1.678   3.427
  138OSM   H12S14962   6.070   1.769   3.446
  138OSM   H12T14963   6.066   1.589   3.460
  138OSM   C13S14964   5.878   1.696   3.506
  138OSM   H13S14965   5.803   1.629   3.459
  138OSM   H13T14966   5.847   1.802   3.486
  138OSM   C14S14967   5.884   1.673   3.660
  138OSM   H14S14968   5.965   1.734   3.706
  138OSM   H14T14969   5.907   1.567   3.681
  138OSM   C15S14970   5.754   1.710   3.736
  138OSM   H15S14971   5.670   1.645   3.705
  138OSM   H15T14972   5.723   1.814   3.713
  138OSM   C16S14973   5.769   1.702   3.888
  138OSM   H16S14974   5.843   1.623   3.917
  138OSM   H16T14975   5.671   1.664   3.926
  138OSM   C17S14976   5.804   1.843   3.948
  138OSM   H17S14977   5.726   1.912   3.910
  138OSM   H17T14978   5.906   1.868   3.915
  138OSM   C18S14979   5.804   1.871   4.098
  138OSM   H18S14980   5.699   1.848   4.126
  138OSM   H18T14981   5.811   1.971   4.139
  138OSM   H18U14982   5.880   1.805   4.147
  138OSM    C1F14983   6.368   1.669   2.391
  138OSM     OF14984   6.434   1.727   2.310
  138OSM    C2F14985   6.428   1.582   2.494
  138OSM    H2F14986   6.346   1.532   2.547
  138OSM    H2G14987   6.484   1.642   2.569
  138OSM    C3F14988   6.520   1.480   2.427
  138OSM    H3F14989   6.611   1.533   2.387
  138OSM    H3G14990   6.473   1.420   2.347
  138OSM    C4F14991   6.573   1.383   2.527
  138OSM    H4F14992   6.609   1.446   2.609
  138OSM    H4G14993   6.667   1.345   2.485
  138OSM    C5F14994   6.491   1.257   2.561
  138OSM    H5F14995   6.567   1.189   2.597
  138OSM    H5G14996   6.455   1.196   2.477
  138OSM    C6F14997   6.382   1.275   2.667
  138OSM    H6F14998   6.300   1.306   2.602
  138OSM    H6G14999   6.416   1.351   2.740
  138OSM    C7F15000   6.315   1.150   2.727
  138OSM    H7F15001   6.375   1.110   2.796
  138OSM    H7G15002   6.318   1.063   2.662
  138OSM    C8F15003   6.226   1.158   2.853
  138OSM    H8F15004   6.136   1.188   2.804
  138OSM    H8G15005   6.269   1.240   2.918
  138OSM    C9F15006   6.202   1.026   2.929
  138OSM    H9F15007   6.151   0.943   2.885
  138OSM   C10F15008   6.238   1.006   3.051
  138OSM   H10F15009   6.234   0.911   3.108
  138OSM   C11F15010   6.304   1.117   3.120
  138OSM   H11F15011   6.305   1.225   3.107
  138OSM   H11G15012   6.400   1.102   3.102
  138OSM   C12F15013   6.286   1.107   3.251
  138OSM   H12F15014   6.314   0.999   3.290
  138OSM   H12G15015   6.174   1.066   3.254
  138OSM   C13F15016   6.339   1.260   3.358
  138OSM   H13F15017   6.311   1.354   3.334
  138OSM   H13G15018   6.447   1.258   3.338
  138OSM   C14F15019   6.311   1.292   3.553
  138OSM   H14F15020   6.306   1.194   3.626
  138OSM   H14G15021   6.210   1.296   3.589
  138OSM   C15F15022   6.405   1.312   3.670
  138OSM   H15F15023   6.380   1.416   3.655
  138OSM   H15G15024   6.508   1.278   3.659
  138OSM   C16F15025   6.377   1.248   3.808
  138OSM   H16F15026   6.402   1.139   3.817
  138OSM   H16G15027   6.272   1.258   3.827
  138OSM   C17F15028   6.455   1.339   3.893
  138OSM   H17F15029   6.428   1.443   3.862
  138OSM   H17G15030   6.560   1.318   3.866
  138OSM   C18F15031   6.428   1.317   4.036
  138OSM   H18F15032   6.325   1.353   4.056
  138OSM   H18G15033   6.499   1.378   4.094
  138OSM   H18H15034   6.438   1.210   4.063
  139OSM      N15035   0.197   3.720   1.977
  139OSM    C1515036   0.067   3.790   1.997
  139OSM   H15A15037   0.059   3.883   1.944
  139OSM   H15B15038   0.064   3.814   2.104
  139OSM   H15C15039  -0.017   3.724   1.976
  139OSM    C1415040   0.195   3.592   2.056
  139OSM   H14A15041   0.148   3.512   2.001
  139OSM   H14B15042   0.146   3.603   2.153
  139OSM   H14C15043   0.296   3.560   2.080
  139OSM    C1315044   0.220   3.691   1.834
  139OSM   H13A15045   0.126   3.662   1.789
  139OSM   H13B15046   0.295   3.612   1.822
  139OSM   H13C15047   0.261   3.779   1.789
  139OSM    C1215048   0.313   3.805   2.025
  139OSM   H12A15049   0.339   3.875   1.947
  139OSM   H12B15050   0.400   3.740   2.040
  139OSM    C1115051   0.294   3.887   2.154
  139OSM   H11A15052   0.198   3.940   2.158
  139OSM   H11B15053   0.373   3.967   2.158
  139OSM      P15054   0.440   3.752   2.313
  139OSM    O1315055   0.456   3.612   2.269
  139OSM    O1415056   0.540   3.849   2.263
  139OSM    O1115057   0.430   3.770   2.468
  139OSM    O1215058   0.298   3.803   2.266
  139OSM    C1S15059   0.336   3.715   2.559
  139OSM    H1S15060   0.339   3.604   2.563
  139OSM    H1T15061   0.233   3.744   2.531
  139OSM     NF15062   0.454   3.686   2.776
  139OSM    HNF15063   0.405   3.646   2.851
  139OSM    C2S15064   0.374   3.774   2.698
  139OSM    H2S15065   0.430   3.869   2.680
  139OSM    C3S15066   0.249   3.803   2.783
  139OSM    H3S15067   0.199   3.704   2.800
  139OSM     O315068   0.160   3.893   2.720
  139OSM    HO315069   0.209   3.918   2.641
  139OSM    C4S15070   0.292   3.859   2.917
  139OSM    H4S15071   0.254   3.805   3.004
  139OSM    C5S15072   0.379   3.960   2.938
  139OSM    H5S15073   0.436   4.004   2.855
  139OSM    C6S15074   0.417   4.010   3.075
  139OSM    H6S15075   0.447   4.118   3.069
  139OSM    H6T15076   0.504   3.951   3.111
  139OSM    C7S15077   0.308   4.000   3.182
  139OSM    H7S15078   0.265   3.897   3.188
  139OSM    H7T15079   0.227   4.070   3.151
  139OSM    C8S15080   0.363   4.028   3.322
  139OSM    H8S15081   0.382   4.136   3.338
  139OSM    H8T15082   0.464   3.979   3.328
  139OSM    C9S15083   0.275   3.976   3.438
  139OSM    H9S15084   0.254   3.868   3.425
  139OSM    H9T15085   0.178   4.029   3.442
  139OSM   C10S15086   0.352   3.999   3.568
  139OSM   H10S15087   0.374   4.108   3.570
  139OSM   H10T15088   0.450   3.946   3.564
  139OSM   C11S15089   0.282   3.966   3.701
  139OSM   H11S15090   0.189   4.027   3.708
  139OSM   H11T15091   0.352   3.999   3.781
  139OSM   C12S15092   0.253   3.818   3.729
  139OSM   H12S15093   0.349   3.764   3.729
  139OSM   H12T15094   0.188   3.776   3.649
  139OSM   C13S15095   0.182   3.798   3.864
  139OSM   H13S15096   0.154   3.692   3.884
  139OSM   H13T15097   0.089   3.858   3.856
  139OSM   C14S15098   0.264   3.835   3.987
  139OSM   H14S15099   0.322   3.928   3.972
  139OSM   H14T15100   0.333   3.751   4.001
  139OSM   C15S15101   0.182   3.850   4.113
  139OSM   H15S15102   0.123   3.760   4.138
  139OSM   H15T15103   0.114   3.938   4.100
  139OSM   C16S15104   0.261   3.880   4.235
  139OSM   H16S15105   0.337   3.956   4.208
  139OSM   H16T15106   0.314   3.791   4.277
  139OSM   C17S15107   0.157   3.931   4.333
  139OSM   H17S15108   0.082   3.855   4.357
  139OSM   H17T15109   0.109   4.026   4.298
  139OSM   C18S15110   0.220   3.958   4.458
  139OSM   H18S15111   0.309   4.006   4.420
  139OSM   H18T15112   0.261   3.870   4.513
  139OSM   H18U15113   0.166   4.032   4.522
  139OSM    C1F15114   0.582   3.655   2.756
  139OSM     OF15115   0.660   3.724   2.692
  139OSM    C2F15116   0.624   3.537   2.834
  139OSM    H2F15117   0.667   3.458   2.769
  139OSM    H2G15118   0.532   3.491   2.878
  139OSM    C3F15119   0.731   3.579   2.938
  139OSM    H3F15120   0.814   3.633   2.887
  139OSM    H3G15121   0.773   3.483   2.975
  139OSM    C4F15122   0.688   3.664   3.062
  139OSM    H4F15123   0.657   3.766   3.040
  139OSM    H4G15124   0.777   3.666   3.130
  139OSM    C5F15125   0.576   3.595   3.135
  139OSM    H5F15126   0.644   3.507   3.145
  139OSM    H5G15127   0.488   3.579   3.069
  139OSM    C6F15128   0.542   3.628   3.282
  139OSM    H6F15129   0.513   3.734   3.290
  139OSM    H6G15130   0.633   3.604   3.341
  139OSM    C7F15131   0.433   3.544   3.349
  139OSM    H7F15132   0.480   3.445   3.366
  139OSM    H7G15133   0.340   3.542   3.287
  139OSM    C8F15134   0.384   3.581   3.487
  139OSM    H8F15135   0.372   3.689   3.477
  139OSM    H8G15136   0.467   3.558   3.557
  139OSM    C9F15137   0.248   3.523   3.523
  139OSM    H9F15138   0.164   3.545   3.457
  139OSM   C10F15139   0.224   3.438   3.621
  139OSM   H10F15140   0.129   3.382   3.631
  139OSM   C11F15141   0.334   3.390   3.705
  139OSM   H11F15142   0.441   3.404   3.674
  139OSM   H11G15143   0.305   3.300   3.653
  139OSM   C12F15144   0.320   3.365   3.854
  139OSM   H12F15145   0.380   3.282   3.898
  139OSM   H12G15146   0.217   3.336   3.875
  139OSM   C13F15147   0.381   3.478   3.928
  139OSM   H13F15148   0.345   3.568   3.876
  139OSM   H13G15149   0.490   3.471   3.913
  139OSM   C14F15150   0.340   3.469   4.073
  139OSM   H14F15151   0.346   3.362   4.104
  139OSM   H14G15152   0.234   3.499   4.081
  139OSM   C15F15153   0.417   3.564   4.164
  139OSM   H15F15154   0.414   3.671   4.151
  139OSM   H15G15155   0.516   3.567   4.118
  139OSM   C16F15156   0.401   3.520   4.312
  139OSM   H16F15157   0.417   3.410   4.321
  139OSM   H16G15158   0.294   3.537   4.335
  139OSM   C17F15159   0.486   3.595   4.416
  139OSM   H17F15160   0.457   3.701   4.409
  139OSM   H17G15161   0.595   3.602   4.396
  139OSM   C18F15162   0.476   3.541   4.560
  139OSM   H18F15163   0.373   3.512   4.588
  139OSM   H18G15164   0.509   3.619   4.631
  139OSM   H18H15165   0.545   3.454   4.573
  140OSM      N15166   6.741   1.808   2.083
  140OSM    C1515167   6.869   1.772   2.149
  140OSM   H15A15168   6.945   1.760   2.073
  140OSM   H15B15169   6.860   1.679   2.203
  140OSM   H15C15170   6.901   1.851   2.217
  140OSM    C1415171   6.691   1.695   1.999
  140OSM   H14A15172   6.769   1.657   1.935
  140OSM   H14B15173   6.604   1.728   1.943
  140OSM   H14C15174   6.651   1.615   2.061
  140OSM    C1315175   6.640   1.831   2.188
  140OSM   H13A15176   6.537   1.831   2.151
  140OSM   H13B15177   6.653   1.925   2.242
  140OSM   H13C15178   6.639   1.749   2.259
  140OSM    C1215179   6.754   1.930   1.993
  140OSM   H12A15180   6.654   1.949   1.954
  140OSM   H12B15181   6.815   1.905   1.908
  140OSM    C1115182   6.804   2.065   2.050
  140OSM   H11A15183   6.786   2.137   1.966
  140OSM   H11B15184   6.913   2.058   2.073
  140OSM      P15185   6.736   2.253   2.228
  140OSM    O1315186   6.847   2.331   2.167
  140OSM    O1415187   6.598   2.306   2.225
  140OSM    O1115188   6.776   2.220   2.378
  140OSM    O1215189   6.733   2.106   2.165
  140OSM    C1S15190   6.769   2.087   2.429
  140OSM    H1S15191   6.848   2.025   2.383
  140OSM    H1T15192   6.671   2.040   2.407
  140OSM     NF15193   6.809   1.958   2.633
  140OSM    HNF15194   6.730   1.920   2.677
  140OSM    C2S15195   6.789   2.090   2.582
  140OSM    H2S15196   6.877   2.154   2.609
  140OSM    C3S15197   6.667   2.154   2.647
  140OSM    H3S15198   6.576   2.103   2.608
  140OSM     O315199   6.654   2.289   2.617
  140OSM    HO315200   6.725   2.308   2.554
  140OSM    C4S15201   6.673   2.139   2.796
  140OSM    H4S15202   6.768   2.163   2.847
  140OSM    C5S15203   6.564   2.098   2.862
  140OSM    H5S15204   6.469   2.088   2.808
  140OSM    C6S15205   6.548   2.074   3.007
  140OSM    H6S15206   6.619   2.001   3.050
  140OSM    H6T15207   6.442   2.060   3.040
  140OSM    C7S15208   6.576   2.187   3.086
  140OSM    H7S15209   6.502   2.264   3.058
  140OSM    H7T15210   6.684   2.222   3.079
  140OSM    C8S15211   6.533   2.144   3.229
  140OSM    H8S15212   6.611   2.082   3.273
  140OSM    H8T15213   6.424   2.139   3.239
  140OSM    C9S15214   6.500   2.234   3.338
  140OSM    H9S15215   6.469   2.329   3.357
  140OSM    H9T15216   6.584   2.262   3.265
  140OSM   C10S15217   6.499   2.278   3.494
  140OSM   H10S15218   6.412   2.228   3.480
  140OSM   H10T15219   6.480   2.388   3.530
  140OSM   C11S15220   6.564   2.220   3.603
  140OSM   H11S15221   6.655   2.245   3.604
  140OSM   H11T15222   6.595   2.122   3.575
  140OSM   C12S15223   6.508   2.267   3.733
  140OSM   H12S15224   6.408   2.268   3.712
  140OSM   H12T15225   6.522   2.376   3.755
  140OSM   C13S15226   6.516   2.172   3.850
  140OSM   H13S15227   6.472   2.208   3.939
  140OSM   H13T15228   6.620   2.155   3.845
  140OSM   C14S15229   6.525   2.024   3.850
  140OSM   H14S15230   6.586   2.012   3.758
  140OSM   H14T15231   6.415   2.004   3.859
  140OSM   C15S15232   6.525   1.913   3.951
  140OSM   H15S15233   6.620   1.855   3.957
  140OSM   H15T15234   6.444   1.837   3.929
  140OSM   C16S15235   6.483   1.967   4.067
  140OSM   H16S15236   6.446   1.881   4.119
  140OSM   H16T15237   6.408   2.047   4.055
  140OSM   C17S15238   6.604   2.024   4.117
  140OSM   H17S15239   6.642   2.104   4.065
  140OSM   H17T15240   6.683   1.940   4.111
  140OSM   C18S15241   6.537   2.088   4.234
  140OSM   H18S15242   6.600   2.113   4.325
  140OSM   H18T15243   6.485   1.995   4.277
  140OSM   H18U15244   6.561   2.188   4.263
  140OSM    C1F15245   6.914   1.884   2.609
  140OSM     OF15246   7.002   1.913   2.530
  140OSM    C2F15247   6.912   1.756   2.682
  140OSM    H2F15248   6.903   1.675   2.607
  140OSM    H2G15249   6.822   1.751   2.748
  140OSM    C3F15250   7.038   1.745   2.770
  140OSM    H3F15251   7.131   1.767   2.712
  140OSM    H3G15252   7.044   1.638   2.801
  140OSM    C4F15253   7.037   1.840   2.891
  140OSM    H4F15254   7.017   1.945   2.860
  140OSM    H4G15255   7.140   1.843   2.934
  140OSM    C5F15256   6.938   1.796   2.998
  140OSM    H5F15257   6.950   1.687   3.013
  140OSM    H5G15258   6.834   1.813   2.966
  140OSM    C6F15259   6.959   1.865   3.132
  140OSM    H6F15260   6.939   1.974   3.126
  140OSM    H6G15261   7.065   1.849   3.163
  140OSM    C7F15262   6.867   1.809   3.240
  140OSM    H7F15263   6.902   1.705   3.254
  140OSM    H7G15264   6.761   1.802   3.207
  140OSM    C8F15265   6.875   1.897   3.366
  140OSM    H8F15266   6.829   1.995   3.348
  140OSM    H8G15267   6.981   1.915   3.391
  140OSM    C9F15268   6.805   1.839   3.482
  140OSM    H9F15269   6.707   1.797   3.462
  140OSM   C10F15270   6.854   1.835   3.605
  140OSM   H10F15271   6.800   1.776   3.674
  140OSM   C11F15272   6.985   1.883   3.658
  140OSM   H11F15273   7.045   1.929   3.580
  140OSM   H11G15274   7.033   1.793   3.688
  140OSM   C12F15275   6.986   1.968   3.785
  140OSM   H12F15276   6.912   2.038   3.756
  140OSM   H12G15277   7.075   2.033   3.801
  140OSM   C13F15278   6.930   1.900   3.910
  140OSM   H13F15279   6.821   1.882   3.901
  140OSM   H13G15280   6.953   1.961   3.998
  140OSM   C14F15281   6.996   1.779   3.960
  140OSM   H14F15282   7.097   1.799   3.976
  140OSM   H14G15283   6.987   1.696   3.890
  140OSM   C15F15284   6.989   1.746   4.107
  140OSM   H15F15285   7.057   1.656   4.114
  140OSM   H15G15286   6.884   1.720   4.121
  140OSM   C16F15287   7.037   1.846   4.214
  140OSM   H16F15288   7.008   1.952   4.197
  140OSM   H16G15289   7.147   1.849   4.221
  140OSM   C17F15290   6.967   1.802   4.343
  140OSM   H17F15291   6.870   1.783   4.304
  140OSM   H17G15292   6.976   1.879   4.423
  140OSM   C18F15293   6.960   1.657   4.391
  140OSM   H18F15294   7.036   1.666   4.461
  140OSM   H18G15295   6.987   1.581   4.317
  140OSM   H18H15296   6.937   1.614   4.488
  141OSM      N15297   0.971   6.749   2.019
  141OSM    C1515298   0.892   6.640   1.953
  141OSM   H15A15299   0.816   6.677   1.886
  141OSM   H15B15300   0.840   6.580   2.029
  141OSM   H15C15301   0.952   6.569   1.898
  141OSM    C1415302   1.071   6.679   2.105
  141OSM   H14A15303   1.131   6.744   2.165
  141OSM   H14B15304   1.137   6.616   2.046
  141OSM   H14C15305   1.015   6.612   2.173
  141OSM    C1315306   1.038   6.834   1.916
  141OSM   H13A15307   0.969   6.905   1.872
  141OSM   H13B15308   1.078   6.773   1.836
  141OSM   H13C15309   1.118   6.890   1.962
  141OSM    C1215310   0.876   6.831   2.103
  141OSM   H12A15311   0.792   6.858   2.038
  141OSM   H12B15312   0.924   6.923   2.134
  141OSM    C1115313   0.817   6.763   2.229
  141OSM   H11A15314   0.743   6.831   2.275
  141OSM   H11B15315   0.899   6.745   2.303
  141OSM      P15316   0.752   6.502   2.258
  141OSM    O1315317   0.677   6.413   2.170
  141OSM    O1415318   0.893   6.468   2.278
  141OSM    O1115319   0.684   6.520   2.399
  141OSM    O1215320   0.748   6.645   2.193
  141OSM    C1S15321   0.683   6.414   2.494
  141OSM    H1S15322   0.778   6.357   2.499
  141OSM    H1T15323   0.597   6.346   2.475
  141OSM     NF15324   0.698   6.380   2.738
  141OSM    HNF15325   0.622   6.343   2.787
  141OSM    C2S15326   0.669   6.473   2.635
  141OSM    H2S15327   0.731   6.566   2.646
  141OSM    C3S15328   0.533   6.518   2.648
  141OSM    H3S15329   0.461   6.431   2.635
  141OSM     O315330   0.522   6.627   2.559
  141OSM    HO315331   0.576   6.607   2.480
  141OSM    C4S15332   0.509   6.581   2.777
  141OSM    H4S15333   0.534   6.686   2.784
  141OSM    C5S15334   0.468   6.525   2.888
  141OSM    H5S15335   0.430   6.421   2.888
  141OSM    C6S15336   0.446   6.616   3.004
  141OSM    H6S15337   0.348   6.662   2.984
  141OSM    H6T15338   0.483   6.717   3.009
  141OSM    C7S15339   0.479   6.538   3.130
  141OSM    H7S15340   0.587   6.523   3.138
  141OSM    H7T15341   0.456   6.433   3.106
  141OSM    C8S15342   0.421   6.599   3.261
  141OSM    H8S15343   0.311   6.587   3.267
  141OSM    H8T15344   0.430   6.708   3.259
  141OSM    C9S15345   0.470   6.539   3.394
  141OSM    H9S15346   0.459   6.429   3.400
  141OSM    H9T15347   0.410   6.587   3.477
  141OSM   C10S15348   0.616   6.530   3.413
  141OSM   H10S15349   0.658   6.481   3.323
  141OSM   H10T15350   0.639   6.463   3.499
  141OSM   C11S15351   0.674   6.666   3.437
  141OSM   H11S15352   0.654   6.727   3.346
  141OSM   H11T15353   0.781   6.641   3.450
  141OSM   C12S15354   0.622   6.735   3.564
  141OSM   H12S15355   0.514   6.758   3.557
  141OSM   H12T15356   0.675   6.833   3.573
  141OSM   C13S15357   0.646   6.652   3.690
  141OSM   H13S15358   0.752   6.621   3.696
  141OSM   H13T15359   0.585   6.559   3.682
  141OSM   C14S15360   0.600   6.725   3.817
  141OSM   H14S15361   0.595   6.650   3.899
  141OSM   H14T15362   0.500   6.769   3.801
  141OSM   C15S15363   0.690   6.839   3.864
  141OSM   H15S15364   0.638   6.890   3.949
  141OSM   H15T15365   0.710   6.914   3.785
  141OSM   C16S15366   0.823   6.791   3.915
  141OSM   H16S15367   0.869   6.720   3.843
  141OSM   H16T15368   0.814   6.744   4.016
  141OSM   C17S15369   0.913   6.911   3.924
  141OSM   H17S15370   0.931   6.960   3.828
  141OSM   H17T15371   1.010   6.867   3.951
  141OSM   C18S15372   0.859   7.007   4.030
  141OSM   H18S15373   0.758   7.043   4.029
  141OSM   H18T15374   0.929   7.086   4.056
  141OSM   H18U15375   0.857   6.955   4.123
  141OSM    C1F15376   0.818   6.364   2.777
  141OSM     OF15377   0.911   6.413   2.716
  141OSM    C2F15378   0.823   6.295   2.910
  141OSM    H2F15379   0.824   6.187   2.909
  141OSM    H2G15380   0.731   6.308   2.964
  141OSM    C3F15381   0.934   6.349   2.994
  141OSM    H3F15382   1.004   6.364   2.922
  141OSM    H3G15383   0.996   6.287   3.055
  141OSM    C4F15384   0.915   6.480   3.057
  141OSM    H4F15385   0.816   6.479   3.106
  141OSM    H4G15386   0.919   6.552   2.972
  141OSM    C5F15387   1.031   6.512   3.147
  141OSM    H5F15388   1.123   6.516   3.084
  141OSM    H5G15389   1.054   6.434   3.223
  141OSM    C6F15390   1.006   6.651   3.203
  141OSM    H6F15391   0.909   6.658   3.256
  141OSM    H6G15392   1.010   6.727   3.122
  141OSM    C7F15393   1.115   6.684   3.299
  141OSM    H7F15394   1.198   6.676   3.225
  141OSM    H7G15395   1.136   6.607   3.375
  141OSM    C8F15396   1.097   6.822   3.366
  141OSM    H8F15397   1.082   6.895   3.286
  141OSM    H8G15398   1.180   6.858   3.428
  141OSM    C9F15399   0.996   6.838   3.469
  141OSM    H9F15400   0.927   6.919   3.446
  141OSM   C10F15401   0.995   6.774   3.585
  141OSM   H10F15402   0.910   6.793   3.651
  141OSM   C11F15403   1.097   6.674   3.633
  141OSM   H11F15404   1.120   6.690   3.740
  141OSM   H11G15405   1.195   6.677   3.579
  141OSM   C12F15406   1.042   6.535   3.610
  141OSM   H12F15407   1.017   6.510   3.505
  141OSM   H12G15408   0.953   6.519   3.674
  141OSM   C13F15409   1.144   6.436   3.657
  141OSM   H13F15410   1.168   6.460   3.761
  141OSM   H13G15411   1.226   6.416   3.587
  141OSM   C14F15412   1.079   6.313   3.680
  141OSM   H14F15413   1.140   6.219   3.666
  141OSM   H14G15414   0.994   6.326   3.605
  141OSM   C15F15415   1.015   6.296   3.815
  141OSM   H15F15416   0.977   6.379   3.873
  141OSM   H15G15417   1.070   6.214   3.871
  141OSM   C16F15418   0.874   6.270   3.778
  141OSM   H16F15419   0.932   6.191   3.724
  141OSM   H16G15420   0.816   6.282   3.689
  141OSM   C17F15421   0.769   6.242   3.885
  141OSM   H17F15422   0.846   6.167   3.905
  141OSM   H17G15423   0.660   6.212   3.866
  141OSM   C18F15424   0.740   6.301   4.020
  141OSM   H18F15425   0.676   6.234   4.084
  141OSM   H18G15426   0.679   6.381   3.981
  141OSM   H18H15427   0.826   6.320   4.085
  142OSM      N15428   0.484   1.033   1.937
  142OSM    C1515429   0.610   1.057   2.016
  142OSM   H15A15430   0.698   1.065   1.952
  142OSM   H15B15431   0.628   0.970   2.081
  142OSM   H15C15432   0.607   1.140   2.084
  142OSM    C1415433   0.460   1.138   1.832
  142OSM   H14A15434   0.378   1.107   1.768
  142OSM   H14B15435   0.545   1.158   1.767
  142OSM   H14C15436   0.429   1.230   1.879
  142OSM    C1315437   0.499   0.900   1.873
  142OSM   H13A15438   0.410   0.871   1.820
  142OSM   H13B15439   0.520   0.826   1.952
  142OSM   H13C15440   0.581   0.893   1.802
  142OSM    C1215441   0.359   1.027   2.026
  142OSM   H12A15442   0.275   1.021   1.958
  142OSM   H12B15443   0.355   1.120   2.079
  142OSM    C1115444   0.335   0.913   2.129
  142OSM   H11A15445   0.321   0.817   2.076
  142OSM   H11B15446   0.237   0.932   2.180
  142OSM      P15447   0.412   0.857   2.374
  142OSM    O1315448   0.332   0.733   2.376
  142OSM    O1415449   0.537   0.860   2.453
  142OSM    O1115450   0.319   0.982   2.411
  142OSM    O1215451   0.443   0.897   2.221
  142OSM    C1S15452   0.361   1.103   2.475
  142OSM    H1S15453   0.329   1.184   2.407
  142OSM    H1T15454   0.470   1.109   2.490
  142OSM     NF15455   0.350   1.020   2.709
  142OSM    HNF15456   0.287   0.941   2.702
  142OSM    C2S15457   0.305   1.125   2.620
  142OSM    H2S15458   0.336   1.222   2.661
  142OSM    C3S15459   0.156   1.131   2.601
  142OSM    H3S15460   0.124   1.054   2.537
  142OSM     O315461   0.108   1.247   2.533
  142OSM    HO315462   0.190   1.292   2.512
  142OSM    C4S15463   0.086   1.110   2.735
  142OSM    H4S15464   0.046   1.013   2.758
  142OSM    C5S15465   0.065   1.194   2.829
  142OSM    H5S15466   0.125   1.275   2.798
  142OSM    C6S15467  -0.003   1.198   2.968
  142OSM    H6S15468  -0.106   1.241   2.974
  142OSM    H6T15469   0.064   1.242   3.046
  142OSM    C7S15470  -0.043   1.079   3.027
  142OSM    H7S15471   0.062   1.050   3.022
  142OSM    H7T15472  -0.109   1.027   2.957
  142OSM    C8S15473  -0.090   1.066   3.170
  142OSM    H8S15474  -0.144   0.970   3.182
  142OSM    H8T15475  -0.156   1.151   3.185
  142OSM    C9S15476   0.014   1.076   3.279
  142OSM    H9S15477  -0.037   1.063   3.378
  142OSM    H9T15478   0.074   1.168   3.272
  142OSM   C10S15479   0.120   0.977   3.281
  142OSM   H10S15480   0.189   0.962   3.197
  142OSM   H10T15481   0.069   0.879   3.319
  142OSM   C11S15482   0.222   1.016   3.381
  142OSM   H11S15483   0.317   0.975   3.360
  142OSM   H11T15484   0.145   0.971   3.441
  142OSM   C12S15485   0.289   1.139   3.434
  142OSM   H12S15486   0.195   1.192   3.442
  142OSM   H12T15487   0.372   1.158   3.363
  142OSM   C13S15488   0.352   1.142   3.575
  142OSM   H13S15489   0.455   1.130   3.613
  142OSM   H13T15490   0.384   1.036   3.565
  142OSM   C14S15491   0.248   1.207   3.681
  142OSM   H14S15492   0.143   1.205   3.644
  142OSM   H14T15493   0.290   1.308   3.682
  142OSM   C15S15494   0.231   1.175   3.834
  142OSM   H15S15495   0.180   1.080   3.868
  142OSM   H15T15496   0.157   1.231   3.893
  142OSM   C16S15497   0.371   1.182   3.888
  142OSM   H16S15498   0.428   1.272   3.871
  142OSM   H16T15499   0.449   1.105   3.866
  142OSM   C17S15500   0.348   1.168   4.025
  142OSM   H17S15501   0.327   1.061   4.017
  142OSM   H17T15502   0.255   1.190   4.078
  142OSM   C18S15503   0.469   1.202   4.099
  142OSM   H18S15504   0.452   1.202   4.206
  142OSM   H18T15505   0.506   1.304   4.101
  142OSM   H18U15506   0.542   1.117   4.095
  142OSM    C1F15507   0.475   0.994   2.738
  142OSM     OF15508   0.560   1.077   2.712
  142OSM    C2F15509   0.510   0.863   2.800
  142OSM    H2F15510   0.545   0.790   2.723
  142OSM    H2G15511   0.435   0.817   2.864
  142OSM    C3F15512   0.609   0.884   2.912
  142OSM    H3F15513   0.704   0.922   2.871
  142OSM    H3G15514   0.624   0.779   2.947
  142OSM    C4F15515   0.557   0.975   3.028
  142OSM    H4F15516   0.486   0.916   3.089
  142OSM    H4G15517   0.510   1.069   2.995
  142OSM    C5F15518   0.664   1.025   3.119
  142OSM    H5F15519   0.639   1.084   3.209
  142OSM    H5G15520   0.744   1.078   3.059
  142OSM    C6F15521   0.719   0.902   3.175
  142OSM    H6F15522   0.806   0.955   3.222
  142OSM    H6G15523   0.745   0.840   3.089
  142OSM    C7F15524   0.651   0.795   3.261
  142OSM    H7F15525   0.562   0.755   3.218
  142OSM    H7G15526   0.614   0.863   3.339
  142OSM    C8F15527   0.735   0.667   3.310
  142OSM    H8F15528   0.831   0.673   3.364
  142OSM    H8G15529   0.769   0.608   3.222
  142OSM    C9F15530   0.664   0.595   3.418
  142OSM    H9F15531   0.635   0.498   3.379
  142OSM   C10F15532   0.656   0.614   3.552
  142OSM   H10F15533   0.593   0.546   3.609
  142OSM   C11F15534   0.710   0.709   3.653
  142OSM   H11F15535   0.755   0.796   3.624
  142OSM   H11G15536   0.796   0.673   3.710
  142OSM   C12F15537   0.614   0.798   3.719
  142OSM   H12F15538   0.541   0.830   3.642
  142OSM   H12G15539   0.650   0.904   3.744
  142OSM   C13F15540   0.576   0.710   3.843
  142OSM   H13F15541   0.629   0.616   3.846
  142OSM   H13G15542   0.474   0.683   3.860
  142OSM   C14F15543   0.594   0.786   3.969
  142OSM   H14F15544   0.575   0.893   3.961
  142OSM   H14G15545   0.677   0.798   3.910
  142OSM   C15F15546   0.613   0.718   4.107
  142OSM   H15F15547   0.642   0.615   4.101
  142OSM   H15G15548   0.510   0.691   4.126
  142OSM   C16F15549   0.675   0.790   4.232
  142OSM   H16F15550   0.655   0.898   4.256
  142OSM   H16G15551   0.788   0.785   4.219
  142OSM   C17F15552   0.659   0.720   4.356
  142OSM   H17F15553   0.745   0.764   4.396
  142OSM   H17G15554   0.688   0.614   4.346
  142OSM   C18F15555   0.541   0.760   4.437
  142OSM   H18F15556   0.450   0.730   4.384
  142OSM   H18G15557   0.537   0.862   4.481
  142OSM   H18H15558   0.544   0.700   4.520
  143OSM      N15559  -0.097   6.368   2.110
  143OSM    C1515560  -0.049   6.264   2.209
  143OSM   H15A15561  -0.106   6.172   2.213
  143OSM   H15B15562  -0.043   6.304   2.310
  143OSM   H15C15563   0.056   6.239   2.190
  143OSM    C1415564  -0.057   6.337   1.971
  143OSM   H14A15565   0.051   6.328   1.965
  143OSM   H14B15566  -0.090   6.417   1.905
  143OSM   H14C15567  -0.102   6.245   1.936
  143OSM    C1315568  -0.238   6.375   2.100
  143OSM   H13A15569  -0.270   6.404   2.198
  143OSM   H13B15570  -0.272   6.272   2.082
  143OSM   H13C15571  -0.288   6.439   2.028
  143OSM    C1215572  -0.052   6.504   2.153
  143OSM   H12A15573  -0.064   6.510   2.260
  143OSM   H12B15574  -0.122   6.576   2.112
  143OSM    C1115575   0.090   6.543   2.114
  143OSM   H11A15576   0.116   6.632   2.176
  143OSM   H11B15577   0.093   6.576   2.008
  143OSM      P15578   0.326   6.467   2.189
  143OSM    O1315579   0.411   6.369   2.122
  143OSM    O1415580   0.350   6.613   2.176
  143OSM    O1115581   0.309   6.430   2.341
  143OSM    O1215582   0.181   6.436   2.130
  143OSM    C1S15583   0.183   6.404   2.399
  143OSM    H1S15584   0.145   6.309   2.359
  143OSM    H1T15585   0.111   6.486   2.383
  143OSM     NF15586   0.092   6.319   2.608
  143OSM    HNF15587   0.038   6.358   2.682
  143OSM    C2S15588   0.199   6.390   2.550
  143OSM    H2S15589   0.294   6.331   2.564
  143OSM    C3S15590   0.199   6.528   2.610
  143OSM    H3S15591   0.110   6.591   2.600
  143OSM     O315592   0.279   6.618   2.544
  143OSM    HO315593   0.343   6.561   2.495
  143OSM    C4S15594   0.216   6.498   2.755
  143OSM    H4S15595   0.296   6.423   2.759
  143OSM    C5S15596   0.159   6.552   2.865
  143OSM    H5S15597   0.108   6.646   2.845
  143OSM    C6S15598   0.176   6.514   3.014
  143OSM    H6S15599   0.093   6.561   3.066
  143OSM    H6T15600   0.239   6.566   3.087
  143OSM    C7S15601   0.219   6.371   3.050
  143OSM    H7S15602   0.288   6.326   2.975
  143OSM    H7T15603   0.122   6.322   3.037
  143OSM    C8S15604   0.265   6.341   3.196
  143OSM    H8S15605   0.355   6.377   3.242
  143OSM    H8T15606   0.303   6.238   3.195
  143OSM    C9S15607   0.171   6.391   3.305
  143OSM    H9S15608   0.084   6.332   3.278
  143OSM    H9T15609   0.145   6.499   3.301
  143OSM   C10S15610   0.221   6.365   3.445
  143OSM   H10S15611   0.159   6.405   3.525
  143OSM   H10T15612   0.304   6.420   3.487
  143OSM   C11S15613   0.253   6.222   3.453
  143OSM   H11S15614   0.313   6.179   3.374
  143OSM   H11T15615   0.166   6.159   3.431
  143OSM   C12S15616   0.305   6.198   3.588
  143OSM   H12S15617   0.400   6.236   3.632
  143OSM   H12T15618   0.308   6.087   3.577
  143OSM   C13S15619   0.196   6.223   3.684
  143OSM   H13S15620   0.136   6.149   3.625
  143OSM   H13T15621   0.103   6.276   3.686
  143OSM   C14S15622   0.247   6.165   3.808
  143OSM   H14S15623   0.328   6.097   3.769
  143OSM   H14T15624   0.156   6.126   3.870
  143OSM   C15S15625   0.303   6.208   3.919
  143OSM   H15S15626   0.201   6.268   3.920
  143OSM   H15T15627   0.388   6.258   3.877
  143OSM   C16S15628   0.336   6.151   4.064
  143OSM   H16S15629   0.407   6.077   4.057
  143OSM   H16T15630   0.251   6.128   4.131
  143OSM   C17S15631   0.420   6.229   4.161
  143OSM   H17S15632   0.334   6.248   4.217
  143OSM   H17T15633   0.474   6.315   4.120
  143OSM   C18S15634   0.425   6.226   4.309
  143OSM   H18S15635   0.351   6.152   4.357
  143OSM   H18T15636   0.432   6.323   4.360
  143OSM   H18U15637   0.524   6.203   4.276
  143OSM    C1F15638   0.076   6.197   2.575
  143OSM     OF15639   0.156   6.136   2.506
  143OSM    C2F15640  -0.050   6.145   2.616
  143OSM    H2F15641  -0.077   6.062   2.549
  143OSM    H2G15642  -0.113   6.222   2.572
  143OSM    C3F15643  -0.064   6.101   2.768
  143OSM    H3F15644  -0.057   5.995   2.773
  143OSM    H3G15645  -0.167   6.083   2.791
  143OSM    C4F15646  -0.067   6.184   2.895
  143OSM    H4F15647  -0.105   6.285   2.890
  143OSM    H4G15648   0.032   6.182   2.939
  143OSM    C5F15649  -0.177   6.138   2.986
  143OSM    H5F15650  -0.134   6.038   3.002
  143OSM    H5G15651  -0.282   6.123   2.947
  143OSM    C6F15652  -0.179   6.214   3.112
  143OSM    H6F15653  -0.082   6.188   3.156
  143OSM    H6G15654  -0.270   6.189   3.171
  143OSM    C7F15655  -0.171   6.360   3.116
  143OSM    H7F15656  -0.235   6.367   3.035
  143OSM    H7G15657  -0.093   6.416   3.064
  143OSM    C8F15658  -0.212   6.409   3.252
  143OSM    H8F15659  -0.119   6.425   3.304
  143OSM    H8G15660  -0.283   6.354   3.318
  143OSM    C9F15661  -0.266   6.535   3.219
  143OSM    H9F15662  -0.371   6.542   3.182
  143OSM   C10F15663  -0.215   6.639   3.282
  143OSM   H10F15664  -0.279   6.712   3.318
  143OSM   C11F15665  -0.120   6.676   3.383
  143OSM   H11F15666  -0.121   6.785   3.373
  143OSM   H11G15667  -0.047   6.608   3.355
  143OSM   C12F15668  -0.141   6.671   3.534
  143OSM   H12F15669  -0.182   6.568   3.568
  143OSM   H12G15670  -0.204   6.760   3.568
  143OSM   C13F15671  -0.034   6.666   3.613
  143OSM   H13F15672   0.015   6.761   3.586
  143OSM   H13G15673   0.011   6.571   3.578
  143OSM   C14F15674  -0.090   6.658   3.748
  143OSM   H14F15675  -0.160   6.576   3.776
  143OSM   H14G15676  -0.142   6.754   3.777
  143OSM   C15F15677   0.037   6.650   3.811
  143OSM   H15F15678   0.132   6.672   3.756
  143OSM   H15G15679   0.049   6.540   3.838
  143OSM   C16F15680   0.006   6.767   3.904
  143OSM   H16F15681   0.036   6.869   3.926
  143OSM   H16G15682   0.123   6.770   3.922
  143OSM   C17F15683  -0.129   6.725   4.017
  143OSM   H17F15684  -0.203   6.749   3.954
  143OSM   H17G15685  -0.124   6.805   4.097
  143OSM   C18F15686  -0.150   6.568   4.116
  143OSM   H18F15687  -0.083   6.521   4.187
  143OSM   H18G15688  -0.125   6.484   4.058
  143OSM   H18H15689  -0.239   6.533   4.166
  144OSM      N15690   6.329   0.152   2.229
  144OSM    C1515691   6.301   0.158   2.088
  144OSM   H15A15692   6.297   0.059   2.045
  144OSM   H15B15693   6.383   0.208   2.034
  144OSM   H15C15694   6.209   0.206   2.065
  144OSM    C1415695   6.294   0.284   2.275
  144OSM   H14A15696   6.315   0.291   2.378
  144OSM   H14B15697   6.196   0.323   2.259
  144OSM   H14C15698   6.359   0.358   2.231
  144OSM    C1315699   6.236   0.064   2.300
  144OSM   H13A15700   6.140   0.110   2.289
  144OSM   H13B15701   6.260   0.060   2.406
  144OSM   H13C15702   6.228  -0.035   2.260
  144OSM    C1215703   6.469   0.099   2.252
  144OSM   H12A15704   6.458  -0.007   2.233
  144OSM   H12B15705   6.495   0.104   2.356
  144OSM    C1115706   6.584   0.127   2.152
  144OSM   H11A15707   6.562   0.075   2.060
  144OSM   H11B15708   6.683   0.091   2.190
  144OSM      P15709   6.704   0.294   2.007
  144OSM    O1315710   6.761   0.218   1.897
  144OSM    O1415711   6.652   0.426   1.955
  144OSM    O1115712   6.785   0.276   2.155
  144OSM    O1215713   6.585   0.253   2.097
  144OSM    C1S15714   6.793   0.319   2.302
  144OSM    H1S15715   6.733   0.406   2.337
  144OSM    H1T15716   6.900   0.339   2.329
  144OSM     NF15717   6.744   0.375   2.553
  144OSM    HNF15718   6.816   0.374   2.620
  144OSM    C2S15719   6.746   0.273   2.434
  144OSM    H2S15720   6.646   0.239   2.398
  144OSM    C3S15721   6.857   0.178   2.442
  144OSM    H3S15722   6.942   0.244   2.482
  144OSM     O315723   6.900   0.112   2.320
  144OSM    HO315724   6.859   0.168   2.250
  144OSM    C4S15725   6.807   0.099   2.543
  144OSM    H4S15726   6.698   0.082   2.536
  144OSM    C5S15727   6.884   0.060   2.642
  144OSM    H5S15728   6.991   0.075   2.642
  144OSM    C6S15729   6.842  -0.022   2.750
  144OSM    H6S15730   6.879  -0.124   2.721
  144OSM    H6T15731   6.734  -0.010   2.742
  144OSM    C7S15732   6.842   0.002   2.901
  144OSM    H7S15733   6.947   0.019   2.927
  144OSM    H7T15734   6.810  -0.089   2.958
  144OSM    C8S15735   6.738   0.111   2.932
  144OSM    H8S15736   6.637   0.076   2.902
  144OSM    H8T15737   6.760   0.199   2.869
  144OSM    C9S15738   6.736   0.155   3.077
  144OSM    H9S15739   6.836   0.198   3.100
  144OSM    H9T15740   6.717   0.071   3.148
  144OSM   C10S15741   6.640   0.271   3.105
  144OSM   H10S15742   6.533   0.247   3.087
  144OSM   H10T15743   6.668   0.354   3.037
  144OSM   C11S15744   6.659   0.313   3.249
  144OSM   H11S15745   6.762   0.320   3.277
  144OSM   H11T15746   6.625   0.232   3.314
  144OSM   C12S15747   6.584   0.439   3.280
  144OSM   H12S15748   6.487   0.385   3.283
  144OSM   H12T15749   6.579   0.511   3.195
  144OSM   C13S15750   6.624   0.516   3.412
  144OSM   H13S15751   6.713   0.562   3.367
  144OSM   H13T15752   6.639   0.441   3.493
  144OSM   C14S15753   6.552   0.644   3.473
  144OSM   H14S15754   6.452   0.623   3.516
  144OSM   H14T15755   6.541   0.720   3.393
  144OSM   C15S15756   6.584   0.705   3.606
  144OSM   H15S15757   6.526   0.796   3.625
  144OSM   H15T15758   6.683   0.749   3.581
  144OSM   C16S15759   6.565   0.607   3.728
  144OSM   H16S15760   6.619   0.509   3.717
  144OSM   H16T15761   6.463   0.578   3.746
  144OSM   C17S15762   6.612   0.668   3.858
  144OSM   H17S15763   6.552   0.752   3.895
  144OSM   H17T15764   6.698   0.730   3.828
  144OSM   C18S15765   6.639   0.567   3.972
  144OSM   H18S15766   6.720   0.496   3.942
  144OSM   H18T15767   6.554   0.509   4.007
  144OSM   H18U15768   6.681   0.626   4.058
  144OSM    C1F15769   6.679   0.482   2.605
  144OSM     OF15770   6.646   0.575   2.552
  144OSM    C2F15771   6.626   0.515   2.729
  144OSM    H2F15772   6.564   0.613   2.728
  144OSM    H2G15773   6.717   0.569   2.762
  144OSM    C3F15774   6.551   0.384   2.781
  144OSM    H3F15775   6.555   0.444   2.876
  144OSM    H3G15776   6.624   0.308   2.786
  144OSM    C4F15777   6.404   0.303   2.745
  144OSM    H4F15778   6.394   0.235   2.662
  144OSM    H4G15779   6.313   0.338   2.684
  144OSM    C5F15780   6.308   0.271   2.857
  144OSM    H5F15781   6.200   0.274   2.825
  144OSM    H5G15782   6.317   0.333   2.947
  144OSM    C6F15783   6.349   0.136   2.875
  144OSM    H6F15784   6.447   0.151   2.925
  144OSM    H6G15785   6.363   0.090   2.774
  144OSM    C7F15786   6.245   0.067   2.955
  144OSM    H7F15787   6.147   0.064   2.900
  144OSM    H7G15788   6.235   0.127   3.047
  144OSM    C8F15789   6.296  -0.072   2.979
  144OSM    H8F15790   6.306  -0.108   2.874
  144OSM    H8G15791   6.217  -0.131   3.027
  144OSM    C9F15792   6.433  -0.088   3.040
  144OSM    H9F15793   6.506  -0.114   2.968
  144OSM   C10F15794   6.475  -0.085   3.166
  144OSM   H10F15795   6.578  -0.099   3.200
  144OSM   C11F15796   6.382  -0.062   3.272
  144OSM   H11F15797   6.394  -0.138   3.350
  144OSM   H11G15798   6.274  -0.068   3.242
  144OSM   C12F15799   6.416   0.075   3.330
  144OSM   H12F15800   6.370   0.153   3.263
  144OSM   H12G15801   6.510   0.108   3.370
  144OSM   C13F15802   6.370   0.068   3.471
  144OSM   H13F15803   6.369  -0.012   3.541
  144OSM   H13G15804   6.284   0.008   3.433
  144OSM   C14F15805   6.378   0.202   3.551
  144OSM   H14F15806   6.352   0.296   3.505
  144OSM   H14G15807   6.479   0.229   3.581
  144OSM   C15F15808   6.287   0.226   3.665
  144OSM   H15F15809   6.186   0.283   3.624
  144OSM   H15G15810   6.307   0.294   3.745
  144OSM   C16F15811   6.314   0.123   3.785
  144OSM   H16F15812   6.293   0.015   3.769
  144OSM   H16G15813   6.242   0.137   3.873
  144OSM   C17F15814   6.432   0.158   3.871
  144OSM   H17F15815   6.404   0.252   3.923
  144OSM   H17G15816   6.535   0.185   3.844
  144OSM   C18F15817   6.452   0.038   3.953
  144OSM   H18F15818   6.548   0.060   4.003
  144OSM   H18G15819   6.459  -0.054   3.891
  144OSM   H18H15820   6.365   0.029   4.021
  145SAPE     N15821   2.142   3.004   6.370
  145SAPE   HN115822   2.224   2.988   6.430
  145SAPE   HN215823   2.132   2.929   6.298
  145SAPE   HN315824   2.152   3.096   6.322
  145SAPE   C1215825   2.012   3.021   6.442
  145SAPE  H12A15826   2.008   3.119   6.491
  145SAPE  H12B15827   1.999   2.934   6.511
  145SAPE   C1115828   1.898   3.016   6.343
  145SAPE  H11A15829   1.793   3.012   6.377
  145SAPE  H11B15830   1.912   2.909   6.343
  145SAPE     P15831   1.807   3.190   6.178
  145SAPE   O1315832   1.703   3.130   6.092
  145SAPE   O1415833   1.765   3.249   6.308
  145SAPE   O1215834   1.920   3.082   6.215
  145SAPE   O1115835   1.883   3.299   6.095
  145SAPE    C115836   1.992   3.272   6.009
  145SAPE    HA15837   2.082   3.312   6.060
  145SAPE    HB15838   2.007   3.164   5.984
  145SAPE    C215839   1.973   3.344   5.875
  145SAPE    HS15840   1.969   3.455   5.890
  145SAPE   O2115841   1.857   3.293   5.811
  145SAPE   C2115842   1.756   3.369   5.799
  145SAPE   O2215843   1.740   3.482   5.841
  145SAPE   C2215844   1.667   3.296   5.707
  145SAPE   H2R15845   1.703   3.288   5.602
  145SAPE   H2S15846   1.652   3.193   5.747
  145SAPE    C315847   2.093   3.313   5.785
  145SAPE    HX15848   2.181   3.313   5.852
  145SAPE    HY15849   2.101   3.395   5.709
  145SAPE   O3115850   2.073   3.186   5.721
  145SAPE   C3115851   2.181   3.134   5.670
  145SAPE   O3215852   2.295   3.173   5.688
  145SAPE   C3215853   2.140   3.028   5.573
  145SAPE   H2X15854   2.116   2.935   5.629
  145SAPE   H2Y15855   2.222   3.003   5.502
  145SAPE   C2315856   1.538   3.365   5.697
  145SAPE   H3R15857   1.539   3.437   5.612
  145SAPE   H3S15858   1.502   3.426   5.784
  145SAPE   C2415859   1.449   3.243   5.675
  145SAPE   H4R15860   1.402   3.315   5.615
  145SAPE   H4S15861   1.391   3.217   5.767
  145SAPE   C2515862   1.452   3.134   5.574
  145SAPE   H5R15863   1.416   3.039   5.613
  145SAPE   C2615864   1.484   3.140   5.444
  145SAPE   H6R15865   1.470   3.048   5.385
  145SAPE   C2715866   1.528   3.257   5.361
  145SAPE   H7R15867   1.635   3.284   5.369
  145SAPE   H7S15868   1.480   3.350   5.400
  145SAPE   C2815869   1.489   3.224   5.218
  145SAPE   H8R15870   1.388   3.182   5.208
  145SAPE   C2915871   1.549   3.263   5.108
  145SAPE   H9R15872   1.488   3.277   5.016
  145SAPE  C21015873   1.669   3.346   5.111
  145SAPE  H10R15874   1.748   3.291   5.063
  145SAPE  H10S15875   1.702   3.383   5.211
  145SAPE  C21115876   1.660   3.459   5.025
  145SAPE  H11R15877   1.648   3.534   5.103
  145SAPE  C21215878   1.652   3.477   4.890
  145SAPE  H12R15879   1.673   3.574   4.839
  145SAPE  C21315880   1.652   3.370   4.793
  145SAPE  H13R15881   1.665   3.277   4.849
  145SAPE  H13S15882   1.741   3.385   4.728
  145SAPE  C21415883   1.518   3.364   4.724
  145SAPE  H14R15884   1.431   3.395   4.783
  145SAPE  C21515885   1.503   3.321   4.600
  145SAPE  H15R15886   1.404   3.302   4.557
  145SAPE  C21615887   1.619   3.275   4.519
  145SAPE  H16R15888   1.602   3.173   4.504
  145SAPE  H16S15889   1.715   3.259   4.570
  145SAPE  C21715890   1.642   3.357   4.395
  145SAPE  H17R15891   1.655   3.463   4.423
  145SAPE  H17S15892   1.568   3.356   4.312
  145SAPE  C21815893   1.773   3.313   4.344
  145SAPE  H18R15894   1.770   3.215   4.296
  145SAPE  H18S15895   1.861   3.305   4.410
  145SAPE  C21915896   1.821   3.422   4.261
  145SAPE  H19R15897   1.924   3.386   4.252
  145SAPE  H19S15898   1.818   3.525   4.274
  145SAPE  C22015899   1.754   3.435   4.141
  145SAPE  H20R15900   1.811   3.479   4.055
  145SAPE  H20S15901   1.647   3.413   4.124
  145SAPE  H20T15902   1.783   3.339   4.138
  145SAPE   C3315903   2.024   3.089   5.490
  145SAPE   H3X15904   2.067   3.151   5.410
  145SAPE   H3Y15905   1.936   3.133   5.542
  145SAPE   C3415906   1.958   2.980   5.425
  145SAPE   H4X15907   1.894   2.941   5.507
  145SAPE   H4Y15908   2.044   2.912   5.417
  145SAPE   C3515909   1.866   2.998   5.304
  145SAPE   H5X15910   1.774   3.046   5.341
  145SAPE   H5Y15911   1.839   2.898   5.263
  145SAPE   C3615912   1.926   3.069   5.184
  145SAPE   H6X15913   2.032   3.042   5.173
  145SAPE   H6Y15914   1.930   3.175   5.206
  145SAPE   C3715915   1.854   3.035   5.053
  145SAPE   H7X15916   1.752   3.073   5.052
  145SAPE   H7Y15917   1.838   2.927   5.052
  145SAPE   C3815918   1.934   3.083   4.930
  145SAPE   H8X15919   2.042   3.058   4.942
  145SAPE   H8Y15920   1.927   3.193   4.932
  145SAPE   C3915921   1.880   3.038   4.793
  145SAPE   H9X15922   1.769   3.042   4.799
  145SAPE   H9Y15923   1.911   2.936   4.763
  145SAPE  C31015924   1.938   3.103   4.668
  145SAPE  H10X15925   1.920   3.212   4.667
  145SAPE  H10Y15926   1.884   3.056   4.582
  145SAPE  C31115927   2.088   3.075   4.654
  145SAPE  H11X15928   2.096   2.966   4.631
  145SAPE  H11Y15929   2.140   3.090   4.751
  145SAPE  C31215930   2.158   3.157   4.545
  145SAPE  H12X15931   2.181   3.261   4.578
  145SAPE  H12Y15932   2.088   3.166   4.459
  145SAPE  C31315933   2.289   3.091   4.502
  145SAPE  H13X15934   2.353   3.073   4.592
  145SAPE  H13Y15935   2.348   3.157   4.435
  145SAPE  C31415936   2.271   2.954   4.436
  145SAPE  H14X15937   2.225   2.881   4.506
  145SAPE  H14Y15938   2.374   2.917   4.415
  145SAPE  C31515939   2.195   2.962   4.303
  145SAPE  H15X15940   2.222   3.058   4.252
  145SAPE  H15Y15941   2.086   2.967   4.321
  145SAPE  C31615942   2.236   2.844   4.214
  145SAPE  H16X15943   2.195   2.751   4.259
  145SAPE  H16Y15944   2.346   2.836   4.209
  145SAPE  C31715945   2.180   2.850   4.074
  145SAPE  H17X15946   2.187   2.750   4.023
  145SAPE  H17Y15947   2.228   2.924   4.007
  145SAPE  C31815948   2.037   2.892   4.081
  145SAPE  H18X15949   2.011   2.996   4.092
  145SAPE  H18Y15950   1.972   2.828   4.147
  145SAPE  H18Z15951   2.017   2.887   3.973
  146SAPE     N15952   5.048   2.521   6.158
  146SAPE   HN115953   4.973   2.482   6.099
  146SAPE   HN215954   5.127   2.453   6.169
  146SAPE   HN315955   5.017   2.538   6.256
  146SAPE   C1215956   5.097   2.646   6.088
  146SAPE  H12A15957   5.044   2.734   6.129
  146SAPE  H12B15958   5.076   2.634   5.980
  146SAPE   C1115959   5.246   2.664   6.109
  146SAPE  H11A15960   5.283   2.747   6.044
  146SAPE  H11B15961   5.305   2.574   6.079
  146SAPE     P15962   5.355   2.618   6.342
  146SAPE   O1315963   5.391   2.696   6.461
  146SAPE   O1415964   5.287   2.488   6.360
  146SAPE   O1215965   5.264   2.702   6.244
  146SAPE   O1115966   5.482   2.589   6.258
  146SAPE    C115967   5.556   2.702   6.219
  146SAPE    HA15968   5.501   2.800   6.211
  146SAPE    HB15969   5.639   2.717   6.292
  146SAPE    C215970   5.618   2.673   6.084
  146SAPE    HS15971   5.684   2.746   6.089
  146SAPE   O2115972   5.530   2.692   5.973
  146SAPE   C2115973   5.525   2.820   5.937
  146SAPE   O2215974   5.603   2.907   5.972
  146SAPE   C2215975   5.415   2.838   5.835
  146SAPE   H2R15976   5.323   2.876   5.880
  146SAPE   H2S15977   5.448   2.916   5.770
  146SAPE    C315978   5.684   2.534   6.072
  146SAPE    HX15979   5.737   2.515   6.168
  146SAPE    HY15980   5.766   2.530   5.995
  146SAPE   O3115981   5.582   2.437   6.053
  146SAPE   C3115982   5.564   2.405   5.929
  146SAPE   O3215983   5.637   2.435   5.834
  146SAPE   C3215984   5.452   2.301   5.926
  146SAPE   H2X15985   5.356   2.342   5.900
  146SAPE   H2Y15986   5.453   2.242   6.023
  146SAPE   C2315987   5.425   2.749   5.710
  146SAPE   H3R15988   5.533   2.722   5.705
  146SAPE   H3S15989   5.406   2.804   5.614
  146SAPE   C2415990   5.333   2.630   5.710
  146SAPE   H4R15991   5.335   2.578   5.808
  146SAPE   H4S15992   5.379   2.561   5.635
  146SAPE   C2515993   5.193   2.674   5.676
  146SAPE   H5R15994   5.140   2.730   5.754
  146SAPE   C2615995   5.137   2.661   5.554
  146SAPE   H6R15996   5.033   2.695   5.537
  146SAPE   C2715997   5.207   2.600   5.437
  146SAPE   H7R15998   5.216   2.492   5.457
  146SAPE   H7S15999   5.310   2.640   5.431
  146SAPE   C2816000   5.135   2.606   5.305
  146SAPE   H8R16001   5.028   2.582   5.310
  146SAPE   C2916002   5.189   2.638   5.185
  146SAPE   H9R16003   5.123   2.664   5.101
  146SAPE  C21016004   5.332   2.676   5.160
  146SAPE  H10R16005   5.365   2.619   5.072
  146SAPE  H10S16006   5.392   2.643   5.247
  146SAPE  C21116007   5.357   2.822   5.141
  146SAPE  H11R16008   5.330   2.872   5.234
  146SAPE  C21216009   5.401   2.893   5.035
  146SAPE  H12R16010   5.425   3.000   5.047
  146SAPE  C21316011   5.440   2.836   4.900
  146SAPE  H13R16012   5.430   2.911   4.819
  146SAPE  H13S16013   5.370   2.754   4.874
  146SAPE  C21416014   5.578   2.778   4.906
  146SAPE  H14R16015   5.599   2.717   4.994
  146SAPE  C21516016   5.679   2.794   4.820
  146SAPE  H15R16017   5.775   2.745   4.838
  146SAPE  C21616018   5.678   2.875   4.698
  146SAPE  H16R16019   5.778   2.918   4.669
  146SAPE  H16S16020   5.599   2.954   4.695
  146SAPE  C21716021   5.643   2.792   4.587
  146SAPE  H17R16022   5.539   2.748   4.598
  146SAPE  H17S16023   5.708   2.705   4.557
  146SAPE  C21816024   5.663   2.914   4.495
  146SAPE  H18R16025   5.768   2.930   4.457
  146SAPE  H18S16026   5.584   2.994   4.479
  146SAPE  C21916027   5.621   2.856   4.393
  146SAPE  H19R16028   5.525   2.803   4.423
  146SAPE  H19S16029   5.708   2.776   4.381
  146SAPE  C22016030   5.585   2.945   4.277
  146SAPE  H20R16031   5.489   2.942   4.222
  146SAPE  H20S16032   5.548   2.892   4.185
  146SAPE  H20T16033   5.675   2.988   4.220
  146SAPE   C3316034   5.477   2.206   5.813
  146SAPE   H3X16035   5.439   2.108   5.844
  146SAPE   H3Y16036   5.584   2.222   5.807
  146SAPE   C3416037   5.454   2.230   5.666
  146SAPE   H4X16038   5.508   2.323   5.641
  146SAPE   H4Y16039   5.345   2.231   5.672
  146SAPE   C3516040   5.486   2.122   5.560
  146SAPE   H5X16041   5.436   2.026   5.584
  146SAPE   H5Y16042   5.591   2.097   5.531
  146SAPE   C3616043   5.450   2.168   5.431
  146SAPE   H6X16044   5.349   2.210   5.430
  146SAPE   H6Y16045   5.460   2.072   5.371
  146SAPE   C3716046   5.549   2.268   5.385
  146SAPE   H7X16047   5.655   2.250   5.416
  146SAPE   H7Y16048   5.530   2.377   5.404
  146SAPE   C3816049   5.516   2.230   5.247
  146SAPE   H8X16050   5.560   2.133   5.213
  146SAPE   H8Y16051   5.572   2.295   5.201
  146SAPE   C3916052   5.420   2.315   5.167
  146SAPE   H9X16053   5.448   2.425   5.160
  146SAPE   H9Y16054   5.331   2.298   5.226
  146SAPE  C31016055   5.408   2.267   5.026
  146SAPE  H10X16056   5.426   2.156   5.026
  146SAPE  H10Y16057   5.480   2.324   4.965
  146SAPE  C31116058   5.278   2.295   4.966
  146SAPE  H11X16059   5.240   2.386   5.016
  146SAPE  H11Y16060   5.230   2.201   4.996
  146SAPE  C31216061   5.270   2.306   4.816
  146SAPE  H12X16062   5.286   2.203   4.773
  146SAPE  H12Y16063   5.339   2.379   4.774
  146SAPE  C31316064   5.138   2.361   4.772
  146SAPE  H13X16065   5.065   2.301   4.824
  146SAPE  H13Y16066   5.135   2.346   4.662
  146SAPE  C31416067   5.099   2.503   4.812
  146SAPE  H14X16068   5.156   2.533   4.901
  146SAPE  H14Y16069   4.991   2.501   4.841
  146SAPE  C31516070   5.114   2.604   4.699
  146SAPE  H15X16071   5.088   2.704   4.740
  146SAPE  H15Y16072   5.040   2.582   4.619
  146SAPE  C31616073   5.252   2.606   4.633
  146SAPE  H16X16074   5.288   2.504   4.610
  146SAPE  H16Y16075   5.329   2.651   4.699
  146SAPE  C31716076   5.246   2.679   4.498
  146SAPE  H17X16077   5.200   2.611   4.422
  146SAPE  H17Y16078   5.353   2.687   4.473
  146SAPE  C31816079   5.183   2.820   4.501
  146SAPE  H18X16080   5.213   2.869   4.597
  146SAPE  H18Y16081   5.072   2.815   4.500
  146SAPE  H18Z16082   5.215   2.888   4.419
  147SAPE     N16083   3.761   6.047   6.443
  147SAPE   HN116084   3.661   6.071   6.429
  147SAPE   HN216085   3.769   5.961   6.503
  147SAPE   HN316086   3.814   6.128   6.482
  147SAPE   C1216087   3.820   6.019   6.309
  147SAPE  H12A16088   3.905   5.951   6.325
  147SAPE  H12B16089   3.856   6.114   6.265
  147SAPE   C1116090   3.713   5.956   6.221
  147SAPE  H11A16091   3.739   5.960   6.113
  147SAPE  H11B16092   3.621   6.016   6.229
  147SAPE     P16093   3.776   5.702   6.211
  147SAPE   O1316094   3.913   5.714   6.262
  147SAPE   O1416095   3.699   5.578   6.238
  147SAPE   O1216096   3.689   5.823   6.267
  147SAPE   O1116097   3.772   5.738   6.059
  147SAPE    C116098   3.649   5.749   5.987
  147SAPE    HA16099   3.558   5.742   6.051
  147SAPE    HB16100   3.652   5.845   5.929
  147SAPE    C216101   3.643   5.645   5.879
  147SAPE    HS16102   3.589   5.554   5.924
  147SAPE   O2116103   3.784   5.635   5.839
  147SAPE   C2116104   3.802   5.515   5.795
  147SAPE   O2216105   3.711   5.438   5.801
  147SAPE   C2216106   3.932   5.488   5.728
  147SAPE   H2R16107   4.005   5.449   5.798
  147SAPE   H2S16108   3.931   5.408   5.651
  147SAPE    C316109   3.557   5.691   5.760
  147SAPE    HX16110   3.625   5.749   5.695
  147SAPE    HY16111   3.473   5.752   5.800
  147SAPE   O3116112   3.505   5.578   5.693
  147SAPE   C3116113   3.484   5.592   5.565
  147SAPE   O3216114   3.503   5.689   5.496
  147SAPE   C3216115   3.423   5.469   5.514
  147SAPE   H2X16116   3.345   5.497   5.445
  147SAPE   H2Y16117   3.382   5.398   5.586
  147SAPE   C2316118   3.973   5.622   5.681
  147SAPE   H3R16119   3.995   5.690   5.768
  147SAPE   H3S16120   3.901   5.675   5.615
  147SAPE   C2416121   4.092   5.606   5.599
  147SAPE   H4R16122   4.175   5.558   5.657
  147SAPE   H4S16123   4.109   5.717   5.592
  147SAPE   C2516124   4.090   5.538   5.467
  147SAPE   H5R16125   4.088   5.429   5.475
  147SAPE   C2616126   4.098   5.596   5.346
  147SAPE   H6R16127   4.100   5.528   5.264
  147SAPE   C2716128   4.110   5.741   5.308
  147SAPE   H7R16129   4.187   5.790   5.369
  147SAPE   H7S16130   4.014   5.786   5.336
  147SAPE   C2816131   4.133   5.803   5.175
  147SAPE   H8R16132   4.242   5.819   5.158
  147SAPE   C2916133   4.057   5.798   5.064
  147SAPE   H9R16134   4.107   5.834   4.972
  147SAPE  C21016135   3.926   5.726   5.036
  147SAPE  H10R16136   3.887   5.674   5.126
  147SAPE  H10S16137   3.926   5.648   4.956
  147SAPE  C21116138   3.847   5.824   4.961
  147SAPE  H11R16139   3.907   5.879   4.886
  147SAPE  C21216140   3.716   5.845   4.967
  147SAPE  H12R16141   3.682   5.929   4.907
  147SAPE  C21316142   3.614   5.775   5.053
  147SAPE  H13R16143   3.632   5.796   5.161
  147SAPE  H13S16144   3.623   5.664   5.043
  147SAPE  C21416145   3.480   5.831   5.013
  147SAPE  H14R16146   3.469   5.939   5.030
  147SAPE  C21516147   3.372   5.765   4.969
  147SAPE  H15R16148   3.281   5.823   4.944
  147SAPE  C21616149   3.365   5.616   4.951
  147SAPE  H16R16150   3.288   5.581   5.021
  147SAPE  H16S16151   3.460   5.568   4.982
  147SAPE  C21716152   3.342   5.565   4.808
  147SAPE  H17R16153   3.246   5.600   4.764
  147SAPE  H17S16154   3.336   5.453   4.812
  147SAPE  C21816155   3.456   5.608   4.715
  147SAPE  H18R16156   3.554   5.572   4.755
  147SAPE  H18S16157   3.460   5.719   4.710
  147SAPE  C21916158   3.438   5.558   4.573
  147SAPE  H19R16159   3.401   5.453   4.577
  147SAPE  H19S16160   3.539   5.557   4.527
  147SAPE  C22016161   3.348   5.648   4.487
  147SAPE  H20R16162   3.401   5.743   4.461
  147SAPE  H20S16163   3.255   5.674   4.541
  147SAPE  H20T16164   3.324   5.599   4.391
  147SAPE   C3316165   3.517   5.377   5.467
  147SAPE   H3X16166   3.468   5.277   5.464
  147SAPE   H3Y16167   3.600   5.369   5.534
  147SAPE   C3416168   3.554   5.438   5.331
  147SAPE   H4X16169   3.602   5.534   5.335
  147SAPE   H4Y16170   3.476   5.420   5.252
  147SAPE   C3516171   3.671   5.379   5.274
  147SAPE   H5X16172   3.593   5.304   5.307
  147SAPE   H5Y16173   3.764   5.358   5.331
  147SAPE   C3616174   3.702   5.373   5.119
  147SAPE   H6X16175   3.767   5.461   5.126
  147SAPE   H6Y16176   3.606   5.358   5.065
  147SAPE   C3716177   3.806   5.278   5.047
  147SAPE   H7X16178   3.790   5.190   4.999
  147SAPE   H7Y16179   3.868   5.245   5.119
  147SAPE   C3816180   3.908   5.296   4.948
  147SAPE   H8X16181   3.980   5.212   4.917
  147SAPE   H8Y16182   3.952   5.365   5.011
  147SAPE   C3916183   3.828   5.346   4.841
  147SAPE   H9X16184   3.757   5.422   4.872
  147SAPE   H9Y16185   3.765   5.276   4.800
  147SAPE  C31016186   3.925   5.378   4.746
  147SAPE  H10X16187   4.004   5.298   4.732
  147SAPE  H10Y16188   3.978   5.445   4.820
  147SAPE  C31116189   3.858   5.437   4.617
  147SAPE  H11X16190   3.757   5.463   4.647
  147SAPE  H11Y16191   3.866   5.354   4.541
  147SAPE  C31216192   3.885   5.583   4.559
  147SAPE  H12X16193   3.944   5.514   4.509
  147SAPE  H12Y16194   3.948   5.668   4.597
  147SAPE  C31316195   3.875   5.648   4.433
  147SAPE  H13X16196   3.871   5.562   4.360
  147SAPE  H13Y16197   3.960   5.722   4.413
  147SAPE  C31416198   3.771   5.733   4.491
  147SAPE  H14X16199   3.817   5.810   4.559
  147SAPE  H14Y16200   3.703   5.666   4.549
  147SAPE  C31516201   3.709   5.783   4.373
  147SAPE  H15X16202   3.776   5.866   4.339
  147SAPE  H15Y16203   3.613   5.824   4.402
  147SAPE  C31616204   3.691   5.664   4.273
  147SAPE  H16X16205   3.648   5.571   4.311
  147SAPE  H16Y16206   3.787   5.633   4.219
  147SAPE  C31716207   3.600   5.711   4.173
  147SAPE  H17X16208   3.525   5.790   4.202
  147SAPE  H17Y16209   3.559   5.655   4.091
  147SAPE  C31816210   3.693   5.774   4.092
  147SAPE  H18X16211   3.795   5.777   4.056
  147SAPE  H18Y16212   3.774   5.810   4.156
  147SAPE  H18Z16213   3.627   5.822   4.022
  148SAPE     N16214   1.887   2.100   6.098
  148SAPE   HN116215   1.829   2.132   6.018
  148SAPE   HN216216   1.968   2.166   6.108
  148SAPE   HN316217   1.923   2.005   6.078
  148SAPE   C1216218   1.807   2.103   6.227
  148SAPE  H12A16219   1.877   2.076   6.309
  148SAPE  H12B16220   1.726   2.029   6.218
  148SAPE   C1116221   1.749   2.242   6.258
  148SAPE  H11A16222   1.651   2.235   6.309
  148SAPE  H11B16223   1.731   2.287   6.161
  148SAPE     P16224   1.954   2.411   6.288
  148SAPE   O1316225   2.020   2.467   6.406
  148SAPE   O1416226   2.029   2.328   6.188
  148SAPE   O1216227   1.834   2.322   6.339
  148SAPE   O1116228   1.884   2.529   6.216
  148SAPE    C116229   1.787   2.617   6.274
  148SAPE    HA16230   1.696   2.561   6.309
  148SAPE    HB16231   1.820   2.668   6.365
  148SAPE    C216232   1.748   2.719   6.163
  148SAPE    HS16233   1.665   2.783   6.199
  148SAPE   O2116234   1.707   2.664   6.043
  148SAPE   C2116235   1.686   2.541   6.044
  148SAPE   O2216236   1.640   2.467   6.128
  148SAPE   C2216237   1.695   2.497   5.909
  148SAPE   H2R16238   1.594   2.462   5.916
  148SAPE   H2S16239   1.713   2.578   5.836
  148SAPE    C316240   1.861   2.808   6.116
  148SAPE    HX16241   1.913   2.825   6.201
  148SAPE    HY16242   1.821   2.903   6.072
  148SAPE   O3116243   1.980   2.751   6.061
  148SAPE   C3116244   1.976   2.733   5.935
  148SAPE   O3216245   1.891   2.775   5.858
  148SAPE   C3216246   2.095   2.644   5.898
  148SAPE   H2X16247   2.072   2.541   5.934
  148SAPE   H2Y16248   2.184   2.676   5.956
  148SAPE   C2316249   1.754   2.363   5.891
  148SAPE   H3R16250   1.701   2.290   5.956
  148SAPE   H3S16251   1.855   2.395   5.924
  148SAPE   C2416252   1.774   2.323   5.748
  148SAPE   H4R16253   1.862   2.260   5.746
  148SAPE   H4S16254   1.807   2.414   5.694
  148SAPE   C2516255   1.698   2.229   5.667
  148SAPE   H5R16256   1.614   2.167   5.712
  148SAPE   C2616257   1.672   2.286   5.552
  148SAPE   H6R16258   1.571   2.232   5.547
  148SAPE   C2716259   1.698   2.441   5.477
  148SAPE   H7R16260   1.722   2.521   5.549
  148SAPE   H7S16261   1.611   2.517   5.455
  148SAPE   C2816262   1.705   2.489   5.334
  148SAPE   H8R16263   1.702   2.414   5.260
  148SAPE   C2916264   1.699   2.606   5.276
  148SAPE   H9R16265   1.722   2.602   5.170
  148SAPE  C21016266   1.680   2.734   5.349
  148SAPE  H10R16267   1.583   2.745   5.402
  148SAPE  H10S16268   1.679   2.813   5.274
  148SAPE  C21116269   1.785   2.735   5.454
  148SAPE  H11R16270   1.744   2.780   5.547
  148SAPE  C21216271   1.919   2.715   5.440
  148SAPE  H12R16272   1.977   2.755   5.524
  148SAPE  C21316273   2.010   2.688   5.319
  148SAPE  H13R16274   1.972   2.600   5.266
  148SAPE  H13S16275   2.105   2.667   5.371
  148SAPE  C21416276   2.058   2.792   5.217
  148SAPE  H14R16277   2.105   2.884   5.253
  148SAPE  C21516278   2.050   2.799   5.086
  148SAPE  H15R16279   2.065   2.898   5.040
  148SAPE  C21616280   1.989   2.699   5.002
  148SAPE  H16R16281   1.961   2.611   5.063
  148SAPE  H16S16282   2.065   2.679   4.925
  148SAPE  C21716283   1.863   2.730   4.930
  148SAPE  H17R16284   1.858   2.825   4.886
  148SAPE  H17S16285   1.782   2.745   5.003
  148SAPE  C21816286   1.854   2.633   4.816
  148SAPE  H18R16287   1.815   2.536   4.853
  148SAPE  H18S16288   1.946   2.631   4.754
  148SAPE  C21916289   1.766   2.679   4.711
  148SAPE  H19R16290   1.766   2.783   4.675
  148SAPE  H19S16291   1.681   2.696   4.764
  148SAPE  C22016292   1.729   2.573   4.615
  148SAPE  H20R16293   1.790   2.568   4.526
  148SAPE  H20S16294   1.656   2.632   4.563
  148SAPE  H20T16295   1.674   2.482   4.650
  148SAPE   C3316296   2.119   2.642   5.745
  148SAPE   H3X16297   2.142   2.744   5.707
  148SAPE   H3Y16298   2.032   2.602   5.691
  148SAPE   C3416299   2.238   2.557   5.704
  148SAPE   H4X16300   2.298   2.586   5.787
  148SAPE   H4Y16301   2.284   2.587   5.608
  148SAPE   C3516302   2.261   2.413   5.743
  148SAPE   H5X16303   2.255   2.403   5.854
  148SAPE   H5Y16304   2.366   2.387   5.716
  148SAPE   C3616305   2.156   2.329   5.675
  148SAPE   H6X16306   2.057   2.365   5.706
  148SAPE   H6Y16307   2.173   2.230   5.718
  148SAPE   C3716308   2.167   2.335   5.522
  148SAPE   H7X16309   2.268   2.310   5.514
  148SAPE   H7Y16310   2.178   2.433   5.473
  148SAPE   C3816311   2.096   2.233   5.432
  148SAPE   H8X16312   2.071   2.140   5.487
  148SAPE   H8Y16313   2.161   2.205   5.345
  148SAPE   C3916314   1.969   2.293   5.380
  148SAPE   H9X16315   1.989   2.401   5.364
  148SAPE   H9Y16316   1.896   2.283   5.462
  148SAPE  C31016317   1.915   2.228   5.253
  148SAPE  H10X16318   1.816   2.187   5.278
  148SAPE  H10Y16319   1.973   2.140   5.220
  148SAPE  C31116320   1.900   2.330   5.141
  148SAPE  H11X16321   1.996   2.342   5.087
  148SAPE  H11Y16322   1.877   2.428   5.185
  148SAPE  C31216323   1.796   2.298   5.036
  148SAPE  H12X16324   1.800   2.380   4.962
  148SAPE  H12Y16325   1.692   2.309   5.067
  148SAPE  C31316326   1.821   2.174   4.955
  148SAPE  H13X16327   1.785   2.078   5.000
  148SAPE  H13Y16328   1.931   2.165   4.939
  148SAPE  C31416329   1.751   2.208   4.824
  148SAPE  H14X16330   1.794   2.296   4.775
  148SAPE  H14Y16331   1.640   2.216   4.840
  148SAPE  C31516332   1.772   2.107   4.722
  148SAPE  H15X16333   1.716   2.044   4.790
  148SAPE  H15Y16334   1.877   2.074   4.712
  148SAPE  C31616335   1.693   2.111   4.595
  148SAPE  H16X16336   1.584   2.102   4.618
  148SAPE  H16Y16337   1.730   2.028   4.535
  148SAPE  C31716338   1.728   2.220   4.500
  148SAPE  H17X16339   1.839   2.235   4.502
  148SAPE  H17Y16340   1.673   2.306   4.543
  148SAPE  C31816341   1.685   2.194   4.356
  148SAPE  H18X16342   1.586   2.145   4.353
  148SAPE  H18Y16343   1.756   2.130   4.300
  148SAPE  H18Z16344   1.676   2.292   4.307
  149SAPE     N16345   3.150   1.452   6.502
  149SAPE   HN116346   3.091   1.371   6.529
  149SAPE   HN216347   3.168   1.515   6.583
  149SAPE   HN316348   3.109   1.503   6.421
  149SAPE   C1216349   3.280   1.396   6.453
  149SAPE  H12A16350   3.327   1.358   6.543
  149SAPE  H12B16351   3.346   1.477   6.418
  149SAPE   C1116352   3.252   1.295   6.341
  149SAPE  H11A16353   3.195   1.209   6.382
  149SAPE  H11B16354   3.346   1.250   6.301
  149SAPE     P16355   3.239   1.467   6.143
  149SAPE   O1316356   3.179   1.594   6.191
  149SAPE   O1416357   3.385   1.454   6.146
  149SAPE   O1216358   3.174   1.358   6.239
  149SAPE   O1116359   3.180   1.435   6.001
  149SAPE    C116360   3.039   1.432   5.987
  149SAPE    HA16361   2.995   1.351   6.049
  149SAPE    HB16362   2.992   1.530   6.016
  149SAPE    C216363   3.001   1.414   5.840
  149SAPE    HS16364   3.026   1.308   5.811
  149SAPE   O2116365   3.071   1.511   5.761
  149SAPE   C2116366   3.126   1.472   5.649
  149SAPE   O2216367   3.135   1.358   5.607
  149SAPE   C2216368   3.180   1.597   5.579
  149SAPE   H2R16369   3.157   1.685   5.642
  149SAPE   H2S16370   3.290   1.590   5.575
  149SAPE    C316371   2.853   1.441   5.819
  149SAPE    HX16372   2.806   1.527   5.866
  149SAPE    HY16373   2.793   1.371   5.882
  149SAPE   O3116374   2.846   1.458   5.673
  149SAPE   C3116375   2.746   1.399   5.623
  149SAPE   O3216376   2.655   1.359   5.684
  149SAPE   C3216377   2.732   1.374   5.476
  149SAPE   H2X16378   2.795   1.459   5.444
  149SAPE   H2Y16379   2.625   1.386   5.464
  149SAPE   C2316380   3.125   1.614   5.436
  149SAPE   H3R16381   3.015   1.629   5.438
  149SAPE   H3S16382   3.146   1.522   5.377
  149SAPE   C2416383   3.191   1.735   5.368
  149SAPE   H4R16384   3.301   1.727   5.383
  149SAPE   H4S16385   3.158   1.826   5.423
  149SAPE   C2516386   3.156   1.744   5.221
  149SAPE   H5R16387   3.053   1.776   5.201
  149SAPE   C2616388   3.233   1.713   5.115
  149SAPE   H6R16389   3.200   1.736   5.014
  149SAPE   C2716390   3.373   1.661   5.114
  149SAPE   H7R16391   3.440   1.734   5.167
  149SAPE   H7S16392   3.417   1.645   5.014
  149SAPE   C2816393   3.372   1.529   5.179
  149SAPE   H8R16394   3.420   1.539   5.267
  149SAPE   C2916395   3.334   1.404   5.158
  149SAPE   H9R16396   3.360   1.328   5.234
  149SAPE  C21016397   3.268   1.359   5.038
  149SAPE  H10R16398   3.256   1.446   4.970
  149SAPE  H10S16399   3.169   1.330   5.076
  149SAPE  C21116400   3.339   1.244   4.974
  149SAPE  H11R16401   3.339   1.150   5.032
  149SAPE  C21216402   3.391   1.246   4.850
  149SAPE  H12R16403   3.451   1.160   4.818
  149SAPE  C21316404   3.387   1.362   4.753
  149SAPE  H13R16405   3.443   1.448   4.796
  149SAPE  H13S16406   3.281   1.392   4.739
  149SAPE  C21416407   3.448   1.338   4.618
  149SAPE  H14R16408   3.534   1.402   4.596
  149SAPE  C21516409   3.401   1.255   4.523
  149SAPE  H15R16410   3.455   1.244   4.428
  149SAPE  C21616411   3.279   1.168   4.532
  149SAPE  H16R16412   3.268   1.129   4.635
  149SAPE  H16S16413   3.291   1.078   4.466
  149SAPE  C21716414   3.153   1.241   4.484
  149SAPE  H17R16415   3.171   1.288   4.385
  149SAPE  H17S16416   3.126   1.325   4.553
  149SAPE  C21816417   3.033   1.145   4.479
  149SAPE  H18R16418   2.942   1.208   4.485
  149SAPE  H18S16419   3.032   1.081   4.570
  149SAPE  C21916420   3.025   1.052   4.357
  149SAPE  H19R16421   3.111   0.981   4.358
  149SAPE  H19S16422   3.030   1.108   4.261
  149SAPE  C22016423   2.896   0.971   4.358
  149SAPE  H20R16424   2.874   0.929   4.459
  149SAPE  H20S16425   2.898   0.887   4.285
  149SAPE  H20T16426   2.813   1.039   4.333
  149SAPE   C3316427   2.734   1.231   5.392
  149SAPE   H3X16428   2.694   1.140   5.423
  149SAPE   H3Y16429   2.833   1.243   5.433
  149SAPE   C3416430   2.714   1.179   5.235
  149SAPE   H4X16431   2.676   1.260   5.186
  149SAPE   H4Y16432   2.615   1.154   5.216
  149SAPE   C3516433   2.817   1.107   5.129
  149SAPE   H5X16434   2.801   1.001   5.141
  149SAPE   H5Y16435   2.925   1.115   5.133
  149SAPE   C3616436   2.817   1.146   4.976
  149SAPE   H6X16437   2.702   1.140   4.991
  149SAPE   H6Y16438   2.846   1.072   4.910
  149SAPE   C3716439   2.897   1.269   4.870
  149SAPE   H7X16440   2.855   1.379   4.858
  149SAPE   H7Y16441   2.873   1.227   4.779
  149SAPE   C3816442   3.002   1.383   4.863
  149SAPE   H8X16443   3.006   1.374   4.752
  149SAPE   H8Y16444   3.061   1.320   4.925
  149SAPE   C3916445   2.999   1.536   4.917
  149SAPE   H9X16446   3.103   1.555   4.897
  149SAPE   H9Y16447   2.967   1.565   5.021
  149SAPE  C31016448   2.938   1.652   4.853
  149SAPE  H10X16449   2.884   1.734   4.885
  149SAPE  H10Y16450   2.838   1.610   4.871
  149SAPE  C31116451   2.994   1.703   4.721
  149SAPE  H11X16452   2.925   1.783   4.686
  149SAPE  H11Y16453   2.998   1.634   4.635
  149SAPE  C31216454   3.128   1.753   4.740
  149SAPE  H12X16455   3.192   1.662   4.743
  149SAPE  H12Y16456   3.119   1.802   4.839
  149SAPE  C31316457   3.153   1.849   4.627
  149SAPE  H13X16458   3.214   1.926   4.677
  149SAPE  H13Y16459   3.058   1.894   4.587
  149SAPE  C31416460   3.235   1.788   4.517
  149SAPE  H14X16461   3.325   1.743   4.563
  149SAPE  H14Y16462   3.260   1.863   4.438
  149SAPE  C31516463   3.170   1.675   4.447
  149SAPE  H15X16464   3.137   1.592   4.514
  149SAPE  H15Y16465   3.246   1.624   4.383
  149SAPE  C31616466   3.059   1.737   4.364
  149SAPE  H16X16467   3.094   1.818   4.303
  149SAPE  H16Y16468   2.969   1.791   4.414
  149SAPE  C31716469   3.014   1.625   4.267
  149SAPE  H17X16470   2.905   1.662   4.244
  149SAPE  H17Y16471   2.994   1.609   4.377
  149SAPE  C31816472   3.086   1.463   4.167
  149SAPE  H18X16473   3.183   1.434   4.205
  149SAPE  H18Y16474   3.040   1.481   4.075
  149SAPE  H18Z16475   3.041   1.349   4.153
  150SAPE     N16476   5.967   4.000   6.098
  150SAPE   HN116477   5.962   4.093   6.050
  150SAPE   HN216478   6.060   3.953   6.086
  150SAPE   HN316479   5.897   3.935   6.058
  150SAPE   C1216480   5.944   4.021   6.245
  150SAPE  H12A16481   5.842   3.985   6.268
  150SAPE  H12B16482   5.953   4.131   6.262
  150SAPE   C1116483   6.046   3.951   6.337
  150SAPE  H11A16484   6.042   3.999   6.437
  150SAPE  H11B16485   6.150   3.965   6.301
  150SAPE     P16486   6.047   3.698   6.264
  150SAPE   O1316487   6.103   3.582   6.337
  150SAPE   O1416488   5.929   3.690   6.176
  150SAPE   O1216489   6.013   3.816   6.361
  150SAPE   O1116490   6.161   3.764   6.176
  150SAPE    C116491   6.290   3.707   6.168
  150SAPE    HA16492   6.334   3.728   6.264
  150SAPE    HB16493   6.283   3.596   6.161
  150SAPE    C216494   6.373   3.778   6.057
  150SAPE    HS16495   6.420   3.868   6.103
  150SAPE   O2116496   6.277   3.799   5.950
  150SAPE   C2116497   6.298   3.903   5.875
  150SAPE   O2216498   6.362   3.998   5.907
  150SAPE   C2216499   6.228   3.911   5.746
  150SAPE   H2R16500   6.198   3.811   5.713
  150SAPE   H2S16501   6.141   3.974   5.771
  150SAPE    C316502   6.490   3.709   5.988
  150SAPE    HX16503   6.585   3.685   6.040
  150SAPE    HY16504   6.552   3.765   5.924
  150SAPE   O3116505   6.433   3.599   5.922
  150SAPE   C3116506   6.520   3.541   5.855
  150SAPE   O3216507   6.640   3.542   5.876
  150SAPE   C3216508   6.444   3.498   5.741
  150SAPE   H2X16509   6.396   3.402   5.751
  150SAPE   H2Y16510   6.535   3.475   5.702
  150SAPE   C2316511   6.309   3.995   5.644
  150SAPE   H3R16512   6.393   3.930   5.609
  150SAPE   H3S16513   6.351   4.090   5.687
  150SAPE   C2416514   6.231   4.031   5.518
  150SAPE   H4R16515   6.189   3.935   5.483
  150SAPE   H4S16516   6.306   4.064   5.442
  150SAPE   C2516517   6.118   4.131   5.528
  150SAPE   H5R16518   6.091   4.172   5.627
  150SAPE   C2616519   6.046   4.174   5.423
  150SAPE   H6R16520   5.959   4.238   5.445
  150SAPE   C2716521   6.064   4.130   5.279
  150SAPE   H7R16522   5.963   4.122   5.235
  150SAPE   H7S16523   6.104   4.026   5.276
  150SAPE   C2816524   6.142   4.220   5.185
  150SAPE   H8R16525   6.096   4.318   5.166
  150SAPE   C2916526   6.257   4.190   5.121
  150SAPE   H9R16527   6.303   4.262   5.052
  150SAPE  C21016528   6.329   4.059   5.133
  150SAPE  H10R16529   6.278   3.974   5.083
  150SAPE  H10S16530   6.354   4.037   5.238
  150SAPE  C21116531   6.460   4.068   5.070
  150SAPE  H11R16532   6.540   4.077   5.145
  150SAPE  C21216533   6.479   4.065   4.939
  150SAPE  H12R16534   6.568   4.098   4.885
  150SAPE  C21316535   6.384   4.052   4.840
  150SAPE  H13R16536   6.446   4.094   4.767
  150SAPE  H13S16537   6.308   4.129   4.852
  150SAPE  C21416538   6.352   3.911   4.806
  150SAPE  H14R16539   6.438   3.844   4.819
  150SAPE  C21516540   6.277   3.882   4.700
  150SAPE  H15R16541   6.264   3.780   4.667
  150SAPE  C21616542   6.218   3.983   4.608
  150SAPE  H16R16543   6.206   4.082   4.654
  150SAPE  H16S16544   6.139   3.949   4.658
  150SAPE  C21716545   6.210   3.990   4.443
  150SAPE  H17R16546   6.159   4.085   4.411
  150SAPE  H17S16547   6.160   3.900   4.403
  150SAPE  C21816548   6.331   3.994   4.350
  150SAPE  H18R16549   6.392   3.902   4.366
  150SAPE  H18S16550   6.382   4.088   4.371
  150SAPE  C21916551   6.351   4.059   4.222
  150SAPE  H19R16552   6.456   4.041   4.203
  150SAPE  H19S16553   6.341   4.171   4.216
  150SAPE  C22016554   6.256   3.983   4.146
  150SAPE  H20R16555   6.279   3.873   4.151
  150SAPE  H20S16556   6.265   4.026   4.048
  150SAPE  H20T16557   6.157   4.008   4.188
  150SAPE   C3316558   6.406   3.607   5.639
  150SAPE   H3X16559   6.501   3.667   5.619
  150SAPE   H3Y16560   6.318   3.650   5.683
  150SAPE   C3416561   6.352   3.572   5.503
  150SAPE   H4X16562   6.278   3.494   5.487
  150SAPE   H4Y16563   6.457   3.555   5.480
  150SAPE   C3516564   6.295   3.661   5.394
  150SAPE   H5X16565   6.373   3.727   5.352
  150SAPE   H5Y16566   6.214   3.709   5.451
  150SAPE   C3616567   6.224   3.586   5.275
  150SAPE   H6X16568   6.168   3.495   5.302
  150SAPE   H6Y16569   6.289   3.555   5.194
  150SAPE   C3716570   6.144   3.686   5.198
  150SAPE   H7X16571   6.215   3.756   5.146
  150SAPE   H7Y16572   6.082   3.740   5.272
  150SAPE   C3816573   6.057   3.624   5.093
  150SAPE   H8X16574   5.978   3.558   5.135
  150SAPE   H8Y16575   6.119   3.560   5.027
  150SAPE   C3916576   5.995   3.740   5.019
  150SAPE   H9X16577   6.070   3.811   4.981
  150SAPE   H9Y16578   5.923   3.795   5.081
  150SAPE  C31016579   5.915   3.700   4.903
  150SAPE  H10X16580   5.884   3.792   4.853
  150SAPE  H10Y16581   5.828   3.654   4.951
  150SAPE  C31116582   5.990   3.611   4.809
  150SAPE  H11X16583   6.004   3.521   4.872
  150SAPE  H11Y16584   6.081   3.654   4.767
  150SAPE  C31216585   5.912   3.551   4.698
  150SAPE  H12X16586   5.838   3.606   4.675
  150SAPE  H12Y16587   5.871   3.447   4.713
  150SAPE  C31316588   5.954   3.545   4.561
  150SAPE  H13X16589   5.897   3.458   4.520
  150SAPE  H13Y16590   6.040   3.518   4.588
  150SAPE  C31416591   6.034   3.650   4.482
  150SAPE  H14X16592   6.101   3.709   4.544
  150SAPE  H14Y16593   5.996   3.740   4.486
  150SAPE  C31516594   6.033   3.636   4.325
  150SAPE  H15X16595   6.032   3.718   4.245
  150SAPE  H15Y16596   5.964   3.556   4.288
  150SAPE  C31616597   6.155   3.635   4.272
  150SAPE  H16X16598   6.144   3.584   4.176
  150SAPE  H16Y16599   6.145   3.559   4.346
  150SAPE  C31716600   6.264   3.661   4.360
  150SAPE  H17X16601   6.260   3.653   4.470
  150SAPE  H17Y16602   6.282   3.761   4.326
  150SAPE  C31816603   6.364   3.569   4.324
  150SAPE  H18X16604   6.384   3.479   4.389
  150SAPE  H18Y16605   6.430   3.644   4.325
  150SAPE  H18Z16606   6.390   3.548   4.224
  151SAPE     N16607   4.997   1.847   6.128
  151SAPE   HN116608   4.916   1.894   6.081
  151SAPE   HN216609   5.047   1.785   6.061
  151SAPE   HN316610   4.965   1.788   6.207
  151SAPE   C1216611   5.098   1.943   6.185
  151SAPE  H12A16612   5.068   1.961   6.291
  151SAPE  H12B16613   5.095   2.038   6.129
  151SAPE   C1116614   5.237   1.880   6.182
  151SAPE  H11A16615   5.313   1.955   6.213
  151SAPE  H11B16616   5.262   1.850   6.077
  151SAPE     P16617   5.352   1.675   6.309
  151SAPE   O1316618   5.465   1.733   6.379
  151SAPE   O1416619   5.310   1.553   6.375
  151SAPE   O1216620   5.234   1.774   6.278
  151SAPE   O1116621   5.388   1.650   6.163
  151SAPE    C116622   5.476   1.548   6.130
  151SAPE    HA16623   5.529   1.514   6.222
  151SAPE    HB16624   5.432   1.454   6.092
  151SAPE    C216625   5.559   1.603   6.015
  151SAPE    HS16626   5.651   1.625   6.062
  151SAPE   O2116627   5.524   1.726   5.958
  151SAPE   C2116628   5.626   1.807   5.934
  151SAPE   O2216629   5.745   1.785   5.938
  151SAPE   C2216630   5.565   1.935   5.925
  151SAPE   H2R16631   5.479   1.923   5.855
  151SAPE   H2S16632   5.532   1.968   6.026
  151SAPE    C316633   5.564   1.500   5.901
  151SAPE    HX16634   5.617   1.412   5.944
  151SAPE    HY16635   5.619   1.551   5.819
  151SAPE   O3116636   5.441   1.454   5.852
  151SAPE   C3116637   5.454   1.369   5.752
  151SAPE   O3216638   5.553   1.340   5.689
  151SAPE   C3216639   5.319   1.328   5.708
  151SAPE   H2X16640   5.252   1.369   5.785
  151SAPE   H2Y16641   5.320   1.217   5.709
  151SAPE   C2316642   5.673   2.030   5.882
  151SAPE   H3R16643   5.759   2.019   5.934
  151SAPE   H3S16644   5.657   2.122   5.940
  151SAPE   C2416645   5.685   2.045   5.732
  151SAPE   H4R16646   5.701   2.148   5.687
  151SAPE   H4S16647   5.589   2.001   5.708
  151SAPE   C2516648   5.770   1.966   5.659
  151SAPE   H5R16649   5.860   2.019   5.668
  151SAPE   C2616650   5.755   1.878   5.567
  151SAPE   H6R16651   5.848   1.827   5.561
  151SAPE   C2716652   5.634   1.822   5.501
  151SAPE   H7R16653   5.607   1.894   5.421
  151SAPE   H7S16654   5.554   1.815   5.574
  151SAPE   C2816655   5.630   1.687   5.440
  151SAPE   H8R16656   5.645   1.599   5.506
  151SAPE   C2916657   5.645   1.671   5.311
  151SAPE   H9R16658   5.672   1.565   5.289
  151SAPE  C21016659   5.673   1.785   5.206
  151SAPE  H10R16660   5.741   1.764   5.121
  151SAPE  H10S16661   5.738   1.870   5.239
  151SAPE  C21116662   5.566   1.822   5.118
  151SAPE  H11R16663   5.478   1.762   5.134
  151SAPE  C21216664   5.585   1.892   5.008
  151SAPE  H12R16665   5.494   1.931   4.964
  151SAPE  C21316666   5.719   1.941   4.959
  151SAPE  H13R16667   5.808   1.903   5.003
  151SAPE  H13S16668   5.734   2.030   5.007
  151SAPE  C21416669   5.743   1.977   4.820
  151SAPE  H14R16670   5.794   2.075   4.812
  151SAPE  C21516671   5.712   1.918   4.706
  151SAPE  H15R16672   5.706   1.979   4.616
  151SAPE  C21616673   5.641   1.790   4.698
  151SAPE  H16R16674   5.636   1.768   4.591
  151SAPE  H16S16675   5.542   1.780   4.749
  151SAPE  C21716676   5.738   1.703   4.769
  151SAPE  H17R16677   5.725   1.716   4.877
  151SAPE  H17S16678   5.839   1.710   4.748
  151SAPE  C21816679   5.727   1.563   4.737
  151SAPE  H18R16680   5.634   1.556   4.794
  151SAPE  H18S16681   5.778   1.503   4.804
  151SAPE  C21916682   5.775   1.503   4.598
  151SAPE  H19R16683   5.880   1.517   4.587
  151SAPE  H19S16684   5.741   1.594   4.544
  151SAPE  C22016685   5.772   1.346   4.534
  151SAPE  H20R16686   5.672   1.331   4.555
  151SAPE  H20S16687   5.764   1.260   4.585
  151SAPE  H20T16688   5.727   1.308   4.438
  151SAPE   C3316689   5.293   1.378   5.563
  151SAPE   H3X16690   5.331   1.301   5.492
  151SAPE   H3Y16691   5.357   1.467   5.541
  151SAPE   C3416692   5.146   1.415   5.538
  151SAPE   H4X16693   5.076   1.331   5.558
  151SAPE   H4Y16694   5.132   1.440   5.431
  151SAPE   C3516695   5.096   1.531   5.628
  151SAPE   H5X16696   5.099   1.494   5.733
  151SAPE   H5Y16697   4.990   1.554   5.605
  151SAPE   C3616698   5.174   1.664   5.617
  151SAPE   H6X16699   5.282   1.652   5.642
  151SAPE   H6Y16700   5.132   1.737   5.689
  151SAPE   C3716701   5.172   1.714   5.473
  151SAPE   H7X16702   5.068   1.721   5.435
  151SAPE   H7Y16703   5.223   1.635   5.413
  151SAPE   C3816704   5.248   1.846   5.451
  151SAPE   H8X16705   5.353   1.840   5.487
  151SAPE   H8Y16706   5.197   1.925   5.510
  151SAPE   C3916707   5.257   1.882   5.305
  151SAPE   H9X16708   5.298   1.798   5.245
  151SAPE   H9Y16709   5.316   1.973   5.286
  151SAPE  C31016710   5.120   1.907   5.254
  151SAPE  H10X16711   5.088   2.002   5.303
  151SAPE  H10Y16712   5.044   1.829   5.271
  151SAPE  C31116713   5.121   1.921   5.106
  151SAPE  H11X16714   5.193   1.999   5.074
  151SAPE  H11Y16715   5.012   1.945   5.104
  151SAPE  C31216716   5.104   1.811   5.006
  151SAPE  H12X16717   5.009   1.757   5.031
  151SAPE  H12Y16718   5.193   1.751   5.024
  151SAPE  C31316719   5.093   1.853   4.857
  151SAPE  H13X16720   5.035   1.943   4.839
  151SAPE  H13Y16721   5.026   1.778   4.813
  151SAPE  C31416722   5.227   1.863   4.781
  151SAPE  H14X16723   5.306   1.816   4.844
  151SAPE  H14Y16724   5.253   1.970   4.767
  151SAPE  C31516725   5.228   1.798   4.642
  151SAPE  H15X16726   5.331   1.803   4.597
  151SAPE  H15Y16727   5.160   1.856   4.576
  151SAPE  C31616728   5.188   1.651   4.641
  151SAPE  H16X16729   5.081   1.639   4.669
  151SAPE  H16Y16730   5.250   1.593   4.715
  151SAPE  C31716731   5.202   1.591   4.503
  151SAPE  H17X16732   5.300   1.622   4.461
  151SAPE  H17Y16733   5.132   1.631   4.430
  151SAPE  C31816734   5.183   1.441   4.512
  151SAPE  H18X16735   5.087   1.414   4.560
  151SAPE  H18Y16736   5.260   1.399   4.581
  151SAPE  H18Z16737   5.194   1.392   4.413
  152SAPE     N16738   1.276   2.948   6.439
  152SAPE   HN116739   1.305   2.948   6.338
  152SAPE   HN216740   1.235   3.040   6.467
  152SAPE   HN316741   1.363   2.931   6.494
  152SAPE   C1216742   1.175   2.837   6.453
  152SAPE  H12A16743   1.087   2.865   6.391
  152SAPE  H12B16744   1.145   2.829   6.559
  152SAPE   C1116745   1.240   2.709   6.400
  152SAPE  H11A16746   1.166   2.626   6.398
  152SAPE  H11B16747   1.319   2.681   6.471
  152SAPE     P16748   1.217   2.708   6.139
  152SAPE   O1316749   1.113   2.609   6.172
  152SAPE   O1416750   1.178   2.840   6.088
  152SAPE   O1216751   1.301   2.731   6.273
  152SAPE   O1116752   1.319   2.648   6.044
  152SAPE    C116753   1.397   2.545   6.095
  152SAPE    HA16754   1.481   2.612   6.092
  152SAPE    HB16755   1.404   2.521   6.206
  152SAPE    C216756   1.390   2.409   6.016
  152SAPE    HS16757   1.482   2.347   6.027
  152SAPE   O2116758   1.362   2.412   5.876
  152SAPE   C2116759   1.403   2.494   5.787
  152SAPE   O2216760   1.487   2.581   5.785
  152SAPE   C2216761   1.343   2.455   5.654
  152SAPE   H2R16762   1.286   2.363   5.652
  152SAPE   H2S16763   1.326   2.556   5.607
  152SAPE    C316764   1.284   2.321   6.081
  152SAPE    HX16765   1.298   2.328   6.190
  152SAPE    HY16766   1.302   2.216   6.048
  152SAPE   O3116767   1.156   2.373   6.049
  152SAPE   C3116768   1.081   2.302   5.971
  152SAPE   O3216769   1.102   2.188   5.933
  152SAPE   C3216770   0.959   2.378   5.934
  152SAPE   H2X16771   0.909   2.420   6.024
  152SAPE   H2Y16772   0.897   2.302   5.883
  152SAPE   C2316773   1.447   2.420   5.560
  152SAPE   H3R16774   1.533   2.422   5.628
  152SAPE   H3S16775   1.499   2.514   5.574
  152SAPE   C2416776   1.442   2.341   5.408
  152SAPE   H4R16777   1.386   2.409   5.345
  152SAPE   H4S16778   1.382   2.254   5.435
  152SAPE   C2516779   1.547   2.256   5.319
  152SAPE   H5R16780   1.655   2.258   5.337
  152SAPE   C2616781   1.549   2.190   5.208
  152SAPE   H6R16782   1.645   2.151   5.166
  152SAPE   C2716783   1.427   2.185   5.134
  152SAPE   H7R16784   1.448   2.166   5.030
  152SAPE   H7S16785   1.381   2.286   5.142
  152SAPE   C2816786   1.353   2.079   5.204
  152SAPE   H8R16787   1.404   1.980   5.217
  152SAPE   C2916788   1.233   2.104   5.256
  152SAPE   H9R16789   1.187   2.020   5.306
  152SAPE  C21016790   1.150   2.230   5.256
  152SAPE  H10R16791   1.217   2.314   5.238
  152SAPE  H10S16792   1.111   2.235   5.360
  152SAPE  C21116793   1.034   2.254   5.160
  152SAPE  H11R16794   0.937   2.234   5.209
  152SAPE  C21216795   1.032   2.289   5.031
  152SAPE  H12R16796   0.939   2.275   4.973
  152SAPE  C21316797   1.154   2.318   4.948
  152SAPE  H13R16798   1.194   2.223   4.904
  152SAPE  H13S16799   1.231   2.356   5.016
  152SAPE  C21416800   1.132   2.423   4.841
  152SAPE  H14R16801   1.171   2.522   4.866
  152SAPE  C21516802   1.082   2.407   4.717
  152SAPE  H15R16803   1.086   2.493   4.648
  152SAPE  C21616804   1.035   2.281   4.652
  152SAPE  H16R16805   0.929   2.292   4.619
  152SAPE  H16S16806   1.040   2.194   4.722
  152SAPE  C21716807   1.125   2.251   4.531
  152SAPE  H17R16808   1.138   2.340   4.465
  152SAPE  H17S16809   1.072   2.171   4.474
  152SAPE  C21816810   1.266   2.201   4.563
  152SAPE  H18R16811   1.261   2.109   4.625
  152SAPE  H18S16812   1.324   2.281   4.615
  152SAPE  C21916813   1.345   2.162   4.439
  152SAPE  H19R16814   1.442   2.126   4.476
  152SAPE  H19S16815   1.366   2.250   4.374
  152SAPE  C22016816   1.289   2.043   4.365
  152SAPE  H20R16817   1.184   2.056   4.328
  152SAPE  H20S16818   1.294   1.951   4.424
  152SAPE  H20T16819   1.358   2.025   4.280
  152SAPE   C3316820   0.979   2.487   5.832
  152SAPE   H3X16821   0.965   2.448   5.729
  152SAPE   H3Y16822   1.079   2.533   5.842
  152SAPE   C3416823   0.879   2.596   5.849
  152SAPE   H4X16824   0.890   2.651   5.946
  152SAPE   H4Y16825   0.772   2.564   5.844
  152SAPE   C3516826   0.903   2.685   5.731
  152SAPE   H5X16827   0.818   2.745   5.767
  152SAPE   H5Y16828   0.871   2.651   5.632
  152SAPE   C3616829   1.049   2.741   5.713
  152SAPE   H6X16830   1.121   2.661   5.690
  152SAPE   H6Y16831   1.077   2.805   5.801
  152SAPE   C3716832   1.084   2.833   5.596
  152SAPE   H7X16833   1.142   2.924   5.623
  152SAPE   H7Y16834   0.981   2.852   5.584
  152SAPE   C3816835   1.067   2.812   5.446
  152SAPE   H8X16836   1.074   2.913   5.398
  152SAPE   H8Y16837   0.968   2.775   5.410
  152SAPE   C3916838   1.179   2.721   5.415
  152SAPE   H9X16839   1.140   2.618   5.433
  152SAPE   H9Y16840   1.262   2.736   5.488
  152SAPE  C31016841   1.226   2.756   5.278
  152SAPE  H10X16842   1.263   2.861   5.275
  152SAPE  H10Y16843   1.142   2.745   5.207
  152SAPE  C31116844   1.345   2.672   5.241
  152SAPE  H11X16845   1.328   2.565   5.257
  152SAPE  H11Y16846   1.425   2.706   5.308
  152SAPE  C31216847   1.381   2.703   5.099
  152SAPE  H12X16848   1.391   2.814   5.084
  152SAPE  H12Y16849   1.309   2.660   5.026
  152SAPE  C31316850   1.512   2.654   5.061
  152SAPE  H13X16851   1.537   2.545   5.076
  152SAPE  H13Y16852   1.584   2.721   5.113
  152SAPE  C31416853   1.535   2.705   4.926
  152SAPE  H14X16854   1.636   2.666   4.931
  152SAPE  H14Y16855   1.541   2.816   4.920
  152SAPE  C31516856   1.466   2.644   4.803
  152SAPE  H15X16857   1.358   2.634   4.823
  152SAPE  H15Y16858   1.512   2.543   4.787
  152SAPE  C31616859   1.475   2.738   4.679
  152SAPE  H16X16860   1.569   2.772   4.636
  152SAPE  H16Y16861   1.470   2.844   4.710
  152SAPE  C31716862   1.420   2.679   4.547
  152SAPE  H17X16863   1.441   2.760   4.472
  152SAPE  H17Y16864   1.315   2.669   4.577
  152SAPE  C31816865   1.465   2.540   4.488
  152SAPE  H18X16866   1.406   2.502   4.405
  152SAPE  H18Y16867   1.477   2.467   4.572
  152SAPE  H18Z16868   1.563   2.543   4.435
  153SAPE     N16869   6.513   3.517   6.158
  153SAPE   HN116870   6.551   3.614   6.154
  153SAPE   HN216871   6.579   3.466   6.095
  153SAPE   HN316872   6.421   3.534   6.111
  153SAPE   C1216873   6.517   3.502   6.299
  153SAPE  H12A16874   6.481   3.400   6.315
  153SAPE  H12B16875   6.444   3.574   6.335
  153SAPE   C1116876   6.659   3.530   6.347
  153SAPE  H11A16877   6.657   3.488   6.450
  153SAPE  H11B16878   6.682   3.639   6.356
  153SAPE     P16879   6.780   3.315   6.250
  153SAPE   O1316880   6.778   3.253   6.383
  153SAPE   O1416881   6.683   3.273   6.147
  153SAPE   O1216882   6.760   3.473   6.264
  153SAPE   O1116883   6.923   3.303   6.196
  153SAPE    C116884   7.036   3.370   6.249
  153SAPE    HA16885   7.011   3.474   6.273
  153SAPE    HB16886   7.082   3.320   6.338
  153SAPE    C216887   7.144   3.367   6.143
  153SAPE    HS16888   7.242   3.410   6.183
  153SAPE   O2116889   7.082   3.429   6.024
  153SAPE   C2116890   7.090   3.553   6.037
  153SAPE   O2216891   7.144   3.602   6.133
  153SAPE   C2216892   7.048   3.630   5.906
  153SAPE   H2R16893   7.123   3.692   5.852
  153SAPE   H2S16894   7.031   3.550   5.832
  153SAPE    C316895   7.181   3.222   6.116
  153SAPE    HX16896   7.203   3.166   6.207
  153SAPE    HY16897   7.280   3.217   6.061
  153SAPE   O3116898   7.063   3.156   6.062
  153SAPE   C3116899   7.058   3.189   5.936
  153SAPE   O3216900   7.146   3.257   5.884
  153SAPE   C3216901   6.939   3.117   5.872
  153SAPE   H2X16902   6.907   3.028   5.930
  153SAPE   H2Y16903   6.932   3.086   5.765
  153SAPE   C2316904   6.939   3.724   5.940
  153SAPE   H3R16905   6.982   3.816   5.986
  153SAPE   H3S16906   6.879   3.672   6.017
  153SAPE   C2416907   6.857   3.751   5.816
  153SAPE   H4R16908   6.773   3.802   5.853
  153SAPE   H4S16909   6.820   3.657   5.771
  153SAPE   C2516910   6.925   3.836   5.717
  153SAPE   H5R16911   6.937   3.942   5.739
  153SAPE   C2616912   6.982   3.790   5.608
  153SAPE   H6R16913   7.038   3.865   5.557
  153SAPE   C2716914   6.997   3.652   5.553
  153SAPE   H7R16915   6.924   3.585   5.602
  153SAPE   H7S16916   7.099   3.614   5.581
  153SAPE   C2816917   6.970   3.651   5.403
  153SAPE   H8R16918   6.872   3.683   5.371
  153SAPE   C2916919   7.047   3.610   5.304
  153SAPE   H9R16920   7.027   3.611   5.197
  153SAPE  C21016921   7.175   3.557   5.324
  153SAPE  H10R16922   7.218   3.638   5.385
  153SAPE  H10S16923   7.232   3.590   5.233
  153SAPE  C21116924   7.186   3.409   5.373
  153SAPE  H11R16925   7.241   3.381   5.466
  153SAPE  C21216926   7.176   3.306   5.291
  153SAPE  H12R16927   7.196   3.205   5.330
  153SAPE  C21316928   7.151   3.331   5.146
  153SAPE  H13R16929   7.210   3.417   5.104
  153SAPE  H13S16930   7.045   3.364   5.142
  153SAPE  C21416931   7.173   3.211   5.061
  153SAPE  H14R16932   7.216   3.121   5.108
  153SAPE  C21516933   7.139   3.209   4.932
  153SAPE  H15R16934   7.167   3.125   4.872
  153SAPE  C21616935   7.077   3.312   4.847
  153SAPE  H16R16936   7.025   3.387   4.910
  153SAPE  H16S16937   7.005   3.262   4.781
  153SAPE  C21716938   7.169   3.383   4.752
  153SAPE  H17R16939   7.216   3.322   4.673
  153SAPE  H17S16940   7.248   3.433   4.812
  153SAPE  C21816941   7.095   3.487   4.674
  153SAPE  H18R16942   7.037   3.540   4.752
  153SAPE  H18S16943   7.018   3.453   4.602
  153SAPE  C21916944   7.217   3.554   4.614
  153SAPE  H19R16945   7.277   3.488   4.549
  153SAPE  H19S16946   7.276   3.603   4.692
  153SAPE  C22016947   7.206   3.637   4.503
  153SAPE  H20R16948   7.100   3.621   4.468
  153SAPE  H20S16949   7.278   3.719   4.478
  153SAPE  H20T16950   7.186   3.741   4.509
  153SAPE   C3316951   6.851   3.218   5.838
  153SAPE   H3X16952   6.903   3.285   5.763
  153SAPE   H3Y16953   6.838   3.267   5.937
  153SAPE   C3416954   6.726   3.151   5.788
  153SAPE   H4X16955   6.689   3.079   5.863
  153SAPE   H4Y16956   6.728   3.106   5.686
  153SAPE   C3516957   6.655   3.276   5.784
  153SAPE   H5X16958   6.672   3.327   5.881
  153SAPE   H5Y16959   6.554   3.267   5.815
  153SAPE   C3616960   6.701   3.346   5.653
  153SAPE   H6X16961   6.793   3.314   5.604
  153SAPE   H6Y16962   6.717   3.455   5.673
  153SAPE   C3716963   6.599   3.324   5.543
  153SAPE   H7X16964   6.518   3.391   5.550
  153SAPE   H7Y16965   6.555   3.224   5.559
  153SAPE   C3816966   6.628   3.377   5.405
  153SAPE   H8X16967   6.666   3.278   5.370
  153SAPE   H8Y16968   6.701   3.457   5.409
  153SAPE   C3916969   6.509   3.429   5.317
  153SAPE   H9X16970   6.446   3.512   5.311
  153SAPE   H9Y16971   6.424   3.386   5.367
  153SAPE  C31016972   6.518   3.460   5.174
  153SAPE  H10X16973   6.600   3.533   5.166
  153SAPE  H10Y16974   6.425   3.474   5.116
  153SAPE  C31116975   6.563   3.351   5.109
  153SAPE  H11X16976   6.477   3.288   5.079
  153SAPE  H11Y16977   6.618   3.300   5.190
  153SAPE  C31216978   6.653   3.384   5.000
  153SAPE  H12X16979   6.712   3.297   5.033
  153SAPE  H12Y16980   6.749   3.427   5.017
  153SAPE  C31316981   6.574   3.407   4.865
  153SAPE  H13X16982   6.513   3.493   4.890
  153SAPE  H13Y16983   6.496   3.339   4.827
  153SAPE  C31416984   6.643   3.418   4.734
  153SAPE  H14X16985   6.634   3.336   4.659
  153SAPE  H14Y16986   6.753   3.427   4.748
  153SAPE  C31516987   6.559   3.449   4.616
  153SAPE  H15X16988   6.483   3.512   4.657
  153SAPE  H15Y16989   6.507   3.377   4.541
  153SAPE  C31616990   6.668   3.513   4.552
  153SAPE  H16X16991   6.743   3.433   4.538
  153SAPE  H16Y16992   6.717   3.597   4.604
  153SAPE  C31716993   6.603   3.560   4.439
  153SAPE  H17X16994   6.522   3.619   4.489
  153SAPE  H17Y16995   6.580   3.481   4.359
  153SAPE  C31816996   6.634   3.686   4.384
  153SAPE  H18X16997   6.724   3.664   4.348
  153SAPE  H18Y16998   6.706   3.753   4.426
  153SAPE  H18Z16999   6.586   3.700   4.282
  154SAPE     N17000   4.377   7.286   6.127
  154SAPE   HN117001   4.355   7.304   6.229
  154SAPE   HN217002   4.421   7.372   6.087
  154SAPE   HN317003   4.288   7.266   6.079
  154SAPE   C1217004   4.468   7.167   6.112
  154SAPE  H12A17005   4.551   7.180   6.184
  154SAPE  H12B17006   4.511   7.169   6.010
  154SAPE   C1117007   4.398   7.032   6.119
  154SAPE  H11A17008   4.461   6.957   6.064
  154SAPE  H11B17009   4.302   7.038   6.064
  154SAPE     P17010   4.474   6.909   6.339
  154SAPE   O1317011   4.532   7.008   6.430
  154SAPE   O1417012   4.409   6.790   6.395
  154SAPE   O1217013   4.368   6.992   6.252
  154SAPE   O1117014   4.585   6.868   6.236
  154SAPE    C117015   4.680   6.767   6.271
  154SAPE    HA17016   4.773   6.809   6.312
  154SAPE    HB17017   4.639   6.689   6.342
  154SAPE    C217018   4.720   6.695   6.145
  154SAPE    HS17019   4.817   6.645   6.154
  154SAPE   O2117020   4.717   6.769   6.027
  154SAPE   C2117021   4.816   6.836   6.015
  154SAPE   O2217022   4.914   6.850   6.088
  154SAPE   C2217023   4.801   6.891   5.881
  154SAPE   H2R17024   4.699   6.923   5.857
  154SAPE   H2S17025   4.890   6.952   5.905
  154SAPE    C317026   4.625   6.593   6.123
  154SAPE    HX17027   4.635   6.523   6.213
  154SAPE    HY17028   4.678   6.549   6.041
  154SAPE   O3117029   4.500   6.665   6.087
  154SAPE   C3117030   4.412   6.591   6.146
  154SAPE   O3217031   4.445   6.475   6.161
  154SAPE   C3217032   4.275   6.660   6.139
  154SAPE   H2X17033   4.255   6.751   6.192
  154SAPE   H2Y17034   4.193   6.599   6.184
  154SAPE   C2317035   4.821   6.831   5.749
  154SAPE   H3R17036   4.931   6.832   5.782
  154SAPE   H3S17037   4.843   6.872   5.649
  154SAPE   C2417038   4.733   6.701   5.746
  154SAPE   H4R17039   4.753   6.612   5.809
  154SAPE   H4S17040   4.755   6.620   5.680
  154SAPE   C2517041   4.611   6.698   5.686
  154SAPE   H5R17042   4.554   6.653   5.765
  154SAPE   C2617043   4.584   6.729   5.560
  154SAPE   H6R17044   4.480   6.714   5.542
  154SAPE   C2717045   4.669   6.777   5.443
  154SAPE   H7R17046   4.630   6.734   5.349
  154SAPE   H7S17047   4.776   6.762   5.432
  154SAPE   C2817048   4.677   6.922   5.448
  154SAPE   H8R17049   4.695   6.965   5.548
  154SAPE   C2917050   4.692   6.995   5.339
  154SAPE   H9R17051   4.672   7.100   5.359
  154SAPE  C21017052   4.703   6.964   5.193
  154SAPE  H10R17053   4.607   6.916   5.170
  154SAPE  H10S17054   4.785   6.891   5.173
  154SAPE  C21117055   4.711   7.090   5.109
  154SAPE  H11R17056   4.668   7.182   5.149
  154SAPE  C21217057   4.767   7.112   4.992
  154SAPE  H12R17058   4.747   7.213   4.947
  154SAPE  C21317059   4.839   7.010   4.911
  154SAPE  H13R17060   4.794   6.966   4.820
  154SAPE  H13S17061   4.902   6.932   4.965
  154SAPE  C21417062   4.926   7.119   4.871
  154SAPE  H14R17063   5.006   7.049   4.878
  154SAPE  C21517064   4.934   7.201   4.764
  154SAPE  H15R17065   5.032   7.240   4.724
  154SAPE  C21617066   4.844   7.191   4.653
  154SAPE  H16R17067   4.870   7.294   4.635
  154SAPE  H16S17068   4.749   7.149   4.691
  154SAPE  C21717069   4.839   7.190   4.496
  154SAPE  H17R17070   4.930   7.246   4.456
  154SAPE  H17S17071   4.735   7.183   4.460
  154SAPE  C21817072   4.835   7.050   4.444
  154SAPE  H18R17073   4.835   7.028   4.554
  154SAPE  H18S17074   4.922   7.081   4.381
  154SAPE  C21917075   4.793   6.923   4.337
  154SAPE  H19R17076   4.843   6.965   4.247
  154SAPE  H19S17077   4.694   6.883   4.353
  154SAPE  C22017078   4.836   6.757   4.333
  154SAPE  H20R17079   4.945   6.755   4.329
  154SAPE  H20S17080   4.815   6.695   4.247
  154SAPE  H20T17081   4.849   6.686   4.422
  154SAPE   C3317082   4.267   6.701   5.990
  154SAPE   H3X17083   4.298   6.611   5.940
  154SAPE   H3Y17084   4.351   6.742   5.933
  154SAPE   C3417085   4.136   6.771   5.957
  154SAPE   H4X17086   4.148   6.876   5.987
  154SAPE   H4Y17087   4.039   6.722   5.995
  154SAPE   C3517088   4.098   6.811   5.817
  154SAPE   H5X17089   3.997   6.853   5.836
  154SAPE   H5Y17090   4.088   6.719   5.776
  154SAPE   C3617091   4.187   6.864   5.706
  154SAPE   H6X17092   4.284   6.807   5.706
  154SAPE   H6Y17093   4.175   6.967   5.739
  154SAPE   C3717094   4.140   6.870   5.560
  154SAPE   H7X17095   4.034   6.887   5.549
  154SAPE   H7Y17096   4.152   6.776   5.519
  154SAPE   C3817097   4.230   6.930   5.453
  154SAPE   H8X17098   4.328   6.876   5.456
  154SAPE   H8Y17099   4.228   7.032   5.491
  154SAPE   C3917100   4.177   6.929   5.309
  154SAPE   H9X17101   4.079   6.978   5.297
  154SAPE   H9Y17102   4.157   6.831   5.270
  154SAPE  C31017103   4.274   6.972   5.204
  154SAPE  H10X17104   4.353   6.893   5.195
  154SAPE  H10Y17105   4.320   7.065   5.243
  154SAPE  C31117106   4.195   6.979   5.072
  154SAPE  H11X17107   4.135   7.072   5.068
  154SAPE  H11Y17108   4.126   6.892   5.068
  154SAPE  C31217109   4.286   6.966   4.951
  154SAPE  H12X17110   4.340   6.870   4.961
  154SAPE  H12Y17111   4.363   7.046   4.957
  154SAPE  C31317112   4.218   6.974   4.813
  154SAPE  H13X17113   4.176   7.076   4.799
  154SAPE  H13Y17114   4.132   6.904   4.800
  154SAPE  C31417115   4.322   6.947   4.704
  154SAPE  H14X17116   4.418   6.999   4.727
  154SAPE  H14Y17117   4.289   6.978   4.603
  154SAPE  C31517118   4.352   6.799   4.691
  154SAPE  H15X17119   4.258   6.742   4.675
  154SAPE  H15Y17120   4.388   6.766   4.791
  154SAPE  C31617121   4.444   6.781   4.568
  154SAPE  H16X17122   4.540   6.835   4.567
  154SAPE  H16Y17123   4.380   6.785   4.477
  154SAPE  C31717124   4.499   6.647   4.561
  154SAPE  H17X17125   4.402   6.597   4.526
  154SAPE  H17Y17126   4.535   6.637   4.667
  154SAPE  C31817127   4.611   6.590   4.479
  154SAPE  H18X17128   4.704   6.571   4.535
  154SAPE  H18Y17129   4.615   6.646   4.386
  154SAPE  H18Z17130   4.593   6.488   4.449
  155SAPE     N17131   5.468   0.005   6.262
  155SAPE   HN117132   5.554   0.054   6.291
  155SAPE   HN217133   5.408  -0.005   6.351
  155SAPE   HN317134   5.482  -0.094   6.233
  155SAPE   C1217135   5.378   0.076   6.157
  155SAPE  H12A17136   5.429   0.067   6.061
  155SAPE  H12B17137   5.378   0.179   6.188
  155SAPE   C1117138   5.228   0.033   6.140
  155SAPE  H11A17139   5.227  -0.079   6.131
  155SAPE  H11B17140   5.176   0.067   6.048
  155SAPE     P17141   5.037   0.172   6.277
  155SAPE   O1317142   4.974   0.143   6.409
  155SAPE   O1417143   5.090   0.306   6.254
  155SAPE   O1217144   5.155   0.073   6.254
  155SAPE   O1117145   4.946   0.128   6.152
  155SAPE    C117146   4.872   0.009   6.174
  155SAPE    HA17147   4.937  -0.070   6.222
  155SAPE    HB17148   4.786   0.046   6.235
  155SAPE    C217149   4.803  -0.068   6.057
  155SAPE    HS17150   4.749  -0.160   6.092
  155SAPE   O2117151   4.907  -0.108   5.972
  155SAPE   C2117152   4.875  -0.146   5.852
  155SAPE   O2217153   4.763  -0.173   5.811
  155SAPE   C2217154   5.009  -0.174   5.786
  155SAPE   H2R17155   5.042  -0.074   5.759
  155SAPE   H2S17156   5.077  -0.227   5.858
  155SAPE    C317157   4.698   0.023   5.989
  155SAPE    HX17158   4.617   0.049   6.056
  155SAPE    HY17159   4.645  -0.026   5.905
  155SAPE   O3117160   4.761   0.143   5.952
  155SAPE   C3117161   4.804   0.147   5.828
  155SAPE   O3217162   4.774   0.072   5.737
  155SAPE   C3217163   4.888   0.268   5.811
  155SAPE   H2X17164   4.864   0.337   5.894
  155SAPE   H2Y17165   4.857   0.315   5.716
  155SAPE   C2317166   5.000  -0.250   5.654
  155SAPE   H3R17167   4.905  -0.233   5.600
  155SAPE   H3S17168   5.009  -0.350   5.690
  155SAPE   C2417169   5.120  -0.292   5.574
  155SAPE   H4R17170   5.086  -0.368   5.499
  155SAPE   H4S17171   5.195  -0.340   5.641
  155SAPE   C2517172   5.169  -0.168   5.515
  155SAPE   H5R17173   5.245  -0.119   5.576
  155SAPE   C2617174   5.122  -0.112   5.404
  155SAPE   H6R17175   5.167  -0.019   5.372
  155SAPE   C2717176   5.011  -0.155   5.313
  155SAPE   H7R17177   4.999  -0.266   5.302
  155SAPE   H7S17178   5.031  -0.122   5.209
  155SAPE   C2817179   4.881  -0.096   5.355
  155SAPE   H8R17180   4.839  -0.157   5.435
  155SAPE   C2917181   4.823   0.022   5.338
  155SAPE   H9R17182   4.712   0.026   5.352
  155SAPE  C21017183   4.891   0.130   5.263
  155SAPE  H10R17184   4.935   0.097   5.167
  155SAPE  H10S17185   4.978   0.158   5.327
  155SAPE  C21117186   4.795   0.245   5.248
  155SAPE  H11R17187   4.782   0.308   5.337
  155SAPE  C21217188   4.719   0.268   5.140
  155SAPE  H12R17189   4.643   0.346   5.150
  155SAPE  C21317190   4.716   0.185   5.013
  155SAPE  H13R17191   4.634   0.219   4.946
  155SAPE  H13S17192   4.689   0.081   5.043
  155SAPE  C21417193   4.838   0.182   4.926
  155SAPE  H14R17194   4.934   0.204   4.975
  155SAPE  C21517195   4.835   0.159   4.795
  155SAPE  H15R17196   4.935   0.139   4.748
  155SAPE  C21617197   4.710   0.130   4.708
  155SAPE  H16R17198   4.625   0.097   4.768
  155SAPE  H16S17199   4.695   0.040   4.644
  155SAPE  C21717200   4.698   0.219   4.586
  155SAPE  H17R17201   4.657   0.312   4.626
  155SAPE  H17S17202   4.623   0.171   4.517
  155SAPE  C21817203   4.826   0.240   4.502
  155SAPE  H18R17204   4.847   0.146   4.447
  155SAPE  H18S17205   4.917   0.260   4.563
  155SAPE  C21917206   4.805   0.352   4.402
  155SAPE  H19R17207   4.768   0.445   4.452
  155SAPE  H19S17208   4.723   0.327   4.330
  155SAPE  C22017209   4.929   0.386   4.323
  155SAPE  H20R17210   4.898   0.476   4.273
  155SAPE  H20S17211   4.959   0.321   4.240
  155SAPE  H20T17212   5.017   0.419   4.382
  155SAPE   C3317213   5.038   0.237   5.814
  155SAPE   H3X17214   5.065   0.135   5.850
  155SAPE   H3Y17215   5.077   0.305   5.893
  155SAPE   C3417216   5.102   0.270   5.679
  155SAPE   H4X17217   5.073   0.374   5.650
  155SAPE   H4Y17218   5.063   0.202   5.600
  155SAPE   C3517219   5.254   0.254   5.682
  155SAPE   H5X17220   5.277   0.146   5.694
  155SAPE   H5Y17221   5.293   0.308   5.772
  155SAPE   C3617222   5.329   0.307   5.559
  155SAPE   H6X17223   5.436   0.281   5.577
  155SAPE   H6Y17224   5.313   0.418   5.556
  155SAPE   C3717225   5.296   0.253   5.424
  155SAPE   H7X17226   5.189   0.278   5.411
  155SAPE   H7Y17227   5.309   0.142   5.427
  155SAPE   C3817228   5.382   0.311   5.310
  155SAPE   H8X17229   5.489   0.326   5.337
  155SAPE   H8Y17230   5.349   0.412   5.283
  155SAPE   C3917231   5.378   0.221   5.187
  155SAPE   H9X17232   5.442   0.133   5.213
  155SAPE   H9Y17233   5.426   0.274   5.101
  155SAPE  C31017234   5.238   0.174   5.150
  155SAPE  H10X17235   5.166   0.259   5.148
  155SAPE  H10Y17236   5.200   0.102   5.226
  155SAPE  C31117237   5.236   0.103   5.015
  155SAPE  H11X17238   5.294   0.157   4.938
  155SAPE  H11Y17239   5.130   0.100   4.980
  155SAPE  C31217240   5.297  -0.037   5.029
  155SAPE  H12X17241   5.230  -0.096   5.096
  155SAPE  H12Y17242   5.399  -0.032   5.070
  155SAPE  C31317243   5.321  -0.106   4.895
  155SAPE  H13X17244   5.385  -0.196   4.892
  155SAPE  H13Y17245   5.328  -0.034   4.810
  155SAPE  C31417246   5.198  -0.169   4.867
  155SAPE  H14X17247   5.138  -0.075   4.870
  155SAPE  H14Y17248   5.165  -0.227   4.956
  155SAPE  C31517249   5.200  -0.261   4.742
  155SAPE  H15X17250   5.221  -0.366   4.770
  155SAPE  H15Y17251   5.258  -0.214   4.660
  155SAPE  C31617252   5.076  -0.295   4.666
  155SAPE  H16X17253   5.065  -0.200   4.603
  155SAPE  H16Y17254   4.982  -0.337   4.710
  155SAPE  C31717255   5.075  -0.390   4.577
  155SAPE  H17X17256   5.103  -0.491   4.571
  155SAPE  H17Y17257   5.114  -0.324   4.493
  155SAPE  C31817258   4.958  -0.457   4.544
  155SAPE  H18X17259   4.978  -0.417   4.439
  155SAPE  H18Y17260   4.848  -0.440   4.546
  155SAPE  H18Z17261   4.877  -0.513   4.586
  156SAPE     N17262  -0.137   2.233   6.348
  156SAPE   HN117263  -0.035   2.237   6.332
  156SAPE   HN217264  -0.182   2.328   6.341
  156SAPE   HN317265  -0.157   2.184   6.437
  156SAPE   C1217266  -0.189   2.151   6.235
  156SAPE  H12A17267  -0.210   2.220   6.152
  156SAPE  H12B17268  -0.284   2.105   6.265
  156SAPE   C1117269  -0.080   2.052   6.193
  156SAPE  H11A17270   0.019   2.100   6.177
  156SAPE  H11B17271  -0.109   2.010   6.094
  156SAPE     P17272  -0.096   1.804   6.250
  156SAPE   O1317273  -0.071   1.709   6.360
  156SAPE   O1417274  -0.224   1.794   6.181
  156SAPE   O1217275  -0.065   1.954   6.294
  156SAPE   O1117276   0.011   1.783   6.136
  156SAPE    C117277   0.142   1.813   6.178
  156SAPE    HA17278   0.161   1.923   6.191
  156SAPE    HB17279   0.161   1.760   6.274
  156SAPE    C217280   0.246   1.764   6.079
  156SAPE    HS17281   0.332   1.832   6.101
  156SAPE   O2117282   0.204   1.775   5.941
  156SAPE   C2117283   0.170   1.893   5.898
  156SAPE   O2217284   0.183   2.000   5.955
  156SAPE   C2217285   0.111   1.876   5.758
  156SAPE   H2R17286   0.191   1.839   5.691
  156SAPE   H2S17287   0.035   1.796   5.764
  156SAPE    C317288   0.284   1.615   6.107
  156SAPE    HX17289   0.324   1.601   6.207
  156SAPE    HY17290   0.364   1.575   6.044
  156SAPE   O3117291   0.170   1.532   6.103
  156SAPE   C3117292   0.158   1.449   6.005
  156SAPE   O3217293   0.233   1.424   5.914
  156SAPE   C3217294   0.021   1.395   6.020
  156SAPE   H2X17295   0.032   1.331   6.111
  156SAPE   H2Y17296   0.010   1.323   5.940
  156SAPE   C2317297   0.054   2.007   5.702
  156SAPE   H3R17298   0.052   2.004   5.591
  156SAPE   H3S17299   0.123   2.090   5.729
  156SAPE   C2417300  -0.088   2.040   5.751
  156SAPE   H4R17301  -0.115   2.135   5.702
  156SAPE   H4S17302  -0.094   2.062   5.859
  156SAPE   C2517303  -0.186   1.932   5.724
  156SAPE   H5R17304  -0.203   1.858   5.804
  156SAPE   C2617305  -0.252   1.922   5.610
  156SAPE   H6R17306  -0.320   1.837   5.608
  156SAPE   C2717307  -0.243   2.014   5.489
  156SAPE   H7R17308  -0.216   2.118   5.521
  156SAPE   H7S17309  -0.343   2.024   5.442
  156SAPE   C2817310  -0.151   1.961   5.383
  156SAPE   H8R17311  -0.147   1.853   5.371
  156SAPE   C2917312  -0.071   2.028   5.301
  156SAPE   H9R17313  -0.006   1.969   5.232
  156SAPE  C21017314  -0.060   2.176   5.301
  156SAPE  H10R17315  -0.001   2.206   5.390
  156SAPE  H10S17316  -0.149   2.240   5.304
  156SAPE  C21117317   0.009   2.189   5.171
  156SAPE  H11R17318   0.111   2.152   5.181
  156SAPE  C21217319  -0.021   2.230   5.050
  156SAPE  H12R17320   0.060   2.233   4.976
  156SAPE  C21317321  -0.148   2.280   5.004
  156SAPE  H13R17322  -0.222   2.300   5.082
  156SAPE  H13S17323  -0.171   2.190   4.947
  156SAPE  C21417324  -0.154   2.390   4.909
  156SAPE  H14R17325  -0.142   2.495   4.941
  156SAPE  C21517326  -0.144   2.379   4.783
  156SAPE  H15R17327  -0.131   2.477   4.741
  156SAPE  C21617328  -0.122   2.257   4.702
  156SAPE  H16R17329  -0.189   2.247   4.615
  156SAPE  H16S17330  -0.095   2.161   4.751
  156SAPE  C21717331  -0.006   2.284   4.623
  156SAPE  H17R17332   0.087   2.324   4.660
  156SAPE  H17S17333  -0.026   2.355   4.559
  156SAPE  C21817334  -0.006   2.190   4.506
  156SAPE  H18R17335   0.060   2.282   4.435
  156SAPE  H18S17336  -0.045   2.173   4.409
  156SAPE  C21917337   0.063   2.022   4.576
  156SAPE  H19R17338  -0.021   1.982   4.609
  156SAPE  H19S17339   0.136   2.033   4.667
  156SAPE  C22017340   0.176   1.910   4.510
  156SAPE  H20R17341   0.254   1.941   4.431
  156SAPE  H20S17342   0.095   1.872   4.453
  156SAPE  H20T17343   0.240   1.841   4.571
  156SAPE   C3317344  -0.081   1.516   6.014
  156SAPE   H3X17345  -0.046   1.596   5.950
  156SAPE   H3Y17346  -0.091   1.566   6.112
  156SAPE   C3417347  -0.223   1.488   5.968
  156SAPE   H4X17348  -0.303   1.561   5.993
  156SAPE   H4Y17349  -0.247   1.406   6.031
  156SAPE   C3517350  -0.229   1.454   5.822
  156SAPE   H5X17351  -0.326   1.409   5.791
  156SAPE   H5Y17352  -0.139   1.390   5.806
  156SAPE   C3617353  -0.191   1.562   5.731
  156SAPE   H6X17354  -0.091   1.594   5.766
  156SAPE   H6Y17355  -0.270   1.638   5.744
  156SAPE   C3717356  -0.175   1.516   5.588
  156SAPE   H7X17357  -0.259   1.565   5.533
  156SAPE   H7Y17358  -0.186   1.405   5.575
  156SAPE   C3817359  -0.036   1.557   5.534
  156SAPE   H8X17360   0.044   1.493   5.575
  156SAPE   H8Y17361  -0.020   1.664   5.564
  156SAPE   C3917362  -0.031   1.545   5.383
  156SAPE   H9X17363  -0.125   1.600   5.377
  156SAPE   H9Y17364  -0.033   1.438   5.349
  156SAPE  C31017365   0.068   1.634   5.306
  156SAPE  H10X17366   0.166   1.612   5.350
  156SAPE  H10Y17367   0.038   1.740   5.328
  156SAPE  C31117368   0.086   1.621   5.152
  156SAPE  H11X17369   0.099   1.515   5.120
  156SAPE  H11Y17370   0.168   1.682   5.112
  156SAPE  C31217371  -0.021   1.685   5.068
  156SAPE  H12X17372  -0.066   1.785   5.072
  156SAPE  H12Y17373  -0.081   1.656   5.156
  156SAPE  C31317374  -0.027   1.623   4.922
  156SAPE  H13X17375  -0.061   1.516   4.916
  156SAPE  H13Y17376   0.073   1.623   4.881
  156SAPE  C31417377  -0.095   1.709   4.813
  156SAPE  H14X17378  -0.117   1.813   4.840
  156SAPE  H14Y17379  -0.190   1.681   4.823
  156SAPE  C31517380  -0.134   1.654   4.674
  156SAPE  H15X17381  -0.234   1.690   4.640
  156SAPE  H15Y17382  -0.142   1.544   4.670
  156SAPE  C31617383  -0.050   1.727   4.583
  156SAPE  H16X17384   0.051   1.715   4.621
  156SAPE  H16Y17385  -0.094   1.828   4.600
  156SAPE  C31717386  -0.056   1.695   4.437
  156SAPE  H17X17387  -0.030   1.757   4.358
  156SAPE  H17Y17388  -0.130   1.774   4.421
  156SAPE  C31817389  -0.084   1.549   4.394
  156SAPE  H18X17390  -0.170   1.500   4.443
  156SAPE  H18Y17391  -0.007   1.482   4.431
  156SAPE  H18Z17392  -0.108   1.541   4.284
  157SAPE     N17393   6.349   0.736   6.189
  157SAPE   HN117394   6.357   0.762   6.289
  157SAPE   HN217395   6.267   0.784   6.146
  157SAPE   HN317396   6.343   0.632   6.175
  157SAPE   C1217397   6.477   0.788   6.132
  157SAPE  H12A17398   6.475   0.781   6.026
  157SAPE  H12B17399   6.559   0.722   6.167
  157SAPE   C1117400   6.493   0.939   6.146
  157SAPE  H11A17401   6.401   0.994   6.120
  157SAPE  H11B17402   6.570   0.971   6.069
  157SAPE     P17403   6.686   0.957   6.313
  157SAPE   O1317404   6.705   0.942   6.458
  157SAPE   O1417405   6.738   0.848   6.228
  157SAPE   O1217406   6.528   0.968   6.281
  157SAPE   O1117407   6.735   1.094   6.262
  157SAPE    C117408   6.715   1.213   6.339
  157SAPE    HA17409   6.614   1.220   6.381
  157SAPE    HB17410   6.794   1.220   6.418
  157SAPE    C217411   6.725   1.341   6.253
  157SAPE    HS17412   6.681   1.427   6.292
  157SAPE   O2117413   6.679   1.320   6.120
  157SAPE   C2117414   6.560   1.306   6.090
  157SAPE   O2217415   6.464   1.329   6.161
  157SAPE   C2217416   6.551   1.260   5.944
  157SAPE   H2R17417   6.634   1.299   5.886
  157SAPE   H2S17418   6.571   1.155   5.923
  157SAPE    C317419   6.873   1.382   6.258
  157SAPE    HX17420   6.892   1.430   6.355
  157SAPE    HY17421   6.905   1.461   6.183
  157SAPE   O3117422   6.944   1.256   6.256
  157SAPE   C3117423   6.922   1.215   6.130
  157SAPE   O3217424   6.887   1.290   6.044
  157SAPE   C3217425   6.983   1.081   6.103
  157SAPE   H2X17426   6.931   1.024   6.170
  157SAPE   H2Y17427   7.076   1.119   6.160
  157SAPE   C2317428   6.417   1.311   5.894
  157SAPE   H3R17429   6.385   1.409   5.937
  157SAPE   H3S17430   6.350   1.235   5.931
  157SAPE   C2417431   6.404   1.321   5.745
  157SAPE   H4R17432   6.455   1.412   5.725
  157SAPE   H4S17433   6.334   1.380   5.687
  157SAPE   C2517434   6.432   1.199   5.669
  157SAPE   H5R17435   6.520   1.142   5.694
  157SAPE   C2617436   6.368   1.150   5.569
  157SAPE   H6R17437   6.402   1.056   5.530
  157SAPE   C2717438   6.249   1.192   5.502
  157SAPE   H7R17439   6.271   1.285   5.468
  157SAPE   H7S17440   6.161   1.169   5.567
  157SAPE   C2817441   6.197   1.152   5.379
  157SAPE   H8R17442   6.136   1.098   5.403
  157SAPE   C2917443   6.196   1.145   5.257
  157SAPE   H9R17444   6.173   1.052   5.210
  157SAPE  C21017445   6.304   1.201   5.206
  157SAPE  H10R17446   6.311   1.307   5.241
  157SAPE  H10S17447   6.287   1.208   5.109
  157SAPE  C21117448   6.397   1.089   5.188
  157SAPE  H11R17449   6.372   0.984   5.180
  157SAPE  C21217450   6.515   1.124   5.195
  157SAPE  H12R17451   6.584   1.046   5.221
  157SAPE  C21317452   6.536   1.266   5.221
  157SAPE  H13R17453   6.501   1.232   5.327
  157SAPE  H13S17454   6.477   1.354   5.207
  157SAPE  C21417455   6.662   1.344   5.200
  157SAPE  H14R17456   6.746   1.347   5.271
  157SAPE  C21517457   6.711   1.416   5.129
  157SAPE  H15R17458   6.810   1.390   5.096
  157SAPE  C21617459   6.665   1.460   5.030
  157SAPE  H16R17460   6.723   1.543   5.085
  157SAPE  H16S17461   6.559   1.447   5.044
  157SAPE  C21717462   6.736   1.409   4.918
  157SAPE  H17R17463   6.790   1.315   4.908
  157SAPE  H17S17464   6.797   1.493   4.912
  157SAPE  C21817465   6.661   1.467   4.820
  157SAPE  H18R17466   6.647   1.575   4.865
  157SAPE  H18S17467   6.572   1.405   4.831
  157SAPE  C21917468   6.711   1.463   4.684
  157SAPE  H19R17469   6.741   1.364   4.654
  157SAPE  H19S17470   6.810   1.495   4.677
  157SAPE  C22017471   6.638   1.548   4.585
  157SAPE  H20R17472   6.682   1.548   4.486
  157SAPE  H20S17473   6.638   1.652   4.598
  157SAPE  H20T17474   6.534   1.545   4.595
  157SAPE   C3317475   6.997   0.970   5.961
  157SAPE   H3X17476   7.091   0.912   5.923
  157SAPE   H3Y17477   7.059   0.983   5.865
  157SAPE   C3417478   6.883   0.916   5.958
  157SAPE   H4X17479   6.825   1.003   5.989
  157SAPE   H4Y17480   6.877   0.875   6.055
  157SAPE   C3517481   6.878   0.832   5.838
  157SAPE   H5X17482   6.971   0.786   5.799
  157SAPE   H5Y17483   6.861   0.875   5.744
  157SAPE   C3617484   6.744   0.786   5.837
  157SAPE   H6X17485   6.682   0.872   5.872
  157SAPE   H6Y17486   6.759   0.706   5.912
  157SAPE   C3717487   6.708   0.746   5.696
  157SAPE   H7X17488   6.622   0.687   5.720
  157SAPE   H7Y17489   6.787   0.678   5.662
  157SAPE   C3817490   6.681   0.855   5.588
  157SAPE   H8X17491   6.773   0.903   5.556
  157SAPE   H8Y17492   6.606   0.925   5.628
  157SAPE   C3917493   6.629   0.813   5.452
  157SAPE   H9X17494   6.608   0.892   5.378
  157SAPE   H9Y17495   6.556   0.739   5.480
  157SAPE  C31017496   6.715   0.726   5.375
  157SAPE  H10X17497   6.726   0.673   5.466
  157SAPE  H10Y17498   6.816   0.768   5.361
  157SAPE  C31117499   6.657   0.635   5.265
  157SAPE  H11X17500   6.564   0.589   5.291
  157SAPE  H11Y17501   6.716   0.539   5.253
  157SAPE  C31217502   6.665   0.725   5.143
  157SAPE  H12X17503   6.755   0.719   5.091
  157SAPE  H12Y17504   6.680   0.829   5.174
  157SAPE  C31317505   6.593   0.691   5.017
  157SAPE  H13X17506   6.489   0.707   5.042
  157SAPE  H13Y17507   6.613   0.587   4.985
  157SAPE  C31417508   6.629   0.787   4.903
  157SAPE  H14X17509   6.727   0.763   4.859
  157SAPE  H14Y17510   6.631   0.890   4.947
  157SAPE  C31517511   6.522   0.777   4.798
  157SAPE  H15X17512   6.430   0.809   4.851
  157SAPE  H15Y17513   6.510   0.669   4.772
  157SAPE  C31617514   6.546   0.855   4.667
  157SAPE  H16X17515   6.465   0.827   4.597
  157SAPE  H16Y17516   6.628   0.813   4.610
  157SAPE  C31717517   6.567   1.009   4.689
  157SAPE  H17X17518   6.662   1.022   4.740
  157SAPE  H17Y17519   6.502   1.039   4.774
  157SAPE  C31817520   6.555   1.114   4.573
  157SAPE  H18X17521   6.614   1.090   4.483
  157SAPE  H18Y17522   6.567   1.219   4.601
  157SAPE  H18Z17523   6.453   1.132   4.541
  158SAPE     N17524   0.304   0.856   6.457
  158SAPE   HN117525   0.224   0.866   6.392
  158SAPE   HN217526   0.271   0.873   6.554
  158SAPE   HN317527   0.373   0.929   6.429
  158SAPE   C1217528   0.374   0.722   6.449
  158SAPE  H12A17529   0.300   0.643   6.468
  158SAPE  H12B17530   0.452   0.722   6.528
  158SAPE   C1117531   0.436   0.700   6.311
  158SAPE  H11A17532   0.362   0.725   6.234
  158SAPE  H11B17533   0.462   0.594   6.294
  158SAPE     P17534   0.619   0.779   6.148
  158SAPE   O1317535   0.513   0.807   6.050
  158SAPE   O1417536   0.738   0.863   6.154
  158SAPE   O1217537   0.550   0.782   6.294
  158SAPE   O1117538   0.661   0.629   6.133
  158SAPE    C117539   0.764   0.582   6.220
  158SAPE    HA17540   0.844   0.656   6.242
  158SAPE    HB17541   0.717   0.546   6.314
  158SAPE    C217542   0.838   0.465   6.162
  158SAPE    HS17543   0.937   0.452   6.214
  158SAPE   O2117544   0.858   0.473   6.020
  158SAPE   C2117545   0.934   0.576   5.984
  158SAPE   O2217546   1.015   0.636   6.051
  158SAPE   C2217547   0.912   0.606   5.840
  158SAPE   H2R17548   1.006   0.603   5.779
  158SAPE   H2S17549   0.840   0.529   5.812
  158SAPE    C317550   0.759   0.341   6.197
  158SAPE    HX17551   0.750   0.317   6.306
  158SAPE    HY17552   0.845   0.288   6.158
  158SAPE   O3117553   0.642   0.310   6.118
  158SAPE   C3117554   0.532   0.321   6.186
  158SAPE   O3217555   0.521   0.331   6.307
  158SAPE   C3217556   0.419   0.320   6.089
  158SAPE   H2X17557   0.323   0.311   6.144
  158SAPE   H2Y17558   0.431   0.237   6.018
  158SAPE   C2317559   0.794   0.685   5.801
  158SAPE   H3R17560   0.719   0.670   5.883
  158SAPE   H3S17561   0.745   0.647   5.706
  158SAPE   C2417562   0.854   0.818   5.783
  158SAPE   H4R17563   0.921   0.810   5.694
  158SAPE   H4S17564   0.914   0.845   5.873
  158SAPE   C2517565   0.727   0.890   5.762
  158SAPE   H5R17566   0.672   0.935   5.845
  158SAPE   C2617567   0.701   0.938   5.646
  158SAPE   H6R17568   0.619   1.009   5.643
  158SAPE   C2717569   0.786   0.934   5.526
  158SAPE   H7R17570   0.893   0.973   5.536
  158SAPE   H7S17571   0.735   1.007   5.467
  158SAPE   C2817572   0.759   0.815   5.449
  158SAPE   H8R17573   0.656   0.793   5.429
  158SAPE   C2917574   0.851   0.740   5.400
  158SAPE   H9R17575   0.822   0.665   5.330
  158SAPE  C21017576   0.993   0.769   5.417
  158SAPE  H10R17577   1.067   0.692   5.412
  158SAPE  H10S17578   1.030   0.826   5.502
  158SAPE  C21117579   1.025   0.832   5.294
  158SAPE  H11R17580   1.116   0.865   5.311
  158SAPE  C21217581   1.000   0.835   5.169
  158SAPE  H12R17582   1.083   0.862   5.115
  158SAPE  C21317583   0.930   0.773   5.067
  158SAPE  H13R17584   0.945   0.681   5.101
  158SAPE  H13S17585   0.986   0.781   4.972
  158SAPE  C21417586   0.792   0.818   5.072
  158SAPE  H14R17587   0.727   0.784   5.148
  158SAPE  C21517588   0.747   0.894   4.980
  158SAPE  H15R17589   0.654   0.948   4.989
  158SAPE  C21617590   0.839   0.932   4.878
  158SAPE  H16R17591   0.928   0.968   4.922
  158SAPE  H16S17592   0.803   1.022   4.861
  158SAPE  C21717593   0.821   0.934   4.735
  158SAPE  H17R17594   0.845   1.032   4.687
  158SAPE  H17S17595   0.715   0.926   4.711
  158SAPE  C21817596   0.896   0.817   4.696
  158SAPE  H18R17597   0.832   0.741   4.744
  158SAPE  H18S17598   0.998   0.810   4.736
  158SAPE  C21917599   0.888   0.812   4.552
  158SAPE  H19R17600   0.939   0.884   4.484
  158SAPE  H19S17601   0.779   0.831   4.551
  158SAPE  C22017602   0.928   0.679   4.505
  158SAPE  H20R17603   1.038   0.683   4.515
  158SAPE  H20S17604   0.903   0.655   4.400
  158SAPE  H20T17605   0.885   0.596   4.562
  158SAPE   C3317606   0.438   0.450   6.017
  158SAPE   H3X17607   0.518   0.443   5.940
  158SAPE   H3Y17608   0.449   0.536   6.086
  158SAPE   C3417609   0.319   0.497   5.948
  158SAPE   H4X17610   0.244   0.508   6.023
  158SAPE   H4Y17611   0.286   0.415   5.897
  158SAPE   C3517612   0.356   0.616   5.864
  158SAPE   H5X17613   0.432   0.592   5.785
  158SAPE   H5Y17614   0.349   0.705   5.928
  158SAPE   C3617615   0.254   0.669   5.780
  158SAPE   H6X17616   0.173   0.717   5.844
  158SAPE   H6Y17617   0.246   0.567   5.736
  158SAPE   C3717618   0.255   0.772   5.679
  158SAPE   H7X17619   0.255   0.866   5.733
  158SAPE   H7Y17620   0.146   0.785   5.657
  158SAPE   C3817621   0.351   0.734   5.563
  158SAPE   H8X17622   0.336   0.634   5.521
  158SAPE   H8Y17623   0.447   0.705   5.607
  158SAPE   C3917624   0.346   0.847   5.454
  158SAPE   H9X17625   0.452   0.863   5.434
  158SAPE   H9Y17626   0.297   0.931   5.510
  158SAPE  C31017627   0.273   0.854   5.313
  158SAPE  H10X17628   0.276   0.953   5.267
  158SAPE  H10Y17629   0.161   0.857   5.329
  158SAPE  C31117630   0.315   0.754   5.199
  158SAPE  H11X17631   0.258   0.785   5.110
  158SAPE  H11Y17632   0.291   0.646   5.204
  158SAPE  C31217633   0.456   0.737   5.158
  158SAPE  H12X17634   0.520   0.726   5.248
  158SAPE  H12Y17635   0.470   0.832   5.105
  158SAPE  C31317636   0.472   0.617   5.064
  158SAPE  H13X17637   0.396   0.538   5.083
  158SAPE  H13Y17638   0.567   0.568   5.090
  158SAPE  C31417639   0.476   0.656   4.914
  158SAPE  H14X17640   0.549   0.737   4.906
  158SAPE  H14Y17641   0.384   0.705   4.878
  158SAPE  C31517642   0.496   0.529   4.826
  158SAPE  H15X17643   0.417   0.451   4.833
  158SAPE  H15Y17644   0.595   0.488   4.852
  158SAPE  C31617645   0.498   0.558   4.680
  158SAPE  H16X17646   0.524   0.666   4.690
  158SAPE  H16Y17647   0.403   0.543   4.623
  158SAPE  C31717648   0.605   0.482   4.601
  158SAPE  H17X17649   0.700   0.492   4.656
  158SAPE  H17Y17650   0.619   0.525   4.501
  158SAPE  C31817651   0.568   0.340   4.568
  158SAPE  H18X17652   0.494   0.310   4.644
  158SAPE  H18Y17653   0.656   0.273   4.569
  158SAPE  H18Z17654   0.517   0.329   4.470
  159SAPE     N17655   5.278   4.341   2.528
  159SAPE   HN117656   5.351   4.280   2.487
  159SAPE   HN217657   5.317   4.403   2.602
  159SAPE   HN317658   5.201   4.281   2.564
  159SAPE   C1217659   5.226   4.415   2.409
  159SAPE  H12A17660   5.266   4.518   2.411
  159SAPE  H12B17661   5.115   4.417   2.417
  159SAPE   C1117662   5.269   4.340   2.284
  159SAPE  H11A17663   5.379   4.327   2.278
  159SAPE  H11B17664   5.239   4.402   2.195
  159SAPE     P17665   5.143   4.158   2.152
  159SAPE   O1317666   5.013   4.227   2.142
  159SAPE   O1417667   5.238   4.179   2.041
  159SAPE   O1217668   5.212   4.209   2.287
  159SAPE   O1117669   5.123   4.004   2.171
  159SAPE    C117670   5.145   3.935   2.292
  159SAPE    HA17671   5.188   3.837   2.264
  159SAPE    HB17672   5.220   3.986   2.357
  159SAPE    C217673   5.011   3.914   2.366
  159SAPE    HS17674   4.941   3.868   2.294
  159SAPE   O2117675   4.964   4.040   2.415
  159SAPE   C2117676   4.834   4.047   2.415
  159SAPE   O2217677   4.753   3.961   2.386
  159SAPE   C2217678   4.795   4.177   2.471
  159SAPE   H2R17679   4.882   4.242   2.496
  159SAPE   H2S17680   4.727   4.228   2.399
  159SAPE    C317681   5.032   3.820   2.485
  159SAPE    HX17682   5.051   3.721   2.439
  159SAPE    HY17683   4.942   3.815   2.551
  159SAPE   O3117684   5.151   3.863   2.548
  159SAPE   C3117685   5.166   3.862   2.674
  159SAPE   O3217686   5.089   3.840   2.764
  159SAPE   C3217687   5.298   3.913   2.701
  159SAPE   H2X17688   5.285   4.006   2.757
  159SAPE   H2Y17689   5.363   3.915   2.611
  159SAPE   C2317690   4.717   4.140   2.594
  159SAPE   H3R17691   4.628   4.078   2.591
  159SAPE   H3S17692   4.663   4.235   2.593
  159SAPE   C2417693   4.798   4.083   2.718
  159SAPE   H4R17694   4.833   3.983   2.685
  159SAPE   H4S17695   4.717   4.062   2.792
  159SAPE   C2517696   4.913   4.156   2.787
  159SAPE   H5R17697   4.957   4.235   2.726
  159SAPE   C2617698   4.947   4.154   2.919
  159SAPE   H6R17699   5.035   4.209   2.955
  159SAPE   C2717700   4.884   4.082   3.033
  159SAPE   H7R17701   4.774   4.082   3.046
  159SAPE   H7S17702   4.926   4.118   3.130
  159SAPE   C2817703   4.919   3.944   3.008
  159SAPE   H8R17704   4.876   3.885   2.926
  159SAPE   C2917705   5.002   3.886   3.084
  159SAPE   H9R17706   4.968   3.791   3.111
  159SAPE  C21017707   5.065   3.947   3.193
  159SAPE  H10R17708   4.997   3.981   3.270
  159SAPE  H10S17709   5.136   4.020   3.151
  159SAPE  C21117710   5.180   3.903   3.241
  159SAPE  H11R17711   5.233   3.832   3.178
  159SAPE  C21217712   5.191   3.897   3.366
  159SAPE  H12R17713   5.294   3.867   3.373
  159SAPE  C21317714   5.103   3.920   3.487
  159SAPE  H13R17715   4.998   3.907   3.454
  159SAPE  H13S17716   5.156   4.000   3.532
  159SAPE  C21417717   5.084   3.847   3.615
  159SAPE  H14R17718   5.094   3.742   3.609
  159SAPE  C21517719   5.095   3.873   3.745
  159SAPE  H15R17720   5.095   3.790   3.821
  159SAPE  C21617721   5.130   4.001   3.794
  159SAPE  H16R17722   5.093   4.003   3.897
  159SAPE  H16S17723   5.067   4.059   3.725
  159SAPE  C21717724   5.278   4.041   3.787
  159SAPE  H17R17725   5.286   4.147   3.800
  159SAPE  H17S17726   5.314   4.016   3.687
  159SAPE  C21817727   5.365   3.990   3.901
  159SAPE  H18R17728   5.302   3.900   3.890
  159SAPE  H18S17729   5.339   4.028   4.001
  159SAPE  C21917730   5.525   3.974   3.890
  159SAPE  H19R17731   5.566   4.057   3.838
  159SAPE  H19S17732   5.576   3.905   3.820
  159SAPE  C22017733   5.608   3.913   3.999
  159SAPE  H20R17734   5.703   3.861   3.974
  159SAPE  H20S17735   5.564   3.818   4.018
  159SAPE  H20T17736   5.595   3.968   4.092
  159SAPE   C3317737   5.359   3.821   2.790
  159SAPE   H3X17738   5.363   3.720   2.740
  159SAPE   H3Y17739   5.328   3.818   2.898
  159SAPE   C3417740   5.491   3.869   2.799
  159SAPE   H4X17741   5.546   3.904   2.709
  159SAPE   H4Y17742   5.535   3.771   2.815
  159SAPE   C3517743   5.503   3.973   2.904
  159SAPE   H5X17744   5.470   4.071   2.868
  159SAPE   H5Y17745   5.608   3.964   2.888
  159SAPE   C3617746   5.483   3.953   3.054
  159SAPE   H6X17747   5.555   3.887   3.111
  159SAPE   H6Y17748   5.382   3.917   3.066
  159SAPE   C3717749   5.483   4.088   3.120
  159SAPE   H7X17750   5.462   4.181   3.067
  159SAPE   H7Y17751   5.587   4.094   3.108
  159SAPE   C3817752   5.441   4.080   3.264
  159SAPE   H8X17753   5.486   4.003   3.330
  159SAPE   H8Y17754   5.342   4.050   3.243
  159SAPE   C3917755   5.426   4.206   3.341
  159SAPE   H9X17756   5.436   4.295   3.274
  159SAPE   H9Y17757   5.499   4.215   3.424
  159SAPE  C31017758   5.294   4.188   3.405
  159SAPE  H10X17759   5.298   4.136   3.503
  159SAPE  H10Y17760   5.212   4.152   3.341
  159SAPE  C31117761   5.248   4.314   3.437
  159SAPE  H11X17762   5.278   4.396   3.369
  159SAPE  H11Y17763   5.334   4.336   3.504
  159SAPE  C31217764   5.104   4.289   3.497
  159SAPE  H12X17765   5.038   4.371   3.520
  159SAPE  H12Y17766   5.111   4.266   3.604
  159SAPE  C31317767   4.984   4.255   3.410
  159SAPE  H13X17768   4.997   4.150   3.395
  159SAPE  H13Y17769   4.992   4.303   3.310
  159SAPE  C31417770   4.848   4.301   3.474
  159SAPE  H14X17771   4.769   4.269   3.405
  159SAPE  H14Y17772   4.834   4.412   3.488
  159SAPE  C31517773   4.826   4.237   3.610
  159SAPE  H15X17774   4.916   4.245   3.676
  159SAPE  H15Y17775   4.810   4.129   3.591
  159SAPE  C31617776   4.707   4.303   3.679
  159SAPE  H16X17777   4.620   4.297   3.610
  159SAPE  H16Y17778   4.728   4.412   3.691
  159SAPE  C31717779   4.670   4.235   3.811
  159SAPE  H17X17780   4.668   4.125   3.795
  159SAPE  H17Y17781   4.567   4.268   3.837
  159SAPE  C31817782   4.766   4.266   3.926
  159SAPE  H18X17783   4.865   4.220   3.911
  159SAPE  H18Y17784   4.728   4.228   4.023
  159SAPE  H18Z17785   4.781   4.376   3.932
  160SAPE     N17786   5.573   2.947   2.507
  160SAPE   HN117787   5.582   3.040   2.553
  160SAPE   HN217788   5.482   2.909   2.549
  160SAPE   HN317789   5.649   2.879   2.521
  160SAPE   C1217790   5.580   2.983   2.357
  160SAPE  H12A17791   5.584   3.089   2.339
  160SAPE  H12B17792   5.492   3.023   2.309
  160SAPE   C1117793   5.590   2.862   2.268
  160SAPE  H11A17794   5.547   2.880   2.164
  160SAPE  H11B17795   5.531   2.775   2.302
  160SAPE     P17796   5.776   2.746   2.165
  160SAPE   O1317797   5.721   2.612   2.182
  160SAPE   O1417798   5.744   2.818   2.040
  160SAPE   O1217799   5.722   2.829   2.284
  160SAPE   O1117800   5.929   2.746   2.190
  160SAPE    C117801   5.998   2.837   2.274
  160SAPE    HA17802   6.097   2.841   2.229
  160SAPE    HB17803   5.968   2.943   2.265
  160SAPE    C217804   6.006   2.791   2.423
  160SAPE    HS17805   6.093   2.721   2.428
  160SAPE   O2117806   5.883   2.728   2.468
  160SAPE   C2117807   5.900   2.605   2.510
  160SAPE   O2217808   6.007   2.549   2.525
  160SAPE   C2217809   5.765   2.548   2.544
  160SAPE   H2R17810   5.702   2.563   2.453
  160SAPE   H2S17811   5.770   2.440   2.564
  160SAPE    C317812   6.040   2.910   2.516
  160SAPE    HX17813   5.970   2.995   2.496
  160SAPE    HY17814   6.143   2.944   2.493
  160SAPE   O3117815   6.026   2.861   2.651
  160SAPE   C3117816   6.053   2.941   2.752
  160SAPE   O3217817   6.100   3.051   2.748
  160SAPE   C3217818   6.013   2.876   2.882
  160SAPE   H2X17819   6.070   2.781   2.888
  160SAPE   H2Y17820   5.905   2.855   2.873
  160SAPE   C2317821   5.705   2.619   2.665
  160SAPE   H3R17822   5.693   2.726   2.636
  160SAPE   H3S17823   5.758   2.609   2.761
  160SAPE   C2417824   5.567   2.573   2.693
  160SAPE   H4R17825   5.537   2.560   2.587
  160SAPE   H4S17826   5.517   2.661   2.742
  160SAPE   C2517827   5.538   2.447   2.768
  160SAPE   H5R17828   5.519   2.358   2.705
  160SAPE   C2617829   5.509   2.438   2.899
  160SAPE   H6R17830   5.466   2.344   2.934
  160SAPE   C2717831   5.497   2.551   3.001
  160SAPE   H7R17832   5.422   2.528   3.081
  160SAPE   H7S17833   5.455   2.641   2.951
  160SAPE   C2817834   5.617   2.593   3.071
  160SAPE   H8R17835   5.706   2.536   3.045
  160SAPE   C2917836   5.613   2.660   3.185
  160SAPE   H9R17837   5.707   2.699   3.224
  160SAPE  C21017838   5.488   2.702   3.256
  160SAPE  H10R17839   5.470   2.646   3.349
  160SAPE  H10S17840   5.389   2.704   3.203
  160SAPE  C21117841   5.529   2.836   3.288
  160SAPE  H11R17842   5.489   2.896   3.206
  160SAPE  C21217843   5.581   2.890   3.402
  160SAPE  H12R17844   5.554   2.993   3.431
  160SAPE  C21317845   5.608   2.811   3.520
  160SAPE  H13R17846   5.671   2.736   3.474
  160SAPE  H13S17847   5.518   2.763   3.564
  160SAPE  C21417848   5.691   2.900   3.607
  160SAPE  H14R17849   5.772   2.958   3.563
  160SAPE  C21517850   5.668   2.925   3.734
  160SAPE  H15R17851   5.741   2.980   3.793
  160SAPE  C21617852   5.559   2.868   3.810
  160SAPE  H16R17853   5.529   2.776   3.766
  160SAPE  H16S17854   5.469   2.925   3.839
  160SAPE  C21717855   5.646   2.809   3.913
  160SAPE  H17R17856   5.736   2.749   3.898
  160SAPE  H17S17857   5.575   2.773   3.987
  160SAPE  C21817858   5.692   2.882   4.023
  160SAPE  H18R17859   5.599   2.947   4.020
  160SAPE  H18S17860   5.760   2.957   3.988
  160SAPE  C21917861   5.723   2.775   4.151
  160SAPE  H19R17862   5.781   2.844   4.223
  160SAPE  H19S17863   5.829   2.762   4.160
  160SAPE  C22017864   5.580   2.681   4.228
  160SAPE  H20R17865   5.588   2.631   4.329
  160SAPE  H20S17866   5.483   2.677   4.177
  160SAPE  H20T17867   5.485   2.742   4.261
  160SAPE   C3317868   6.045   2.972   3.000
  160SAPE   H3X17869   5.991   3.069   2.987
  160SAPE   H3Y17870   6.153   2.998   3.002
  160SAPE   C3417871   6.006   2.916   3.137
  160SAPE   H4X17872   6.061   2.821   3.156
  160SAPE   H4Y17873   5.896   2.893   3.135
  160SAPE   C3517874   6.035   3.014   3.250
  160SAPE   H5X17875   6.007   2.969   3.347
  160SAPE   H5Y17876   5.978   3.109   3.238
  160SAPE   C3617877   6.182   3.053   3.263
  160SAPE   H6X17878   6.214   3.100   3.168
  160SAPE   H6Y17879   6.246   2.963   3.280
  160SAPE   C3717880   6.197   3.152   3.376
  160SAPE   H7X17881   6.144   3.248   3.363
  160SAPE   H7Y17882   6.297   3.193   3.380
  160SAPE   C3817883   6.173   3.093   3.513
  160SAPE   H8X17884   6.244   3.152   3.573
  160SAPE   H8Y17885   6.206   2.987   3.519
  160SAPE   C3917886   6.033   3.122   3.567
  160SAPE   H9X17887   5.953   3.079   3.506
  160SAPE   H9Y17888   6.025   3.233   3.574
  160SAPE  C31017889   6.002   3.062   3.702
  160SAPE  H10X17890   5.909   3.093   3.749
  160SAPE  H10Y17891   6.056   3.129   3.767
  160SAPE  C31117892   6.027   2.909   3.707
  160SAPE  H11X17893   6.131   2.879   3.677
  160SAPE  H11Y17894   5.955   2.859   3.644
  160SAPE  C31217895   6.006   2.853   3.846
  160SAPE  H12X17896   5.913   2.872   3.896
  160SAPE  H12Y17897   6.049   2.937   3.891
  160SAPE  C31317898   6.065   2.713   3.867
  160SAPE  H13X17899   6.175   2.710   3.852
  160SAPE  H13Y17900   6.015   2.661   3.782
  160SAPE  C31417901   6.026   2.642   3.999
  160SAPE  H14X17902   6.046   2.534   3.987
  160SAPE  H14Y17903   5.919   2.655   4.020
  160SAPE  C31517904   6.107   2.674   4.125
  160SAPE  H15X17905   6.106   2.779   4.145
  160SAPE  H15Y17906   6.212   2.642   4.116
  160SAPE  C31617907   6.041   2.634   4.256
  160SAPE  H16X17908   6.009   2.531   4.254
  160SAPE  H16Y17909   5.951   2.694   4.268
  160SAPE  C31717910   6.113   2.675   4.382
  160SAPE  H17X17911   6.222   2.651   4.381
  160SAPE  H17Y17912   6.081   2.646   4.480
  160SAPE  C31817913   6.051   2.800   4.440
  160SAPE  H18X17914   5.997   2.885   4.397
  160SAPE  H18Y17915   6.065   2.839   4.340
  160SAPE  H18Z17916   6.125   2.832   4.517
  161SAPE     N17917   3.240   6.332   2.214
  161SAPE   HN117918   3.326   6.272   2.219
  161SAPE   HN217919   3.264   6.430   2.190
  161SAPE   HN317920   3.193   6.321   2.307
  161SAPE   C1217921   3.148   6.284   2.104
  161SAPE  H12A17922   3.208   6.271   2.012
  161SAPE  H12B17923   3.074   6.365   2.086
  161SAPE   C1117924   3.073   6.154   2.138
  161SAPE  H11A17925   3.018   6.125   2.045
  161SAPE  H11B17926   2.996   6.173   2.216
  161SAPE     P17927   3.173   5.976   2.312
  161SAPE   O1317928   3.205   5.833   2.289
  161SAPE   O1417929   3.265   6.062   2.390
  161SAPE   O1217930   3.162   6.049   2.171
  161SAPE   O1117931   3.026   5.989   2.373
  161SAPE    C117932   2.982   5.892   2.472
  161SAPE    HA17933   2.938   5.805   2.422
  161SAPE    HB17934   3.065   5.856   2.538
  161SAPE    C217935   2.881   5.956   2.567
  161SAPE    HS17936   2.795   5.990   2.504
  161SAPE   O2117937   2.957   6.058   2.630
  161SAPE   C2117938   2.932   6.176   2.582
  161SAPE   O2217939   2.831   6.206   2.519
  161SAPE   C2217940   3.027   6.272   2.659
  161SAPE   H2R17941   3.064   6.351   2.599
  161SAPE   H2S17942   2.972   6.353   2.706
  161SAPE    C317943   2.822   5.870   2.680
  161SAPE    HX17944   2.740   5.811   2.634
  161SAPE    HY17945   2.771   5.939   2.753
  161SAPE   O3117946   2.923   5.785   2.739
  161SAPE   C3117947   2.894   5.757   2.864
  161SAPE   O3217948   2.796   5.800   2.924
  161SAPE   C3217949   2.989   5.662   2.928
  161SAPE   H2X17950   3.088   5.698   2.896
  161SAPE   H2Y17951   2.981   5.553   2.906
  161SAPE   C2317952   3.130   6.207   2.759
  161SAPE   H3R17953   3.182   6.127   2.704
  161SAPE   H3S17954   3.098   6.155   2.855
  161SAPE   C2417955   3.229   6.312   2.802
  161SAPE   H4R17956   3.276   6.354   2.713
  161SAPE   H4S17957   3.306   6.265   2.866
  161SAPE   C2517958   3.175   6.424   2.876
  161SAPE   H5R17959   3.097   6.493   2.837
  161SAPE   C2617960   3.209   6.441   2.999
  161SAPE   H6R17961   3.159   6.523   3.021
  161SAPE   C2717962   3.295   6.381   3.104
  161SAPE   H7R17963   3.303   6.450   3.193
  161SAPE   H7S17964   3.393   6.378   3.057
  161SAPE   C2817965   3.251   6.243   3.138
  161SAPE   H8R17966   3.294   6.163   3.079
  161SAPE   C2917967   3.168   6.205   3.232
  161SAPE   H9R17968   3.140   6.097   3.235
  161SAPE  C21017969   3.103   6.306   3.322
  161SAPE  H10R17970   3.107   6.420   3.289
  161SAPE  H10S17971   3.098   6.298   3.425
  161SAPE  C21117972   2.985   6.226   3.310
  161SAPE  H11R17973   2.979   6.323   3.257
  161SAPE  C21217974   2.880   6.144   3.355
  161SAPE  H12R17975   2.773   6.129   3.322
  161SAPE  C21317976   2.877   6.113   3.493
  161SAPE  H13R17977   2.910   6.207   3.543
  161SAPE  H13S17978   2.958   6.045   3.467
  161SAPE  C21417979   2.745   6.060   3.547
  161SAPE  H14R17980   2.663   6.129   3.570
  161SAPE  C21517981   2.710   5.933   3.547
  161SAPE  H15R17982   2.619   5.899   3.592
  161SAPE  C21617983   2.796   5.827   3.496
  161SAPE  H16R17984   2.893   5.866   3.463
  161SAPE  H16S17985   2.747   5.781   3.409
  161SAPE  C21717986   2.825   5.729   3.609
  161SAPE  H17R17987   2.882   5.647   3.561
  161SAPE  H17S17988   2.731   5.692   3.654
  161SAPE  C21817989   2.906   5.783   3.727
  161SAPE  H18R17990   2.844   5.858   3.781
  161SAPE  H18S17991   2.995   5.835   3.687
  161SAPE  C21917992   2.950   5.670   3.822
  161SAPE  H19R17993   3.012   5.598   3.765
  161SAPE  H19S17994   2.860   5.613   3.856
  161SAPE  C22017995   3.022   5.716   3.950
  161SAPE  H20R17996   3.025   5.631   4.023
  161SAPE  H20S17997   2.967   5.798   3.999
  161SAPE  H20T17998   3.125   5.750   3.928
  161SAPE   C3317999   2.965   5.686   3.078
  161SAPE   H3X18000   2.890   5.614   3.118
  161SAPE   H3Y18001   2.939   5.789   3.107
  161SAPE   C3418002   3.087   5.665   3.157
  161SAPE   H4X18003   3.076   5.560   3.121
  161SAPE   H4Y18004   3.068   5.664   3.268
  161SAPE   C3518005   3.230   5.715   3.113
  161SAPE   H5X18006   3.255   5.703   3.008
  161SAPE   H5Y18007   3.323   5.663   3.148
  161SAPE   C3618008   3.267   5.847   3.169
  161SAPE   H6X18009   3.252   5.847   3.280
  161SAPE   H6Y18010   3.191   5.909   3.118
  161SAPE   C3718011   3.414   5.877   3.134
  161SAPE   H7X18012   3.422   5.986   3.145
  161SAPE   H7Y18013   3.437   5.850   3.028
  161SAPE   C3818014   3.523   5.815   3.224
  161SAPE   H8X18015   3.623   5.847   3.187
  161SAPE   H8Y18016   3.523   5.707   3.207
  161SAPE   C3918017   3.519   5.846   3.375
  161SAPE   H9X18018   3.618   5.816   3.417
  161SAPE   H9Y18019   3.442   5.787   3.429
  161SAPE  C31018020   3.494   5.995   3.400
  161SAPE  H10X18021   3.388   6.018   3.379
  161SAPE  H10Y18022   3.549   6.046   3.319
  161SAPE  C31118023   3.530   6.047   3.540
  161SAPE  H11X18024   3.589   6.141   3.545
  161SAPE  H11Y18025   3.594   5.969   3.584
  161SAPE  C31218026   3.409   6.077   3.629
  161SAPE  H12X18027   3.445   6.118   3.726
  161SAPE  H12Y18028   3.359   5.979   3.643
  161SAPE  C31318029   3.309   6.176   3.567
  161SAPE  H13X18030   3.257   6.120   3.486
  161SAPE  H13Y18031   3.365   6.262   3.523
  161SAPE  C31418032   3.199   6.227   3.661
  161SAPE  H14X18033   3.138   6.142   3.697
  161SAPE  H14Y18034   3.129   6.288   3.602
  161SAPE  C31518035   3.250   6.310   3.780
  161SAPE  H15X18036   3.320   6.388   3.745
  161SAPE  H15Y18037   3.306   6.245   3.849
  161SAPE  C31618038   3.139   6.380   3.857
  161SAPE  H16X18039   3.093   6.456   3.791
  161SAPE  H16Y18040   3.176   6.432   3.947
  161SAPE  C31718041   3.032   6.281   3.901
  161SAPE  H17X18042   2.997   6.239   3.805
  161SAPE  H17Y18043   2.953   6.333   3.959
  161SAPE  C31818044   3.069   6.157   3.976
  161SAPE  H18X18045   2.978   6.092   3.985
  161SAPE  H18Y18046   3.113   6.185   4.073
  161SAPE  H18Z18047   3.141   6.101   3.914
  162SAPE     N18048   2.726   1.240   2.358
  162SAPE   HN118049   2.790   1.164   2.332
  162SAPE   HN218050   2.797   1.318   2.376
  162SAPE   HN318051   2.698   1.233   2.459
  162SAPE   C1218052   2.632   1.313   2.281
  162SAPE  H12A18053   2.686   1.341   2.189
  162SAPE  H12B18054   2.608   1.401   2.343
  162SAPE   C1118055   2.520   1.217   2.273
  162SAPE  H11A18056   2.438   1.271   2.224
  162SAPE  H11B18057   2.486   1.182   2.375
  162SAPE     P18058   2.500   0.970   2.196
  162SAPE   O1318059   2.363   0.975   2.139
  162SAPE   O1418060   2.597   0.881   2.133
  162SAPE   O1218061   2.562   1.114   2.188
  162SAPE   O1118062   2.499   0.949   2.351
  162SAPE    C118063   2.405   0.854   2.404
  162SAPE    HA18064   2.403   0.759   2.347
  162SAPE    HB18065   2.439   0.835   2.508
  162SAPE    C218066   2.263   0.911   2.415
  162SAPE    HS18067   2.216   0.925   2.316
  162SAPE   O2118068   2.283   1.039   2.459
  162SAPE   C2118069   2.189   1.128   2.455
  162SAPE   O2218070   2.070   1.114   2.438
  162SAPE   C2218071   2.248   1.250   2.499
  162SAPE   H2R18072   2.344   1.292   2.462
  162SAPE   H2S18073   2.166   1.324   2.517
  162SAPE    C318074   2.169   0.831   2.507
  162SAPE    HX18075   2.155   0.729   2.464
  162SAPE    HY18076   2.072   0.885   2.506
  162SAPE   O3118077   2.224   0.833   2.639
  162SAPE   C3118078   2.235   0.726   2.712
  162SAPE   O3218079   2.176   0.620   2.699
  162SAPE   C3218080   2.324   0.761   2.831
  162SAPE   H2X18081   2.271   0.738   2.925
  162SAPE   H2Y18082   2.346   0.869   2.830
  162SAPE   C2318083   2.277   1.184   2.626
  162SAPE   H3R18084   2.172   1.173   2.677
  162SAPE   H3S18085   2.314   1.285   2.640
  162SAPE   C2418086   2.411   1.111   2.682
  162SAPE   H4R18087   2.411   1.010   2.656
  162SAPE   H4S18088   2.417   1.081   2.791
  162SAPE   C2518089   2.548   1.164   2.663
  162SAPE   H5R18090   2.537   1.227   2.573
  162SAPE   C2618091   2.609   1.252   2.740
  162SAPE   H6R18092   2.691   1.293   2.706
  162SAPE   C2718093   2.602   1.345   2.860
  162SAPE   H7R18094   2.717   1.329   2.889
  162SAPE   H7S18095   2.615   1.249   2.941
  162SAPE   C2818096   2.455   1.525   2.926
  162SAPE   H8R18097   2.495   1.513   2.840
  162SAPE   C2918098   2.394   1.527   3.088
  162SAPE   H9R18099   2.320   1.593   3.123
  162SAPE  C21018100   2.431   1.414   3.214
  162SAPE  H10R18101   2.520   1.441   3.268
  162SAPE  H10S18102   2.500   1.313   3.198
  162SAPE  C21118103   2.307   1.364   3.266
  162SAPE  H11R18104   2.248   1.450   3.291
  162SAPE  C21218105   2.268   1.238   3.288
  162SAPE  H12R18106   2.166   1.229   3.326
  162SAPE  C21318107   2.340   1.108   3.265
  162SAPE  H13R18108   2.392   1.102   3.168
  162SAPE  H13S18109   2.265   1.027   3.259
  162SAPE  C21418110   2.439   1.080   3.376
  162SAPE  H14R18111   2.532   1.140   3.371
  162SAPE  C21518112   2.420   1.010   3.489
  162SAPE  H15R18113   2.510   0.994   3.550
  162SAPE  C21618114   2.295   0.939   3.536
  162SAPE  H16R18115   2.319   0.857   3.607
  162SAPE  H16S18116   2.241   0.893   3.451
  162SAPE  C21718117   2.189   1.029   3.601
  162SAPE  H17R18118   2.098   0.973   3.599
  162SAPE  H17S18119   2.170   1.119   3.536
  162SAPE  C21818120   2.212   1.091   3.741
  162SAPE  H18R18121   2.145   1.177   3.743
  162SAPE  H18S18122   2.306   1.122   3.692
  162SAPE  C21918123   2.234   1.018   3.888
  162SAPE  H19R18124   2.330   1.029   3.937
  162SAPE  H19S18125   2.283   0.933   3.836
  162SAPE  C22018126   2.122   1.013   4.018
  162SAPE  H20R18127   2.068   1.093   4.036
  162SAPE  H20S18128   2.079   0.946   4.094
  162SAPE  H20T18129   2.037   0.943   4.016
  162SAPE   C3318130   2.450   0.675   2.812
  162SAPE   H3X18131   2.516   0.729   2.740
  162SAPE   H3Y18132   2.420   0.577   2.767
  162SAPE   C3418133   2.530   0.644   2.937
  162SAPE   H4X18134   2.610   0.568   2.916
  162SAPE   H4Y18135   2.462   0.599   3.012
  162SAPE   C3518136   2.591   0.772   2.992
  162SAPE   H5X18137   2.508   0.842   3.008
  162SAPE   H5Y18138   2.665   0.818   2.921
  162SAPE   C3618139   2.645   0.753   3.132
  162SAPE   H6X18140   2.726   0.691   3.134
  162SAPE   H6Y18141   2.597   0.676   3.192
  162SAPE   C3718142   2.697   0.881   3.200
  162SAPE   H7X18143   2.606   0.916   3.247
  162SAPE   H7Y18144   2.742   0.951   3.125
  162SAPE   C3818145   2.804   0.871   3.308
  162SAPE   H8X18146   2.816   0.960   3.370
  162SAPE   H8Y18147   2.898   0.868   3.250
  162SAPE   C3918148   2.784   0.757   3.406
  162SAPE   H9X18149   2.870   0.737   3.475
  162SAPE   H9Y18150   2.761   0.680   3.332
  162SAPE  C31018151   2.663   0.758   3.487
  162SAPE  H10X18152   2.580   0.754   3.412
  162SAPE  H10Y18153   2.673   0.852   3.543
  162SAPE  C31118154   2.649   0.646   3.585
  162SAPE  H11X18155   2.736   0.644   3.654
  162SAPE  H11Y18156   2.659   0.547   3.536
  162SAPE  C31218157   2.509   0.668   3.648
  162SAPE  H12X18158   2.458   0.580   3.688
  162SAPE  H12Y18159   2.431   0.678   3.572
  162SAPE  C31318160   2.506   0.768   3.766
  162SAPE  H13X18161   2.408   0.750   3.814
  162SAPE  H13Y18162   2.505   0.871   3.726
  162SAPE  C31418163   2.623   0.760   3.865
  162SAPE  H14X18164   2.711   0.801   3.811
  162SAPE  H14Y18165   2.646   0.657   3.894
  162SAPE  C31518166   2.606   0.833   3.998
  162SAPE  H15X18167   2.654   0.788   4.087
  162SAPE  H15Y18168   2.504   0.855   4.023
  162SAPE  C31618169   2.655   0.969   3.984
  162SAPE  H16X18170   2.589   1.022   3.908
  162SAPE  H16Y18171   2.760   0.965   3.950
  162SAPE  C31718172   2.652   1.047   4.112
  162SAPE  H17X18173   2.644   1.148   4.087
  162SAPE  H17Y18174   2.748   1.063   4.161
  162SAPE  C31818175   2.528   1.031   4.191
  162SAPE  H18X18176   2.512   1.124   4.242
  162SAPE  H18Y18177   2.543   0.947   4.258
  162SAPE  H18Z18178   2.432   1.033   4.138
  163SAPE     N18179   3.596   6.525   2.019
  163SAPE   HN118180   3.534   6.454   1.978
  163SAPE   HN218181   3.544   6.601   2.067
  163SAPE   HN318182   3.654   6.569   1.944
  163SAPE   C1218183   3.683   6.458   2.120
  163SAPE  H12A18184   3.752   6.389   2.068
  163SAPE  H12B18185   3.619   6.401   2.191
  163SAPE   C1118186   3.766   6.561   2.194
  163SAPE  H11A18187   3.844   6.606   2.128
  163SAPE  H11B18188   3.821   6.503   2.267
  163SAPE     P18189   3.767   6.777   2.329
  163SAPE   O1318190   3.857   6.729   2.434
  163SAPE   O1418191   3.810   6.868   2.220
  163SAPE   O1218192   3.685   6.658   2.259
  163SAPE   O1118193   3.653   6.839   2.398
  163SAPE    C118194   3.553   6.887   2.320
  163SAPE    HA18195   3.579   6.995   2.314
  163SAPE    HB18196   3.530   6.860   2.213
  163SAPE    C218197   3.438   6.854   2.404
  163SAPE    HS18198   3.352   6.909   2.348
  163SAPE   O2118199   3.470   6.869   2.564
  163SAPE   C2118200   3.502   6.983   2.665
  163SAPE   O2218201   3.499   7.102   2.660
  163SAPE   C2218202   3.496   6.959   2.804
  163SAPE   H2R18203   3.397   6.984   2.851
  163SAPE   H2S18204   3.530   6.861   2.812
  163SAPE    C318205   3.379   6.735   2.372
  163SAPE    HX18206   3.355   6.740   2.261
  163SAPE    HY18207   3.296   6.768   2.445
  163SAPE   O3118208   3.437   6.617   2.389
  163SAPE   C3118209   3.422   6.575   2.506
  163SAPE   O3218210   3.327   6.595   2.581
  163SAPE   C3218211   3.520   6.473   2.504
  163SAPE   H2X18212   3.609   6.507   2.444
  163SAPE   H2Y18213   3.482   6.381   2.456
  163SAPE   C2318214   3.526   7.086   2.867
  163SAPE   H3R18215   3.439   7.165   2.845
  163SAPE   H3S18216   3.626   7.119   2.826
  163SAPE   C2418217   3.515   7.063   3.012
  163SAPE   H4R18218   3.574   7.136   3.053
  163SAPE   H4S18219   3.574   6.976   3.040
  163SAPE   C2518220   3.379   7.089   3.068
  163SAPE   H5R18221   3.342   7.193   3.077
  163SAPE   C2618222   3.309   6.990   3.114
  163SAPE   H6R18223   3.205   7.013   3.140
  163SAPE   C2718224   3.361   6.847   3.113
  163SAPE   H7R18225   3.390   6.829   3.216
  163SAPE   H7S18226   3.447   6.822   3.053
  163SAPE   C2818227   3.260   6.752   3.068
  163SAPE   H8R18228   3.266   6.709   2.969
  163SAPE   C2918229   3.189   6.688   3.148
  163SAPE   H9R18230   3.095   6.642   3.114
  163SAPE  C21018231   3.210   6.703   3.283
  163SAPE  H10R18232   3.309   6.670   3.307
  163SAPE  H10S18233   3.167   6.619   3.323
  163SAPE  C21118234   3.167   6.835   3.323
  163SAPE  H11R18235   3.077   6.884   3.282
  163SAPE  C21218236   3.227   6.895   3.414
  163SAPE  H12R18237   3.148   6.924   3.470
  163SAPE  C21318238   3.335   6.863   3.497
  163SAPE  H13R18239   3.373   6.777   3.449
  163SAPE  H13S18240   3.260   6.827   3.565
  163SAPE  C21418241   3.443   6.958   3.551
  163SAPE  H14R18242   3.446   7.011   3.453
  163SAPE  C21518243   3.495   7.006   3.680
  163SAPE  H15R18244   3.552   7.097   3.663
  163SAPE  C21618245   3.468   6.985   3.848
  163SAPE  H16R18246   3.560   6.982   3.908
  163SAPE  H16S18247   3.500   6.884   3.831
  163SAPE  C21718248   3.305   7.003   3.966
  163SAPE  H17R18249   3.207   6.946   3.935
  163SAPE  H17S18250   3.288   7.092   3.937
  163SAPE  C21818251   3.209   6.923   4.085
  163SAPE  H18R18252   3.107   6.943   4.082
  163SAPE  H18S18253   3.276   7.005   4.121
  163SAPE  C21918254   3.191   6.754   4.112
  163SAPE  H19R18255   3.270   6.668   4.098
  163SAPE  H19S18256   3.140   6.678   4.049
  163SAPE  C22018257   3.213   6.726   4.232
  163SAPE  H20R18258   3.137   6.807   4.246
  163SAPE  H20S18259   3.294   6.757   4.292
  163SAPE  H20T18260   3.200   6.616   4.251
  163SAPE   C3318261   3.544   6.459   2.651
  163SAPE   H3X18262   3.613   6.383   2.627
  163SAPE   H3Y18263   3.466   6.409   2.709
  163SAPE   C3418264   3.605   6.585   2.715
  163SAPE   H4X18265   3.520   6.651   2.738
  163SAPE   H4Y18266   3.681   6.625   2.644
  163SAPE   C3518267   3.680   6.579   2.846
  163SAPE   H5X18268   3.771   6.529   2.805
  163SAPE   H5Y18269   3.622   6.531   2.928
  163SAPE   C3618270   3.756   6.699   2.894
  163SAPE   H6X18271   3.675   6.772   2.906
  163SAPE   H6Y18272   3.827   6.724   2.811
  163SAPE   C3718273   3.834   6.687   3.026
  163SAPE   H7X18274   3.911   6.606   3.028
  163SAPE   H7Y18275   3.762   6.670   3.109
  163SAPE   C3818276   3.910   6.818   3.048
  163SAPE   H8X18277   3.840   6.905   3.043
  163SAPE   H8Y18278   3.982   6.827   2.964
  163SAPE   C3918279   3.984   6.818   3.182
  163SAPE   H9X18280   4.059   6.900   3.176
  163SAPE   H9Y18281   4.041   6.723   3.193
  163SAPE  C31018282   3.894   6.852   3.304
  163SAPE  H10X18283   3.819   6.925   3.266
  163SAPE  H10Y18284   3.953   6.904   3.383
  163SAPE  C31118285   3.817   6.737   3.371
  163SAPE  H11X18286   3.875   6.643   3.371
  163SAPE  H11Y18287   3.725   6.718   3.311
  163SAPE  C31218288   3.759   6.776   3.510
  163SAPE  H12X18289   3.684   6.698   3.535
  163SAPE  H12Y18290   3.705   6.871   3.492
  163SAPE  C31318291   3.861   6.789   3.626
  163SAPE  H13X18292   3.932   6.873   3.607
  163SAPE  H13Y18293   3.921   6.695   3.626
  163SAPE  C31418294   3.810   6.809   3.770
  163SAPE  H14X18295   3.723   6.875   3.783
  163SAPE  H14Y18296   3.893   6.862   3.824
  163SAPE  C31518297   3.786   6.676   3.843
  163SAPE  H15X18298   3.882   6.627   3.866
  163SAPE  H15Y18299   3.723   6.607   3.783
  163SAPE  C31618300   3.720   6.699   3.976
  163SAPE  H16X18301   3.690   6.601   4.021
  163SAPE  H16Y18302   3.628   6.756   3.956
  163SAPE  C31718303   3.799   6.796   4.066
  163SAPE  H17X18304   3.822   6.887   4.009
  163SAPE  H17Y18305   3.890   6.743   4.099
  163SAPE  C31818306   3.734   6.858   4.186
  163SAPE  H18X18307   3.697   6.766   4.230
  163SAPE  H18Y18308   3.646   6.921   4.172
  163SAPE  H18Z18309   3.791   6.915   4.259
  164SAPE     N18310   6.021   5.356   1.992
  164SAPE   HN118311   6.000   5.257   2.015
  164SAPE   HN218312   5.957   5.416   2.048
  164SAPE   HN318313   6.004   5.369   1.890
  164SAPE   C1218314   6.167   5.374   2.027
  164SAPE  H12A18315   6.191   5.482   2.020
  164SAPE  H12B18316   6.225   5.319   1.950
  164SAPE   C1118317   6.199   5.316   2.166
  164SAPE  H11A18318   6.200   5.205   2.161
  164SAPE  H11B18319   6.121   5.346   2.240
  164SAPE     P18320   6.361   5.359   2.361
  164SAPE   O1318321   6.301   5.241   2.428
  164SAPE   O1418322   6.504   5.392   2.368
  164SAPE   O1218323   6.328   5.357   2.207
  164SAPE   O1118324   6.278   5.483   2.415
  164SAPE    C118325   6.295   5.613   2.364
  164SAPE    HA18326   6.389   5.628   2.389
  164SAPE    HB18327   6.299   5.623   2.255
  164SAPE    C218328   6.238   5.735   2.442
  164SAPE    HS18329   6.297   5.825   2.412
  164SAPE   O2118330   6.232   5.717   2.585
  164SAPE   C2118331   6.337   5.751   2.652
  164SAPE   O2218332   6.442   5.794   2.611
  164SAPE   C2218333   6.315   5.730   2.799
  164SAPE   H2R18334   6.210   5.718   2.820
  164SAPE   H2S18335   6.385   5.653   2.841
  164SAPE    C318336   6.099   5.750   2.389
  164SAPE    HX18337   6.107   5.758   2.279
  164SAPE    HY18338   6.042   5.833   2.433
  164SAPE   O3118339   6.036   5.629   2.409
  164SAPE   C3118340   5.959   5.622   2.505
  164SAPE   O3218341   5.901   5.705   2.575
  164SAPE   C3218342   5.934   5.485   2.504
  164SAPE   H2X18343   5.901   5.441   2.406
  164SAPE   H2Y18344   5.837   5.506   2.545
  164SAPE   C2318345   6.343   5.860   2.865
  164SAPE   H3R18346   6.319   5.951   2.800
  164SAPE   H3S18347   6.448   5.830   2.863
  164SAPE   C2418348   6.326   5.888   3.012
  164SAPE   H4R18349   6.368   5.981   3.054
  164SAPE   H4S18350   6.356   5.798   3.069
  164SAPE   C2518351   6.184   5.893   2.989
  164SAPE   H5R18352   6.136   5.979   2.937
  164SAPE   C2618353   6.110   5.830   3.067
  164SAPE   H6R18354   6.017   5.867   3.045
  164SAPE   C2718355   6.132   5.747   3.188
  164SAPE   H7R18356   6.049   5.752   3.257
  164SAPE   H7S18357   6.216   5.785   3.250
  164SAPE   C2818358   6.124   5.608   3.169
  164SAPE   H8R18359   6.219   5.560   3.184
  164SAPE   C2918360   6.011   5.541   3.164
  164SAPE   H9R18361   6.039   5.439   3.143
  164SAPE  C21018362   5.864   5.588   3.177
  164SAPE  H10R18363   5.819   5.615   3.079
  164SAPE  H10S18364   5.868   5.676   3.239
  164SAPE  C21118365   5.751   5.533   3.255
  164SAPE  H11R18366   5.693   5.456   3.202
  164SAPE  C21218367   5.750   5.528   3.389
  164SAPE  H12R18368   5.678   5.466   3.439
  164SAPE  C21318369   5.846   5.565   3.492
  164SAPE  H13R18370   5.946   5.586   3.453
  164SAPE  H13S18371   5.857   5.484   3.569
  164SAPE  C21418372   5.770   5.683   3.536
  164SAPE  H14R18373   5.718   5.746   3.462
  164SAPE  C21518374   5.744   5.705   3.660
  164SAPE  H15R18375   5.688   5.795   3.683
  164SAPE  C21618376   5.781   5.619   3.776
  164SAPE  H16R18377   5.769   5.510   3.768
  164SAPE  H16S18378   5.718   5.658   3.855
  164SAPE  C21718379   5.918   5.633   3.825
  164SAPE  H17R18380   5.962   5.677   3.741
  164SAPE  H17S18381   5.973   5.543   3.853
  164SAPE  C21818382   5.926   5.720   3.942
  164SAPE  H18R18383   5.878   5.660   4.002
  164SAPE  H18S18384   5.835   5.780   3.962
  164SAPE  C21918385   6.072   5.730   4.014
  164SAPE  H19R18386   6.111   5.634   4.038
  164SAPE  H19S18387   6.021   5.751   4.104
  164SAPE  C22018388   6.214   5.816   3.984
  164SAPE  H20R18389   6.251   5.919   4.009
  164SAPE  H20S18390   6.199   5.924   3.954
  164SAPE  H20T18391   6.231   5.782   3.884
  164SAPE   C3318392   6.024   5.380   2.578
  164SAPE   H3X18393   6.119   5.382   2.527
  164SAPE   H3Y18394   5.993   5.273   2.555
  164SAPE   C3418395   6.038   5.378   2.729
  164SAPE   H4X18396   5.974   5.319   2.787
  164SAPE   H4Y18397   6.023   5.472   2.782
  164SAPE   C3518398   6.130   5.269   2.772
  164SAPE   H5X18399   6.119   5.181   2.704
  164SAPE   H5Y18400   6.114   5.227   2.875
  164SAPE   C3618401   6.255   5.342   2.769
  164SAPE   H6X18402   6.248   5.428   2.840
  164SAPE   H6Y18403   6.277   5.389   2.671
  164SAPE   C3718404   6.351   5.232   2.796
  164SAPE   H7X18405   6.442   5.285   2.767
  164SAPE   H7Y18406   6.364   5.160   2.714
  164SAPE   C3818407   6.334   5.169   2.943
  164SAPE   H8X18408   6.430   5.110   2.947
  164SAPE   H8Y18409   6.254   5.097   2.954
  164SAPE   C3918410   6.314   5.273   3.069
  164SAPE   H9X18411   6.256   5.358   3.035
  164SAPE   H9Y18412   6.380   5.355   3.111
  164SAPE  C31018413   6.316   5.200   3.201
  164SAPE  H10X18414   6.403   5.140   3.235
  164SAPE  H10Y18415   6.245   5.123   3.174
  164SAPE  C31118416   6.287   5.293   3.316
  164SAPE  H11X18417   6.263   5.222   3.398
  164SAPE  H11Y18418   6.198   5.351   3.285
  164SAPE  C31218419   6.402   5.385   3.362
  164SAPE  H12X18420   6.425   5.465   3.288
  164SAPE  H12Y18421   6.496   5.326   3.373
  164SAPE  C31318422   6.368   5.442   3.501
  164SAPE  H13X18423   6.403   5.363   3.572
  164SAPE  H13Y18424   6.260   5.458   3.511
  164SAPE  C31418425   6.424   5.579   3.537
  164SAPE  H14X18426   6.408   5.663   3.467
  164SAPE  H14Y18427   6.523   5.555   3.528
  164SAPE  C31518428   6.441   5.614   3.684
  164SAPE  H15X18429   6.499   5.533   3.735
  164SAPE  H15Y18430   6.339   5.615   3.723
  164SAPE  C31618431   6.524   5.740   3.714
  164SAPE  H16X18432   6.499   5.827   3.648
  164SAPE  H16Y18433   6.631   5.720   3.701
  164SAPE  C31718434   6.503   5.781   3.860
  164SAPE  H17X18435   6.400   5.806   3.852
  164SAPE  H17Y18436   6.549   5.877   3.888
  164SAPE  C31818437   6.523   5.674   3.969
  164SAPE  H18X18438   6.631   5.657   3.989
  164SAPE  H18Y18439   6.477   5.577   3.941
  164SAPE  H18Z18440   6.475   5.707   4.063
  165SAPE     N18441   3.141   6.629   2.382
  165SAPE   HN118442   3.245   6.610   2.386
  165SAPE   HN218443   3.136   6.672   2.477
  165SAPE   HN318444   3.095   6.537   2.374
  165SAPE   C1218445   3.118   6.741   2.280
  165SAPE  H12A18446   3.133   6.701   2.179
  165SAPE  H12B18447   3.189   6.826   2.280
  165SAPE   C1118448   3.009   6.831   2.319
  165SAPE  H11A18449   3.031   6.892   2.412
  165SAPE  H11B18450   2.929   6.759   2.342
  165SAPE     P18451   3.036   7.050   2.181
  165SAPE   O1318452   2.966   7.126   2.078
  165SAPE   O1418453   3.022   7.098   2.314
  165SAPE   O1218454   2.983   6.904   2.199
  165SAPE   O1118455   3.190   7.036   2.147
  165SAPE    C118456   3.274   7.151   2.169
  165SAPE    HA18457   3.358   7.136   2.101
  165SAPE    HB18458   3.225   7.250   2.170
  165SAPE    C218459   3.354   7.145   2.292
  165SAPE    HS18460   3.419   7.062   2.256
  165SAPE   O2118461   3.241   7.120   2.389
  165SAPE   C2118462   3.298   7.070   2.486
  165SAPE   O2218463   3.416   7.072   2.467
  165SAPE   C2218464   3.214   6.981   2.591
  165SAPE   H2R18465   3.156   7.053   2.648
  165SAPE   H2S18466   3.164   6.902   2.538
  165SAPE    C318467   3.457   7.258   2.349
  165SAPE    HX18468   3.538   7.260   2.278
  165SAPE    HY18469   3.533   7.238   2.429
  165SAPE   O3118470   3.372   7.361   2.381
  165SAPE   C3118471   3.368   7.367   2.517
  165SAPE   O3218472   3.453   7.352   2.596
  165SAPE   C3218473   3.248   7.420   2.549
  165SAPE   H2X18474   3.176   7.361   2.499
  165SAPE   H2Y18475   3.272   7.501   2.481
  165SAPE   C2318476   3.236   6.860   2.695
  165SAPE   H3R18477   3.303   6.917   2.731
  165SAPE   H3S18478   3.319   6.786   2.703
  165SAPE   C2418479   3.169   6.883   2.826
  165SAPE   H4R18480   3.119   6.977   2.850
  165SAPE   H4S18481   3.248   6.892   2.901
  165SAPE   C2518482   3.095   6.756   2.815
  165SAPE   H5R18483   3.157   6.672   2.776
  165SAPE   C2618484   2.990   6.736   2.892
  165SAPE   H6R18485   2.941   6.639   2.892
  165SAPE   C2718486   2.944   6.841   2.989
  165SAPE   H7R18487   2.893   6.919   2.929
  165SAPE   H7S18488   3.032   6.892   3.036
  165SAPE   C2818489   2.842   6.795   3.091
  165SAPE   H8R18490   2.741   6.814   3.059
  165SAPE   C2918491   2.833   6.745   3.215
  165SAPE   H9R18492   2.740   6.740   3.266
  165SAPE  C21018493   2.923   6.706   3.321
  165SAPE  H10R18494   2.946   6.794   3.376
  165SAPE  H10S18495   2.984   6.672   3.244
  165SAPE  C21118496   2.959   6.593   3.403
  165SAPE  H11R18497   2.876   6.535   3.408
  165SAPE  C21218498   3.038   6.565   3.505
  165SAPE  H12R18499   3.044   6.462   3.537
  165SAPE  C21318500   3.126   6.636   3.588
  165SAPE  H13R18501   3.100   6.619   3.694
  165SAPE  H13S18502   3.089   6.742   3.581
  165SAPE  C21418503   3.268   6.583   3.559
  165SAPE  H14R18504   3.292   6.567   3.457
  165SAPE  C21518505   3.380   6.610   3.625
  165SAPE  H15R18506   3.466   6.658   3.572
  165SAPE  C21618507   3.351   6.698   3.730
  165SAPE  H16R18508   3.244   6.731   3.736
  165SAPE  H16S18509   3.414   6.782   3.704
  165SAPE  C21718510   3.392   6.653   3.858
  165SAPE  H17R18511   3.490   6.668   3.886
  165SAPE  H17S18512   3.320   6.575   3.888
  165SAPE  C21818513   3.374   6.759   3.946
  165SAPE  H18R18514   3.264   6.746   3.919
  165SAPE  H18S18515   3.286   6.800   3.920
  165SAPE  C21918516   3.445   6.831   4.082
  165SAPE  H19R18517   3.401   6.893   4.171
  165SAPE  H19S18518   3.494   6.925   4.064
  165SAPE  C22018519   3.482   6.753   4.180
  165SAPE  H20R18520   3.555   6.709   4.123
  165SAPE  H20S18521   3.427   6.666   4.195
  165SAPE  H20T18522   3.502   6.793   4.283
  165SAPE   C3318523   3.200   7.445   2.691
  165SAPE   H3X18524   3.106   7.500   2.707
  165SAPE   H3Y18525   3.264   7.502   2.758
  165SAPE   C3418526   3.117   7.329   2.727
  165SAPE   H4X18527   3.165   7.243   2.681
  165SAPE   H4Y18528   3.024   7.349   2.672
  165SAPE   C3518529   3.093   7.329   2.871
  165SAPE   H5X18530   3.056   7.432   2.898
  165SAPE   H5Y18531   3.186   7.297   2.916
  165SAPE   C3618532   2.992   7.234   2.918
  165SAPE   H6X18533   2.991   7.127   2.887
  165SAPE   H6Y18534   2.912   7.290   2.876
  165SAPE   C3718535   2.930   7.270   3.044
  165SAPE   H7X18536   2.821   7.264   3.039
  165SAPE   H7Y18537   2.939   7.378   3.063
  165SAPE   C3818538   2.977   7.176   3.141
  165SAPE   H8X18539   3.085   7.197   3.153
  165SAPE   H8Y18540   2.967   7.067   3.122
  165SAPE   C3918541   2.888   7.196   3.253
  165SAPE   H9X18542   2.804   7.265   3.250
  165SAPE   H9Y18543   2.923   7.268   3.313
  165SAPE  C31018544   2.915   7.100   3.353
  165SAPE  H10X18545   2.875   6.999   3.342
  165SAPE  H10Y18546   2.840   7.119   3.433
  165SAPE  C31118547   3.079   7.118   3.369
  165SAPE  H11X18548   3.126   7.069   3.289
  165SAPE  H11Y18549   3.041   7.045   3.434
  165SAPE  C31218550   3.205   7.210   3.444
  165SAPE  H12X18551   3.217   7.271   3.357
  165SAPE  H12Y18552   3.302   7.161   3.433
  165SAPE  C31318553   3.220   7.298   3.596
  165SAPE  H13X18554   3.132   7.347   3.645
  165SAPE  H13Y18555   3.277   7.388   3.589
  165SAPE  C31418556   3.247   7.252   3.726
  165SAPE  H14X18557   3.327   7.194   3.683
  165SAPE  H14Y18558   3.150   7.223   3.763
  165SAPE  C31518559   3.249   7.309   3.858
  165SAPE  H15X18560   3.350   7.329   3.835
  165SAPE  H15Y18561   3.273   7.255   3.946
  165SAPE  C31618562   3.114   7.356   3.914
  165SAPE  H16X18563   3.077   7.425   3.838
  165SAPE  H16Y18564   3.155   7.395   4.010
  165SAPE  C31718565   2.993   7.262   3.956
  165SAPE  H17X18566   2.932   7.204   3.885
  165SAPE  H17Y18567   2.922   7.332   3.999
  165SAPE  C31818568   3.012   7.156   4.058
  165SAPE  H18X18569   2.925   7.106   4.101
  165SAPE  H18Y18570   3.099   7.176   4.122
  165SAPE  H18Z18571   3.024   7.067   3.999
  166SAPE     N18572   5.147   0.566   2.219
  166SAPE   HN118573   5.152   0.657   2.166
  166SAPE   HN218574   5.240   0.521   2.222
  166SAPE   HN318575   5.081   0.501   2.172
  166SAPE   C1218576   5.090   0.596   2.356
  166SAPE  H12A18577   5.146   0.684   2.394
  166SAPE  H12B18578   5.108   0.505   2.418
  166SAPE   C1118579   4.939   0.627   2.354
  166SAPE  H11A18580   4.924   0.715   2.287
  166SAPE  H11B18581   4.903   0.658   2.454
  166SAPE     P18582   4.748   0.535   2.204
  166SAPE   O1318583   4.816   0.588   2.084
  166SAPE   O1418584   4.669   0.412   2.189
  166SAPE   O1218585   4.863   0.512   2.313
  166SAPE   O1118586   4.655   0.643   2.269
  166SAPE    C118587   4.590   0.618   2.392
  166SAPE    HA18588   4.483   0.587   2.378
  166SAPE    HB18589   4.639   0.543   2.458
  166SAPE    C218590   4.585   0.750   2.466
  166SAPE    HS18591   4.512   0.809   2.405
  166SAPE   O2118592   4.715   0.812   2.482
  166SAPE   C2118593   4.699   0.940   2.505
  166SAPE   O2218594   4.589   0.993   2.500
  166SAPE   C2218595   4.843   1.006   2.488
  166SAPE   H2R18596   4.922   0.934   2.470
  166SAPE   H2S18597   4.854   1.085   2.409
  166SAPE    C318598   4.533   0.719   2.604
  166SAPE    HX18599   4.441   0.662   2.592
  166SAPE    HY18600   4.526   0.816   2.650
  166SAPE   O3118601   4.615   0.638   2.684
  166SAPE   C3118602   4.550   0.599   2.793
  166SAPE   O3218603   4.441   0.632   2.831
  166SAPE   C3218604   4.629   0.500   2.866
  166SAPE   H2X18605   4.647   0.430   2.784
  166SAPE   H2Y18606   4.564   0.464   2.947
  166SAPE   C2318607   4.882   1.088   2.602
  166SAPE   H3R18608   4.794   1.150   2.593
  166SAPE   H3S18609   4.960   1.165   2.584
  166SAPE   C2418610   4.904   1.010   2.733
  166SAPE   H4R18611   4.930   1.074   2.818
  166SAPE   H4S18612   5.001   0.962   2.717
  166SAPE   C2518613   4.799   0.911   2.779
  166SAPE   H5R18614   4.822   0.813   2.738
  166SAPE   C2618615   4.700   0.919   2.871
  166SAPE   H6R18616   4.636   0.833   2.889
  166SAPE   C2718617   4.659   1.031   2.961
  166SAPE   H7R18618   4.554   1.031   3.000
  166SAPE   H7S18619   4.630   1.110   2.895
  166SAPE   C2818620   4.770   1.080   3.054
  166SAPE   H8R18621   4.805   1.184   3.040
  166SAPE   C2918622   4.830   1.031   3.155
  166SAPE   H9R18623   4.884   1.103   3.218
  166SAPE  C21018624   4.790   0.898   3.197
  166SAPE  H10R18625   4.885   0.845   3.201
  166SAPE  H10S18626   4.727   0.846   3.121
  166SAPE  C21118627   4.720   0.909   3.329
  166SAPE  H11R18628   4.747   0.996   3.389
  166SAPE  C21218629   4.630   0.823   3.377
  166SAPE  H12R18630   4.587   0.844   3.475
  166SAPE  C21318631   4.584   0.699   3.306
  166SAPE  H13R18632   4.565   0.723   3.200
  166SAPE  H13S18633   4.485   0.669   3.347
  166SAPE  C21418634   4.682   0.584   3.311
  166SAPE  H14R18635   4.725   0.557   3.214
  166SAPE  C21518636   4.720   0.513   3.418
  166SAPE  H15R18637   4.786   0.426   3.402
  166SAPE  C21618638   4.672   0.532   3.559
  166SAPE  H16R18639   4.587   0.464   3.577
  166SAPE  H16S18640   4.636   0.634   3.584
  166SAPE  C21718641   4.786   0.497   3.655
  166SAPE  H17R18642   4.860   0.580   3.652
  166SAPE  H17S18643   4.838   0.404   3.622
  166SAPE  C21818644   4.734   0.480   3.797
  166SAPE  H18R18645   4.674   0.387   3.806
  166SAPE  H18S18646   4.672   0.569   3.821
  166SAPE  C21918647   4.845   0.472   3.900
  166SAPE  H19R18648   4.905   0.566   3.903
  166SAPE  H19S18649   4.912   0.387   3.872
  166SAPE  C22018650   4.792   0.448   4.039
  166SAPE  H20R18651   4.884   0.455   4.096
  166SAPE  H20S18652   4.751   0.347   4.055
  166SAPE  H20T18653   4.720   0.525   4.074
  166SAPE   C3318654   4.770   0.542   2.906
  166SAPE   H3X18655   4.767   0.634   2.967
  166SAPE   H3Y18656   4.823   0.561   2.810
  166SAPE   C3418657   4.844   0.431   2.982
  166SAPE   H4X18658   4.817   0.329   2.946
  166SAPE   H4Y18659   4.818   0.438   3.089
  166SAPE   C3518660   4.994   0.439   2.967
  166SAPE   H5X18661   5.020   0.448   2.859
  166SAPE   H5Y18662   5.044   0.347   3.009
  166SAPE   C3618663   5.055   0.562   3.030
  166SAPE   H6X18664   5.034   0.656   2.978
  166SAPE   H6Y18665   5.155   0.539   2.999
  166SAPE   C3718666   5.046   0.573   3.181
  166SAPE   H7X18667   5.086   0.484   3.233
  166SAPE   H7Y18668   4.938   0.580   3.205
  166SAPE   C3818669   5.112   0.696   3.239
  166SAPE   H8X18670   5.097   0.785   3.174
  166SAPE   H8Y18671   5.222   0.691   3.262
  166SAPE   C3918672   5.046   0.719   3.369
  166SAPE   H9X18673   5.082   0.653   3.453
  166SAPE   H9Y18674   4.936   0.723   3.368
  166SAPE  C31018675   5.088   0.851   3.401
  166SAPE  H10X18676   5.040   0.937   3.348
  166SAPE  H10Y18677   5.199   0.852   3.387
  166SAPE  C31118678   5.056   0.853   3.543
  166SAPE  H11X18679   5.082   0.953   3.536
  166SAPE  H11Y18680   5.135   0.809   3.608
  166SAPE  C31218681   4.911   0.876   3.588
  166SAPE  H12X18682   4.866   0.777   3.588
  166SAPE  H12Y18683   4.865   0.959   3.531
  166SAPE  C31318684   4.877   0.914   3.727
  166SAPE  H13X18685   4.886   1.024   3.744
  166SAPE  H13Y18686   4.948   0.848   3.785
  166SAPE  C31418687   4.735   0.922   3.777
  166SAPE  H14X18688   4.703   0.818   3.769
  166SAPE  H14Y18689   4.689   0.994   3.706
  166SAPE  C31518690   4.707   0.976   3.919
  166SAPE  H15X18691   4.600   0.991   3.935
  166SAPE  H15Y18692   4.750   1.076   3.941
  166SAPE  C31618693   4.741   0.879   4.028
  166SAPE  H16X18694   4.838   0.834   4.010
  166SAPE  H16Y18695   4.699   0.777   4.028
  166SAPE  C31718696   4.726   0.953   4.160
  166SAPE  H17X18697   4.780   1.041   4.205
  166SAPE  H17Y18698   4.795   0.898   4.212
  166SAPE  C31818699   4.598   0.941   4.221
  166SAPE  H18X18700   4.560   0.838   4.218
  166SAPE  H18Y18701   4.541   1.022   4.172
  166SAPE  H18Z18702   4.624   0.962   4.323
  167SAPE     N18703   0.439   4.937   2.001
  167SAPE   HN118704   0.373   4.949   2.080
  167SAPE   HN218705   0.461   5.034   1.968
  167SAPE   HN318706   0.398   4.879   1.924
  167SAPE   C1218707   0.568   4.876   2.052
  167SAPE  H12A18708   0.650   4.906   1.984
  167SAPE  H12B18709   0.556   4.767   2.046
  167SAPE   C1118710   0.596   4.915   2.198
  167SAPE  H11A18711   0.696   4.877   2.229
  167SAPE  H11B18712   0.521   4.865   2.264
  167SAPE     P18713   0.627   5.124   2.354
  167SAPE   O1318714   0.774   5.110   2.364
  167SAPE   O1418715   0.563   5.255   2.357
  167SAPE   O1218716   0.586   5.056   2.213
  167SAPE   O1118717   0.560   5.024   2.456
  167SAPE    C118718   0.421   5.011   2.476
  167SAPE    HA18719   0.360   5.072   2.406
  167SAPE    HB18720   0.395   4.904   2.463
  167SAPE    C218721   0.378   5.058   2.615
  167SAPE    HS18722   0.384   5.169   2.617
  167SAPE   O2118723   0.462   5.000   2.717
  167SAPE   C2118724   0.564   5.074   2.758
  167SAPE   O2218725   0.597   5.183   2.719
  167SAPE   C2218726   0.623   5.010   2.881
  167SAPE   H2R18727   0.715   5.061   2.916
  167SAPE   H2S18728   0.546   5.019   2.961
  167SAPE    C318729   0.229   5.019   2.641
  167SAPE    HX18730   0.216   4.909   2.650
  167SAPE    HY18731   0.162   5.050   2.559
  167SAPE   O3118732   0.188   5.091   2.757
  167SAPE   C3118733   0.226   5.033   2.865
  167SAPE   O3218734   0.248   4.913   2.882
  167SAPE   C3218735   0.227   5.136   2.975
  167SAPE   H2X18736   0.119   5.172   2.974
  167SAPE   H2Y18737   0.252   5.239   2.960
  167SAPE   C2318738   0.655   4.864   2.850
  167SAPE   H3R18739   0.726   4.843   2.768
  167SAPE   H3S18740   0.560   4.815   2.820
  167SAPE   C2418741   0.707   4.803   2.977
  167SAPE   H4R18742   0.715   4.700   2.948
  167SAPE   H4S18743   0.623   4.819   3.049
  167SAPE   C2518744   0.845   4.824   3.031
  167SAPE   H5R18745   0.926   4.788   2.966
  167SAPE   C2618746   0.876   4.869   3.154
  167SAPE   H6R18747   0.982   4.878   3.180
  167SAPE   C2718748   0.780   4.910   3.262
  167SAPE   H7R18749   0.691   4.962   3.223
  167SAPE   H7S18750   0.835   4.973   3.334
  167SAPE   C2818751   0.738   4.814   3.363
  167SAPE   H8R18752   0.814   4.739   3.388
  167SAPE   C2918753   0.621   4.812   3.428
  167SAPE   H9R18754   0.604   4.743   3.509
  167SAPE  C21018755   0.502   4.892   3.428
  167SAPE  H10R18756   0.514   4.952   3.338
  167SAPE  H10S18757   0.525   4.945   3.522
  167SAPE  C21118758   0.364   4.827   3.432
  167SAPE  H11R18759   0.326   4.789   3.335
  167SAPE  C21218760   0.281   4.822   3.538
  167SAPE  H12R18761   0.176   4.790   3.523
  167SAPE  C21318762   0.309   4.878   3.675
  167SAPE  H13R18763   0.416   4.874   3.699
  167SAPE  H13S18764   0.254   4.819   3.748
  167SAPE  C21418765   0.268   5.019   3.691
  167SAPE  H14R18766   0.244   5.050   3.591
  167SAPE  C21518767   0.261   5.098   3.800
  167SAPE  H15R18768   0.222   5.200   3.794
  167SAPE  C21618769   0.295   5.057   3.939
  167SAPE  H16R18770   0.386   5.110   3.975
  167SAPE  H16S18771   0.315   4.948   3.941
  167SAPE  C21718772   0.181   5.092   4.036
  167SAPE  H17R18773   0.083   5.049   4.008
  167SAPE  H17S18774   0.167   5.201   4.037
  167SAPE  C21818775   0.219   5.046   4.176
  167SAPE  H18R18776   0.140   5.081   4.245
  167SAPE  H18S18777   0.316   5.096   4.201
  167SAPE  C21918778   0.229   4.894   4.189
  167SAPE  H19R18779   0.304   4.853   4.118
  167SAPE  H19S18780   0.130   4.853   4.160
  167SAPE  C22018781   0.269   4.846   4.328
  167SAPE  H20R18782   0.299   4.738   4.329
  167SAPE  H20S18783   0.186   4.863   4.400
  167SAPE  H20T18784   0.355   4.907   4.361
  167SAPE   C3318785   0.281   5.062   3.103
  167SAPE   H3X18786   0.381   5.027   3.115
  167SAPE   H3Y18787   0.237   4.959   3.124
  167SAPE   C3418788   0.250   5.144   3.221
  167SAPE   H4X18789   0.260   5.091   3.319
  167SAPE   H4Y18790   0.151   5.175   3.178
  167SAPE   C3518791   0.261   5.288   3.244
  167SAPE   H5X18792   0.167   5.345   3.272
  167SAPE   H5Y18793   0.289   5.323   3.144
  167SAPE   C3618794   0.368   5.288   3.347
  167SAPE   H6X18795   0.437   5.204   3.319
  167SAPE   H6Y18796   0.337   5.268   3.452
  167SAPE   C3718797   0.427   5.421   3.320
  167SAPE   H7X18798   0.341   5.492   3.310
  167SAPE   H7Y18799   0.474   5.407   3.220
  167SAPE   C3818800   0.524   5.463   3.428
  167SAPE   H8X18801   0.469   5.476   3.523
  167SAPE   H8Y18802   0.560   5.562   3.402
  167SAPE   C3918803   0.639   5.363   3.441
  167SAPE   H9X18804   0.680   5.341   3.340
  167SAPE   H9Y18805   0.599   5.267   3.480
  167SAPE  C31018806   0.757   5.401   3.532
  167SAPE  H10X18807   0.813   5.487   3.491
  167SAPE  H10Y18808   0.826   5.314   3.532
  167SAPE  C31118809   0.722   5.427   3.679
  167SAPE  H11X18810   0.646   5.506   3.680
  167SAPE  H11Y18811   0.814   5.462   3.732
  167SAPE  C31218812   0.659   5.312   3.758
  167SAPE  H12X18813   0.577   5.267   3.697
  167SAPE  H12Y18814   0.614   5.352   3.851
  167SAPE  C31318815   0.758   5.199   3.787
  167SAPE  H13X18816   0.842   5.230   3.853
  167SAPE  H13Y18817   0.798   5.172   3.687
  167SAPE  C31418818   0.686   5.077   3.843
  167SAPE  H14X18819   0.603   5.051   3.772
  167SAPE  H14Y18820   0.643   5.097   3.943
  167SAPE  C31518821   0.776   4.957   3.861
  167SAPE  H15X18822   0.864   4.978   3.925
  167SAPE  H15Y18823   0.813   4.924   3.760
  167SAPE  C31618824   0.702   4.842   3.929
  167SAPE  H16X18825   0.789   4.772   3.923
  167SAPE  H16Y18826   0.614   4.811   3.867
  167SAPE  C31718827   0.679   4.825   4.080
  167SAPE  H17X18828   0.652   4.924   4.118
  167SAPE  H17Y18829   0.774   4.788   4.126
  167SAPE  C31818830   0.560   4.736   4.123
  167SAPE  H18X18831   0.471   4.768   4.066
  167SAPE  H18Y18832   0.557   4.708   4.229
  167SAPE  H18Z18833   0.554   4.632   4.099
  168SAPE     N18834   2.050   0.729   2.032
  168SAPE   HN118835   2.123   0.802   2.016
  168SAPE   HN218836   1.982   0.720   1.954
  168SAPE   HN318837   1.995   0.753   2.118
  168SAPE   C1218838   2.120   0.598   2.057
  168SAPE  H12A18839   2.200   0.624   2.130
  168SAPE  H12B18840   2.166   0.566   1.962
  168SAPE   C1118841   2.026   0.494   2.121
  168SAPE  H11A18842   2.075   0.394   2.131
  168SAPE  H11B18843   1.934   0.479   2.060
  168SAPE     P18844   1.939   0.445   2.360
  168SAPE   O1318845   1.802   0.401   2.327
  168SAPE   O1418846   2.047   0.344   2.372
  168SAPE   O1218847   1.988   0.546   2.247
  168SAPE   O1118848   1.939   0.542   2.482
  168SAPE    C118849   1.858   0.659   2.491
  168SAPE    HA18850   1.926   0.745   2.499
  168SAPE    HB18851   1.795   0.679   2.400
  168SAPE    C218852   1.767   0.651   2.618
  168SAPE    HS18853   1.689   0.730   2.608
  168SAPE   O2118854   1.842   0.668   2.740
  168SAPE   C2118855   1.896   0.786   2.756
  168SAPE   O2218856   1.879   0.883   2.684
  168SAPE   C2218857   1.984   0.789   2.881
  168SAPE   H2R18858   1.947   0.731   2.965
  168SAPE   H2S18859   2.071   0.730   2.865
  168SAPE    C318860   1.692   0.515   2.627
  168SAPE    HX18861   1.765   0.432   2.615
  168SAPE    HY18862   1.626   0.513   2.538
  168SAPE   O3118863   1.614   0.503   2.750
  168SAPE   C3118864   1.671   0.431   2.847
  168SAPE   O3218865   1.769   0.360   2.836
  168SAPE   C3218866   1.602   0.452   2.981
  168SAPE   H2X18867   1.672   0.416   3.059
  168SAPE   H2Y18868   1.510   0.391   2.990
  168SAPE   C2318869   2.030   0.934   2.906
  168SAPE   H3R18870   1.947   1.006   2.893
  168SAPE   H3S18871   2.105   0.963   2.829
  168SAPE   C2418872   2.096   0.948   3.042
  168SAPE   H4R18873   2.146   1.047   3.038
  168SAPE   H4S18874   2.176   0.872   3.052
  168SAPE   C2518875   2.001   0.948   3.159
  168SAPE   H5R18876   1.948   1.044   3.166
  168SAPE   C2618877   1.968   0.849   3.246
  168SAPE   H6R18878   1.905   0.877   3.333
  168SAPE   C2718879   2.022   0.708   3.246
  168SAPE   H7R18880   2.096   0.698   3.164
  168SAPE   H7S18881   1.943   0.632   3.227
  168SAPE   C2818882   2.095   0.671   3.372
  168SAPE   H8R18883   2.203   0.691   3.363
  168SAPE   C2918884   2.043   0.633   3.490
  168SAPE   H9R18885   2.110   0.636   3.577
  168SAPE  C21018886   1.897   0.620   3.527
  168SAPE  H10R18887   1.846   0.700   3.472
  168SAPE  H10S18888   1.881   0.635   3.636
  168SAPE  C21118889   1.808   0.511   3.482
  168SAPE  H11R18890   1.816   0.504   3.372
  168SAPE  C21218891   1.728   0.422   3.547
  168SAPE  H12R18892   1.680   0.344   3.484
  168SAPE  C21318893   1.701   0.403   3.694
  168SAPE  H13R18894   1.646   0.305   3.702
  168SAPE  H13S18895   1.632   0.483   3.714
  168SAPE  C21418896   1.809   0.419   3.798
  168SAPE  H14R18897   1.907   0.443   3.755
  168SAPE  C21518898   1.816   0.360   3.917
  168SAPE  H15R18899   1.917   0.338   3.960
  168SAPE  C21618900   1.713   0.262   3.968
  168SAPE  H16R18901   1.746   0.163   4.007
  168SAPE  H16S18902   1.625   0.242   3.906
  168SAPE  C21718903   1.679   0.339   4.082
  168SAPE  H17R18904   1.573   0.313   4.113
  168SAPE  H17S18905   1.685   0.448   4.071
  168SAPE  C21818906   1.770   0.300   4.187
  168SAPE  H18R18907   1.881   0.321   4.197
  168SAPE  H18S18908   1.776   0.190   4.184
  168SAPE  C21918909   1.673   0.359   4.287
  168SAPE  H19R18910   1.773   0.334   4.335
  168SAPE  H19S18911   1.588   0.317   4.356
  168SAPE  C22018912   1.663   0.494   4.284
  168SAPE  H20R18913   1.581   0.553   4.324
  168SAPE  H20S18914   1.768   0.519   4.284
  168SAPE  H20T18915   1.677   0.461   4.380
  168SAPE   C3318916   1.571   0.600   3.006
  168SAPE   H3X18917   1.528   0.645   2.914
  168SAPE   H3Y18918   1.666   0.653   3.029
  168SAPE   C3418919   1.474   0.610   3.124
  168SAPE   H4X18920   1.397   0.531   3.115
  168SAPE   H4Y18921   1.417   0.701   3.123
  168SAPE   C3518922   1.544   0.618   3.261
  168SAPE   H5X18923   1.623   0.696   3.259
  168SAPE   H5Y18924   1.588   0.520   3.280
  168SAPE   C3618925   1.445   0.638   3.376
  168SAPE   H6X18926   1.361   0.567   3.363
  168SAPE   H6Y18927   1.421   0.743   3.376
  168SAPE   C3718928   1.486   0.664   3.518
  168SAPE   H7X18929   1.568   0.593   3.523
  168SAPE   H7Y18930   1.403   0.641   3.588
  168SAPE   C3818931   1.530   0.807   3.556
  168SAPE   H8X18932   1.443   0.874   3.575
  168SAPE   H8Y18933   1.591   0.855   3.476
  168SAPE   C3918934   1.609   0.792   3.684
  168SAPE   H9X18935   1.683   0.712   3.664
  168SAPE   H9Y18936   1.542   0.755   3.765
  168SAPE  C31018937   1.674   0.923   3.726
  168SAPE  H10X18938   1.601   1.006   3.721
  168SAPE  H10Y18939   1.760   0.944   3.659
  168SAPE  C31118940   1.714   0.928   3.870
  168SAPE  H11X18941   1.656   0.855   3.932
  168SAPE  H11Y18942   1.706   1.029   3.917
  168SAPE  C31218943   1.852   0.881   3.887
  168SAPE  H12X18944   1.857   0.771   3.878
  168SAPE  H12Y18945   1.855   0.909   3.993
  168SAPE  C31318946   1.973   0.928   3.814
  168SAPE  H13X18947   1.997   1.041   3.833
  168SAPE  H13Y18948   1.961   0.939   3.708
  168SAPE  C31418949   2.076   0.796   3.852
  168SAPE  H14X18950   2.141   0.848   3.795
  168SAPE  H14Y18951   2.102   0.724   3.777
  168SAPE  C31518952   2.146   0.746   3.996
  168SAPE  H15X18953   2.067   0.692   4.043
  168SAPE  H15Y18954   2.178   0.810   4.081
  168SAPE  C31618955   2.288   0.702   4.028
  168SAPE  H16X18956   2.318   0.707   4.136
  168SAPE  H16Y18957   2.350   0.782   3.993
  168SAPE  C31718958   2.316   0.570   3.967
  168SAPE  H17X18959   2.426   0.564   3.972
  168SAPE  H17Y18960   2.278   0.577   3.863
  168SAPE  C31818961   2.255   0.453   4.040
  168SAPE  H18X18962   2.295   0.355   4.017
  168SAPE  H18Y18963   2.144   0.458   4.037
  168SAPE  H18Z18964   2.292   0.453   4.142
  169SAPE     N18965   7.021   5.408   2.005
  169SAPE   HN118966   7.123   5.427   1.991
  169SAPE   HN218967   7.009   5.304   2.010
  169SAPE   HN318968   6.962   5.445   1.927
  169SAPE   C1218969   6.985   5.448   2.145
  169SAPE  H12A18970   6.879   5.418   2.160
  169SAPE  H12B18971   6.997   5.557   2.158
  169SAPE   C1118972   7.075   5.371   2.242
  169SAPE  H11A18973   7.040   5.392   2.346
  169SAPE  H11B18974   7.180   5.409   2.232
  169SAPE     P18975   7.094   5.120   2.322
  169SAPE   O1318976   7.078   4.989   2.256
  169SAPE   O1418977   7.218   5.148   2.398
  169SAPE   O1218978   7.072   5.232   2.210
  169SAPE   O1118979   6.965   5.150   2.410
  169SAPE    C118980   6.837   5.166   2.344
  169SAPE    HA18981   6.841   5.257   2.281
  169SAPE    HB18982   6.808   5.082   2.278
  169SAPE    C218983   6.720   5.194   2.443
  169SAPE    HS18984   6.646   5.243   2.379
  169SAPE   O2118985   6.772   5.273   2.550
  169SAPE   C2118986   6.689   5.338   2.626
  169SAPE   O2218987   6.572   5.360   2.609
  169SAPE   C2218988   6.761   5.387   2.750
  169SAPE   H2R18989   6.747   5.303   2.820
  169SAPE   H2S18990   6.869   5.391   2.732
  169SAPE    C318991   6.649   5.070   2.499
  169SAPE    HX18992   6.609   5.020   2.404
  169SAPE    HY18993   6.560   5.085   2.562
  169SAPE   O3118994   6.741   4.986   2.572
  169SAPE   C3118995   6.804   5.002   2.701
  169SAPE   O3218996   6.765   5.086   2.775
  169SAPE   C3218997   6.921   4.889   2.757
  169SAPE   H2X18998   6.939   4.789   2.706
  169SAPE   H2Y18999   6.924   4.778   2.768
  169SAPE   C2319000   6.707   5.525   2.801
  169SAPE   H3R19001   6.635   5.567   2.726
  169SAPE   H3S19002   6.792   5.593   2.808
  169SAPE   C2419003   6.642   5.538   2.939
  169SAPE   H4R19004   6.574   5.622   2.954
  169SAPE   H4S19005   6.703   5.513   3.028
  169SAPE   C2519006   6.562   5.429   2.913
  169SAPE   H5R19007   6.462   5.450   2.868
  169SAPE   C2619008   6.565   5.333   2.995
  169SAPE   H6R19009   6.494   5.288   2.951
  169SAPE   C2719010   6.615   5.274   3.121
  169SAPE   H7R19011   6.563   5.190   3.169
  169SAPE   H7S19012   6.602   5.351   3.198
  169SAPE   C2819013   6.741   5.216   3.087
  169SAPE   H8R19014   6.747   5.173   2.987
  169SAPE   C2919015   6.840   5.221   3.171
  169SAPE   H9R19016   6.934   5.195   3.126
  169SAPE  C21019017   6.834   5.286   3.307
  169SAPE  H10R19018   6.918   5.247   3.366
  169SAPE  H10S19019   6.743   5.257   3.366
  169SAPE  C21119020   6.852   5.435   3.288
  169SAPE  H11R19021   6.893   5.466   3.191
  169SAPE  C21219022   6.809   5.536   3.363
  169SAPE  H12R19023   6.823   5.640   3.330
  169SAPE  C21319024   6.731   5.524   3.485
  169SAPE  H13R19025   6.659   5.438   3.479
  169SAPE  H13S19026   6.676   5.620   3.468
  169SAPE  C21419027   6.784   5.527   3.624
  169SAPE  H14R19028   6.821   5.626   3.654
  169SAPE  C21519029   6.778   5.429   3.715
  169SAPE  H15R19030   6.829   5.456   3.806
  169SAPE  C21619031   6.718   5.288   3.713
  169SAPE  H16R19032   6.792   5.213   3.750
  169SAPE  H16S19033   6.694   5.254   3.610
  169SAPE  C21719034   6.591   5.275   3.800
  169SAPE  H17R19035   6.512   5.342   3.763
  169SAPE  H17S19036   6.612   5.314   3.900
  169SAPE  C21819037   6.523   5.137   3.806
  169SAPE  H18R19038   6.518   5.090   3.705
  169SAPE  H18S19039   6.420   5.147   3.848
  169SAPE  C21919040   6.586   5.039   3.900
  169SAPE  H19R19041   6.689   5.068   3.897
  169SAPE  H19S19042   6.586   4.935   3.864
  169SAPE  C22019043   6.531   5.039   4.042
  169SAPE  H20R19044   6.588   4.975   4.113
  169SAPE  H20S19045   6.430   5.001   4.049
  169SAPE  H20T19046   6.541   5.139   4.085
  169SAPE   C3319047   6.999   4.929   2.854
  169SAPE   H3X19048   7.026   4.834   2.902
  169SAPE   H3Y19049   6.920   4.959   2.920
  169SAPE   C3419050   7.104   5.024   2.793
  169SAPE   H4X19051   7.056   5.094   2.723
  169SAPE   H4Y19052   7.198   4.990   2.741
  169SAPE   C3519053   7.174   5.087   2.904
  169SAPE   H5X19054   7.093   5.111   2.975
  169SAPE   H5Y19055   7.244   5.162   2.867
  169SAPE   C3619056   7.256   4.984   2.967
  169SAPE   H6X19057   7.329   4.923   2.914
  169SAPE   H6Y19058   7.181   4.917   2.965
  169SAPE   C3719059   7.296   4.996   3.111
  169SAPE   H7X19060   7.371   5.030   3.062
  169SAPE   H7Y19061   7.359   4.919   3.156
  169SAPE   C3819062   7.240   5.088   3.212
  169SAPE   H8X19063   7.158   5.021   3.239
  169SAPE   H8Y19064   7.227   5.188   3.164
  169SAPE   C3919065   7.326   5.091   3.336
  169SAPE   H9X19066   7.368   5.194   3.338
  169SAPE   H9Y19067   7.399   5.005   3.336
  169SAPE  C31019068   7.278   5.118   3.467
  169SAPE  H10X19069   7.276   5.011   3.498
  169SAPE  H10Y19070   7.184   5.169   3.435
  169SAPE  C31119071   7.368   5.218   3.544
  169SAPE  H11X19072   7.388   5.315   3.496
  169SAPE  H11Y19073   7.471   5.195   3.555
  169SAPE  C31219074   7.301   5.233   3.674
  169SAPE  H12X19075   7.354   5.251   3.767
  169SAPE  H12Y19076   7.283   5.130   3.691
  169SAPE  C31319077   7.188   5.330   3.654
  169SAPE  H13X19078   7.108   5.278   3.594
  169SAPE  H13Y19079   7.230   5.415   3.599
  169SAPE  C31419080   7.136   5.378   3.784
  169SAPE  H14X19081   7.047   5.445   3.775
  169SAPE  H14Y19082   7.204   5.417   3.858
  169SAPE  C31519083   7.110   5.257   3.859
  169SAPE  H15X19084   7.185   5.187   3.898
  169SAPE  H15Y19085   7.047   5.215   3.776
  169SAPE  C31619086   7.047   5.286   3.988
  169SAPE  H16X19087   6.941   5.259   3.960
  169SAPE  H16Y19088   7.050   5.395   3.982
  169SAPE  C31719089   7.106   5.227   4.126
  169SAPE  H17X19090   7.176   5.287   4.180
  169SAPE  H17Y19091   7.111   5.115   4.141
  169SAPE  C31819092   7.020   5.251   4.241
  169SAPE  H18X19093   6.965   5.337   4.246
  169SAPE  H18Y19094   6.992   5.191   4.328
  169SAPE  H18Z19095   6.953   5.226   4.164
  170SAPE     N19096   5.564   0.284   2.511
  170SAPE   HN119097   5.611   0.370   2.546
  170SAPE   HN219098   5.520   0.231   2.589
  170SAPE   HN319099   5.639   0.225   2.467
  170SAPE   C1219100   5.458   0.313   2.410
  170SAPE  H12A19101   5.369   0.349   2.464
  170SAPE  H12B19102   5.437   0.217   2.358
  170SAPE   C1119103   5.501   0.425   2.315
  170SAPE  H11A19104   5.489   0.520   2.371
  170SAPE  H11B19105   5.431   0.427   2.228
  170SAPE     P19106   5.674   0.325   2.148
  170SAPE   O1319107   5.587   0.206   2.148
  170SAPE   O1419108   5.669   0.417   2.033
  170SAPE   O1219109   5.636   0.412   2.276
  170SAPE   O1119110   5.826   0.287   2.178
  170SAPE    C119111   5.909   0.363   2.264
  170SAPE    HA19112   5.990   0.406   2.203
  170SAPE    HB19113   5.857   0.446   2.318
  170SAPE    C219114   5.971   0.277   2.375
  170SAPE    HS19115   6.034   0.206   2.320
  170SAPE   O2119116   5.870   0.210   2.451
  170SAPE   C2119117   5.875   0.079   2.450
  170SAPE   O2219118   5.963   0.008   2.404
  170SAPE   C2219119   5.753   0.032   2.526
  170SAPE   H2R19120   5.659   0.030   2.468
  170SAPE   H2S19121   5.779  -0.070   2.535
  170SAPE    C319122   6.059   0.369   2.464
  170SAPE    HX19123   6.123   0.425   2.393
  170SAPE    HY19124   6.125   0.310   2.531
  170SAPE   O3119125   5.975   0.467   2.528
  170SAPE   C3119126   5.976   0.474   2.660
  170SAPE   O3219127   6.058   0.422   2.731
  170SAPE   C3219128   5.853   0.542   2.715
  170SAPE   H2X19129   5.887   0.629   2.775
  170SAPE   H2Y19130   5.807   0.470   2.786
  170SAPE   C2319131   5.743   0.083   2.671
  170SAPE   H3R19132   5.690   0.178   2.678
  170SAPE   H3S19133   5.845   0.095   2.715
  170SAPE   C2419134   5.671  -0.016   2.762
  170SAPE   H4R19135   5.750  -0.091   2.776
  170SAPE   H4S19136   5.588  -0.063   2.704
  170SAPE   C2519137   5.624   0.020   2.900
  170SAPE   H5R19138   5.543  -0.045   2.938
  170SAPE   C2619139   5.665   0.122   2.979
  170SAPE   H6R19140   5.616   0.132   3.077
  170SAPE   C2719141   5.770   0.228   2.953
  170SAPE   H7R19142   5.745   0.320   3.011
  170SAPE   H7S19143   5.772   0.262   2.848
  170SAPE   C2819144   5.904   0.175   2.993
  170SAPE   H8R19145   5.932   0.075   2.958
  170SAPE   C2919146   5.990   0.238   3.070
  170SAPE   H9R19147   6.078   0.188   3.108
  170SAPE  C21019148   5.979   0.371   3.132
  170SAPE  H10R19149   5.929   0.449   3.072
  170SAPE  H10S19150   6.087   0.394   3.131
  170SAPE  C21119151   5.916   0.368   3.268
  170SAPE  H11R19152   5.810   0.373   3.286
  170SAPE  C21219153   5.973   0.325   3.376
  170SAPE  H12R19154   5.927   0.351   3.471
  170SAPE  C21319155   6.107   0.273   3.370
  170SAPE  H13R19156   6.169   0.306   3.451
  170SAPE  H13S19157   6.177   0.300   3.280
  170SAPE  C21419158   6.111   0.143   3.413
  170SAPE  H14R19159   6.196   0.134   3.345
  170SAPE  C21519160   6.086   0.081   3.534
  170SAPE  H15R19161   6.174   0.023   3.573
  170SAPE  C21619162   6.039   0.145   3.667
  170SAPE  H16R19163   6.008   0.255   3.678
  170SAPE  H16S19164   6.110   0.152   3.746
  170SAPE  C21719165   5.962   0.074   3.747
  170SAPE  H17R19166   6.007  -0.026   3.725
  170SAPE  H17S19167   5.889   0.122   3.676
  170SAPE  C21819168   5.977   0.137   3.886
  170SAPE  H18R19169   6.058   0.101   3.952
  170SAPE  H18S19170   5.882   0.096   3.909
  170SAPE  C21919171   5.972   0.287   3.903
  170SAPE  H19R19172   5.911   0.345   3.830
  170SAPE  H19S19173   6.079   0.318   3.887
  170SAPE  C22019174   5.919   0.311   4.042
  170SAPE  H20R19175   5.898   0.418   4.056
  170SAPE  H20S19176   6.002   0.283   4.112
  170SAPE  H20T19177   5.833   0.249   4.067
  170SAPE   C3319178   5.755   0.583   2.603
  170SAPE   H3X19179   5.719   0.489   2.554
  170SAPE   H3Y19180   5.810   0.639   2.524
  170SAPE   C3419181   5.632   0.663   2.646
  170SAPE   H4X19182   5.565   0.676   2.558
  170SAPE   H4Y19183   5.656   0.765   2.684
  170SAPE   C3519184   5.553   0.588   2.751
  170SAPE   H5X19185   5.617   0.564   2.838
  170SAPE   H5Y19186   5.517   0.493   2.705
  170SAPE   C3619187   5.435   0.664   2.804
  170SAPE   H6X19188   5.369   0.704   2.724
  170SAPE   H6Y19189   5.466   0.749   2.870
  170SAPE   C3719190   5.355   0.571   2.892
  170SAPE   H7X19191   5.309   0.488   2.833
  170SAPE   H7Y19192   5.277   0.646   2.920
  170SAPE   C3819193   5.425   0.516   3.020
  170SAPE   H8X19194   5.483   0.598   3.067
  170SAPE   H8Y19195   5.492   0.431   2.997
  170SAPE   C3919196   5.330   0.463   3.126
  170SAPE   H9X19197   5.254   0.394   3.083
  170SAPE   H9Y19198   5.279   0.556   3.152
  170SAPE  C31019199   5.377   0.408   3.259
  170SAPE  H10X19200   5.437   0.317   3.244
  170SAPE  H10Y19201   5.282   0.384   3.313
  170SAPE  C31119202   5.460   0.505   3.344
  170SAPE  H11X19203   5.404   0.601   3.350
  170SAPE  H11Y19204   5.559   0.521   3.297
  170SAPE  C31219205   5.485   0.449   3.484
  170SAPE  H12X19206   5.408   0.371   3.504
  170SAPE  H12Y19207   5.479   0.531   3.559
  170SAPE  C31319208   5.618   0.377   3.501
  170SAPE  H13X19209   5.701   0.441   3.467
  170SAPE  H13Y19210   5.614   0.286   3.436
  170SAPE  C31419211   5.636   0.334   3.648
  170SAPE  H14X19212   5.649   0.426   3.710
  170SAPE  H14Y19213   5.729   0.274   3.656
  170SAPE  C31519214   5.515   0.258   3.706
  170SAPE  H15X19215   5.490   0.167   3.648
  170SAPE  H15Y19216   5.423   0.321   3.702
  170SAPE  C31619217   5.536   0.214   3.851
  170SAPE  H16X19218   5.566   0.303   3.913
  170SAPE  H16Y19219   5.618   0.139   3.851
  170SAPE  C31719220   5.409   0.153   3.912
  170SAPE  H17X19221   5.352   0.101   3.831
  170SAPE  H17Y19222   5.346   0.238   3.947
  170SAPE  C31819223   5.435   0.053   4.026
  170SAPE  H18X19224   5.503   0.099   4.101
  170SAPE  H18Y19225   5.482  -0.041   3.991
  170SAPE  H18Z19226   5.339   0.026   4.076
  171SAPE     N19227   0.297   5.764   1.972
  171SAPE   HN119228   0.223   5.783   1.902
  171SAPE   HN219229   0.393   5.778   1.934
  171SAPE   HN319230   0.292   5.666   2.010
  171SAPE   C1219231   0.275   5.857   2.087
  171SAPE  H12A19232   0.181   5.823   2.135
  171SAPE  H12B19233   0.265   5.959   2.046
  171SAPE   C1119234   0.392   5.853   2.185
  171SAPE  H11A19235   0.372   5.926   2.267
  171SAPE  H11B19236   0.487   5.886   2.137
  171SAPE     P19237   0.325   5.663   2.352
  171SAPE   O1319238   0.200   5.614   2.289
  171SAPE   O1419239   0.408   5.577   2.437
  171SAPE   O1219240   0.410   5.719   2.230
  171SAPE   O1119241   0.292   5.796   2.428
  171SAPE    C119242   0.199   5.800   2.534
  171SAPE    HA19243   0.107   5.853   2.498
  171SAPE    HB19244   0.164   5.699   2.568
  171SAPE    C219245   0.267   5.876   2.651
  171SAPE    HS19246   0.339   5.950   2.608
  171SAPE   O2119247   0.329   5.784   2.737
  171SAPE   C2119248   0.392   5.834   2.838
  171SAPE   O2219249   0.439   5.947   2.848
  171SAPE   C2219250   0.388   5.720   2.938
  171SAPE   H2R19251   0.299   5.730   3.001
  171SAPE   H2S19252   0.388   5.624   2.883
  171SAPE    C319253   0.167   5.948   2.731
  171SAPE    HX19254   0.104   5.983   2.653
  171SAPE    HY19255   0.192   6.038   2.794
  171SAPE   O3119256   0.083   5.847   2.780
  171SAPE   C3119257   0.066   5.837   2.904
  171SAPE   O3219258   0.109   5.911   2.992
  171SAPE   C3219259  -0.004   5.703   2.915
  171SAPE   H2X19260   0.069   5.625   2.890
  171SAPE   H2Y19261  -0.087   5.700   2.841
  171SAPE   C2319262   0.507   5.719   3.027
  171SAPE   H3R19263   0.579   5.735   2.950
  171SAPE   H3S19264   0.539   5.618   3.059
  171SAPE   C2419265   0.485   5.819   3.137
  171SAPE   H4R19266   0.391   5.819   3.192
  171SAPE   H4S19267   0.507   5.926   3.113
  171SAPE   C2519268   0.539   5.755   3.251
  171SAPE   H5R19269   0.588   5.655   3.238
  171SAPE   C2619270   0.609   5.833   3.317
  171SAPE   H6R19271   0.683   5.751   3.342
  171SAPE   C2719272   0.649   5.993   3.290
  171SAPE   H7R19273   0.701   6.024   3.198
  171SAPE   H7S19274   0.738   6.038   3.342
  171SAPE   C2819275   0.585   6.113   3.301
  171SAPE   H8R19276   0.612   6.201   3.240
  171SAPE   C2919277   0.521   6.108   3.408
  171SAPE   H9R19278   0.483   6.203   3.430
  171SAPE  C21019279   0.508   5.997   3.507
  171SAPE  H10R19280   0.474   5.897   3.479
  171SAPE  H10S19281   0.464   6.026   3.595
  171SAPE  C21119282   0.611   5.983   3.595
  171SAPE  H11R19283   0.676   6.071   3.585
  171SAPE  C21219284   0.627   5.874   3.671
  171SAPE  H12R19285   0.713   5.855   3.715
  171SAPE  C21319286   0.593   5.739   3.696
  171SAPE  H13R19287   0.673   5.694   3.633
  171SAPE  H13S19288   0.493   5.752   3.663
  171SAPE  C21419289   0.610   5.687   3.843
  171SAPE  H14R19290   0.698   5.704   3.906
  171SAPE  C21519291   0.526   5.604   3.898
  171SAPE  H15R19292   0.553   5.557   3.994
  171SAPE  C21619293   0.404   5.553   3.832
  171SAPE  H16R19294   0.427   5.472   3.758
  171SAPE  H16S19295   0.349   5.633   3.778
  171SAPE  C21719296   0.324   5.494   3.948
  171SAPE  H17R19297   0.316   5.565   4.032
  171SAPE  H17S19298   0.378   5.403   3.984
  171SAPE  C21819299   0.184   5.451   3.907
  171SAPE  H18R19300   0.139   5.384   3.983
  171SAPE  H18S19301   0.198   5.396   3.811
  171SAPE  C21919302   0.090   5.571   3.886
  171SAPE  H19R19303   0.011   5.547   3.816
  171SAPE  H19S19304   0.142   5.645   3.825
  171SAPE  C22019305   0.031   5.631   4.014
  171SAPE  H20R19306   0.112   5.668   4.078
  171SAPE  H20S19307  -0.025   5.558   4.077
  171SAPE  H20T19308  -0.036   5.716   3.991
  171SAPE   C3319309  -0.053   5.681   3.056
  171SAPE   H3X19310  -0.137   5.609   3.053
  171SAPE   H3Y19311  -0.091   5.775   3.091
  171SAPE   C3419312   0.053   5.637   3.154
  171SAPE   H4X19313   0.135   5.713   3.161
  171SAPE   H4Y19314   0.093   5.544   3.110
  171SAPE   C3519315  -0.000   5.614   3.296
  171SAPE   H5X19316   0.084   5.576   3.357
  171SAPE   H5Y19317  -0.083   5.540   3.303
  171SAPE   C3619318  -0.049   5.741   3.362
  171SAPE   H6X19319  -0.140   5.777   3.311
  171SAPE   H6Y19320   0.024   5.824   3.351
  171SAPE   C3719321  -0.080   5.716   3.510
  171SAPE   H7X19322   0.006   5.683   3.568
  171SAPE   H7Y19323  -0.175   5.660   3.532
  171SAPE   C3819324  -0.115   5.843   3.569
  171SAPE   H8X19325  -0.184   5.832   3.656
  171SAPE   H8Y19326  -0.168   5.880   3.483
  171SAPE   C3919327  -0.008   5.946   3.594
  171SAPE   H9X19328  -0.036   6.050   3.626
  171SAPE   H9Y19329   0.042   5.986   3.505
  171SAPE  C31019330   0.052   5.871   3.706
  171SAPE  H10X19331   0.123   5.800   3.663
  171SAPE  H10Y19332  -0.008   5.862   3.801
  171SAPE  C31119333   0.143   5.949   3.759
  171SAPE  H11X19334   0.064   6.033   3.771
  171SAPE  H11Y19335   0.208   5.973   3.674
  171SAPE  C31219336   0.240   5.917   3.877
  171SAPE  H12X19337   0.340   5.971   3.897
  171SAPE  H12Y19338   0.288   5.830   3.839
  171SAPE  C31319339   0.170   5.940   4.005
  171SAPE  H13X19340   0.068   5.907   4.001
  171SAPE  H13Y19341   0.134   6.040   4.039
  171SAPE  C31419342   0.266   5.877   4.091
  171SAPE  H14X19343   0.373   5.906   4.087
  171SAPE  H14Y19344   0.276   5.774   4.056
  171SAPE  C31519345   0.215   5.907   4.225
  171SAPE  H15X19346   0.111   5.889   4.250
  171SAPE  H15Y19347   0.255   6.003   4.268
  171SAPE  C31619348   0.280   5.806   4.294
  171SAPE  H16X19349   0.294   5.865   4.386
  171SAPE  H16Y19350   0.381   5.801   4.239
  171SAPE  C31719351   0.219   5.660   4.318
  171SAPE  H17X19352   0.230   5.615   4.219
  171SAPE  H17Y19353   0.117   5.686   4.350
  171SAPE  C31819354   0.264   5.544   4.418
  171SAPE  H18X19355   0.205   5.453   4.422
  171SAPE  H18Y19356   0.251   5.578   4.521
  171SAPE  H18Z19357   0.367   5.504   4.417
  172SAPE     N19358   6.920   6.578   2.358
  172SAPE   HN119359   6.905   6.638   2.274
  172SAPE   HN219360   6.988   6.617   2.426
  172SAPE   HN319361   6.944   6.480   2.334
  172SAPE   C1219362   6.790   6.574   2.432
  172SAPE  H12A19363   6.773   6.672   2.479
  172SAPE  H12B19364   6.805   6.501   2.504
  172SAPE   C1119365   6.671   6.530   2.352
  172SAPE  H11A19366   6.583   6.518   2.422
  172SAPE  H11B19367   6.685   6.430   2.304
  172SAPE     P19368   6.532   6.633   2.163
  172SAPE   O1319369   6.579   6.555   2.046
  172SAPE   O1419370   6.415   6.585   2.241
  172SAPE   O1219371   6.655   6.636   2.260
  172SAPE   O1119372   6.511   6.787   2.126
  172SAPE    C119373   6.622   6.874   2.101
  172SAPE    HA19374   6.715   6.817   2.082
  172SAPE    HB19375   6.606   6.925   2.004
  172SAPE    C219376   6.639   6.995   2.201
  172SAPE    HS19377   6.710   7.065   2.151
  172SAPE   O2119378   6.692   6.954   2.329
  172SAPE   C2119379   6.738   7.053   2.403
  172SAPE   O2219380   6.775   7.161   2.361
  172SAPE   C2219381   6.726   7.012   2.550
  172SAPE   H2R19382   6.675   6.915   2.560
  172SAPE   H2S19383   6.829   7.008   2.592
  172SAPE    C319384   6.506   7.071   2.225
  172SAPE    HX19385   6.474   7.109   2.126
  172SAPE    HY19386   6.527   7.159   2.289
  172SAPE   O3119387   6.407   6.983   2.278
  172SAPE   C3119388   6.349   7.006   2.394
  172SAPE   O3219389   6.357   7.111   2.456
  172SAPE   C3219390   6.263   6.884   2.431
  172SAPE   H2X19391   6.300   6.791   2.381
  172SAPE   H2Y19392   6.164   6.905   2.385
  172SAPE   C2319393   6.637   7.105   2.631
  172SAPE   H3R19394   6.531   7.101   2.606
  172SAPE   H3S19395   6.661   7.207   2.595
  172SAPE   C2419396   6.649   7.086   2.784
  172SAPE   H4R19397   6.607   7.176   2.829
  172SAPE   H4S19398   6.749   7.095   2.817
  172SAPE   C2519399   6.621   6.966   2.863
  172SAPE   H5R19400   6.515   6.949   2.869
  172SAPE   C2619401   6.711   6.891   2.929
  172SAPE   H6R19402   6.679   6.804   2.986
  172SAPE   C2719403   6.857   6.923   2.929
  172SAPE   H7R19404   6.885   6.998   3.008
  172SAPE   H7S19405   6.884   6.970   2.836
  172SAPE   C2819406   6.952   6.812   2.936
  172SAPE   H8R19407   6.997   6.763   2.850
  172SAPE   C2919408   6.977   6.770   3.053
  172SAPE   H9R19409   7.053   6.690   3.054
  172SAPE  C21019410   6.912   6.831   3.176
  172SAPE  H10R19411   6.884   6.933   3.197
  172SAPE  H10S19412   7.000   6.855   3.235
  172SAPE  C21119413   6.804   6.744   3.232
  172SAPE  H11R19414   6.708   6.724   3.176
  172SAPE  C21219415   6.814   6.678   3.347
  172SAPE  H12R19416   6.734   6.607   3.322
  172SAPE  C21319417   6.906   6.637   3.487
  172SAPE  H13R19418   6.981   6.607   3.458
  172SAPE  H13S19419   6.950   6.533   3.492
  172SAPE  C21419420   6.916   6.647   3.644
  172SAPE  H14R19421   6.930   6.754   3.669
  172SAPE  C21519422   6.853   6.576   3.740
  172SAPE  H15R19423   6.801   6.655   3.800
  172SAPE  C21619424   6.758   6.464   3.765
  172SAPE  H16R19425   6.828   6.409   3.824
  172SAPE  H16S19426   6.739   6.390   3.691
  172SAPE  C21719427   6.610   6.442   3.789
  172SAPE  H17R19428   6.589   6.335   3.799
  172SAPE  H17S19429   6.540   6.479   3.713
  172SAPE  C21819430   6.559   6.482   3.917
  172SAPE  H18R19431   6.450   6.479   3.909
  172SAPE  H18S19432   6.582   6.584   3.902
  172SAPE  C21919433   6.630   6.442   4.050
  172SAPE  H19R19434   6.726   6.475   4.008
  172SAPE  H19S19435   6.669   6.344   4.051
  172SAPE  C22019436   6.589   6.499   4.201
  172SAPE  H20R19437   6.663   6.511   4.283
  172SAPE  H20S19438   6.479   6.493   4.208
  172SAPE  H20T19439   6.594   6.605   4.247
  172SAPE   C3319440   6.250   6.868   2.585
  172SAPE   H3X19441   6.153   6.818   2.607
  172SAPE   H3Y19442   6.249   6.967   2.634
  172SAPE   C3419443   6.360   6.783   2.652
  172SAPE   H4X19444   6.461   6.824   2.633
  172SAPE   H4Y19445   6.360   6.680   2.609
  172SAPE   C3519446   6.338   6.765   2.803
  172SAPE   H5X19447   6.237   6.721   2.824
  172SAPE   H5Y19448   6.343   6.859   2.861
  172SAPE   C3619449   6.442   6.665   2.851
  172SAPE   H6X19450   6.544   6.692   2.816
  172SAPE   H6Y19451   6.418   6.564   2.811
  172SAPE   C3719452   6.446   6.659   3.001
  172SAPE   H7X19453   6.480   6.757   3.040
  172SAPE   H7Y19454   6.519   6.579   3.029
  172SAPE   C3819455   6.310   6.626   3.059
  172SAPE   H8X19456   6.266   6.540   3.004
  172SAPE   H8Y19457   6.238   6.711   3.050
  172SAPE   C3919458   6.330   6.589   3.203
  172SAPE   H9X19459   6.403   6.506   3.211
  172SAPE   H9Y19460   6.235   6.554   3.240
  172SAPE  C31019461   6.369   6.707   3.284
  172SAPE  H10X19462   6.301   6.794   3.273
  172SAPE  H10Y19463   6.473   6.738   3.258
  172SAPE  C31119464   6.356   6.681   3.428
  172SAPE  H11X19465   6.407   6.585   3.458
  172SAPE  H11Y19466   6.256   6.683   3.473
  172SAPE  C31219467   6.421   6.799   3.489
  172SAPE  H12X19468   6.519   6.795   3.446
  172SAPE  H12Y19469   6.405   6.758   3.584
  172SAPE  C31319470   6.408   6.951   3.477
  172SAPE  H13X19471   6.299   6.959   3.486
  172SAPE  H13Y19472   6.450   6.972   3.377
  172SAPE  C31419473   6.473   7.062   3.573
  172SAPE  H14X19474   6.414   7.068   3.668
  172SAPE  H14Y19475   6.461   7.150   3.521
  172SAPE  C31519476   6.626   7.100   3.589
  172SAPE  H15X19477   6.679   7.082   3.496
  172SAPE  H15Y19478   6.687   7.034   3.644
  172SAPE  C31619479   6.685   7.156   3.719
  172SAPE  H16X19480   6.601   7.160   3.791
  172SAPE  H16Y19481   6.711   7.250   3.670
  172SAPE  C31719482   6.812   7.090   3.790
  172SAPE  H17X19483   6.864   7.177   3.833
  172SAPE  H17Y19484   6.886   7.037   3.724
  172SAPE  C31819485   6.781   6.996   3.905
  172SAPE  H18X19486   6.724   6.908   3.874
  172SAPE  H18Y19487   6.720   7.043   3.984
  172SAPE  H18Z19488   6.870   6.949   3.953
  173SLPC     N19489   5.982   2.832   6.105
  173SLPC   C1319490   5.981   2.746   6.228
  173SLPC  H13A19491   6.075   2.693   6.232
  173SLPC  H13B19492   5.970   2.811   6.314
  173SLPC  H13C19493   5.903   2.671   6.236
  173SLPC   C1419494   5.851   2.868   6.068
  173SLPC  H14A19495   5.786   2.911   6.144
  173SLPC  H14B19496   5.826   2.905   5.969
  173SLPC  H14C19497   5.817   2.766   6.051
  173SLPC   C1519498   6.026   2.764   5.986
  173SLPC  H15A19499   6.127   2.728   5.998
  173SLPC  H15B19500   5.965   2.675   5.970
  173SLPC  H15C19501   6.014   2.819   5.893
  173SLPC   C1219502   6.063   2.951   6.123
  173SLPC  H12A19503   6.162   2.919   6.096
  173SLPC  H12B19504   6.052   2.978   6.226
  173SLPC   C1119505   6.025   3.068   6.032
  173SLPC  H11A19506   6.098   3.149   6.055
  173SLPC  H11B19507   5.922   3.106   6.055
  173SLPC     P19508   5.991   3.129   5.783
  173SLPC   O1319509   5.895   3.059   5.696
  173SLPC   O1419510   5.954   3.258   5.842
  173SLPC   O1219511   6.037   3.029   5.896
  173SLPC   O1119512   6.125   3.147   5.711
  173SLPC    C119513   6.234   3.207   5.776
  173SLPC    HA19514   6.224   3.318   5.756
  173SLPC    HB19515   6.243   3.204   5.886
  173SLPC    C219516   6.359   3.141   5.711
  173SLPC    HS19517   6.431   3.217   5.713
  173SLPC   O2119518   6.343   3.097   5.573
  173SLPC   C2119519   6.317   3.205   5.509
  173SLPC   O2219520   6.320   3.314   5.558
  173SLPC   C2219521   6.285   3.191   5.366
  173SLPC   H2R19522   6.233   3.100   5.348
  173SLPC   H2S19523   6.229   3.290   5.349
  173SLPC    C319524   6.414   3.021   5.786
  173SLPC    HX19525   6.431   3.055   5.889
  173SLPC    HY19526   6.511   2.983   5.746
  173SLPC   O3119527   6.316   2.920   5.793
  173SLPC   C3119528   6.300   2.853   5.684
  173SLPC   O3219529   6.373   2.848   5.586
  173SLPC   C3219530   6.183   2.773   5.708
  173SLPC   H2X19531   6.088   2.827   5.725
  173SLPC   H2Y19532   6.205   2.699   5.790
  173SLPC   C2319533   6.399   3.186   5.264
  173SLPC   H3R19534   6.486   3.214   5.320
  173SLPC   H3S19535   6.352   3.267   5.202
  173SLPC   C2419536   6.496   3.076   5.207
  173SLPC   H4R19537   6.420   3.030   5.146
  173SLPC   H4S19538   6.545   3.033   5.300
  173SLPC   C2519539   6.619   3.086   5.103
  173SLPC   H5R19540   6.687   3.002   5.099
  173SLPC   H5S19541   6.700   3.144   5.154
  173SLPC   C2619542   6.595   3.118   4.949
  173SLPC   H6R19543   6.518   3.194   4.937
  173SLPC   H6S19544   6.511   3.075   4.893
  173SLPC   C2719545   6.734   3.153   4.871
  173SLPC   H7R19546   6.799   3.074   4.895
  173SLPC   H7S19547   6.800   3.246   4.886
  173SLPC   C2819548   6.717   3.145   4.727
  173SLPC   H8R19549   6.624   3.197   4.753
  173SLPC   H8S19550   6.625   3.109   4.683
  173SLPC   C2919551   6.821   3.210   4.631
  173SLPC   H9R19552   6.869   3.310   4.650
  173SLPC  C21019553   6.817   3.179   4.503
  173SLPC  H10R19554   6.891   3.224   4.438
  173SLPC  C21119555   6.721   3.085   4.439
  173SLPC  H11R19556   6.734   3.090   4.330
  173SLPC  H11S19557   6.620   3.126   4.453
  173SLPC  C21219558   6.747   2.944   4.492
  173SLPC  H12R19559   6.849   2.911   4.480
  173SLPC  C21319560   6.662   2.848   4.533
  173SLPC  H13R19561   6.690   2.750   4.569
  173SLPC  C21419562   6.519   2.860   4.536
  173SLPC  H14R19563   6.514   2.964   4.557
  173SLPC  H14S19564   6.458   2.824   4.622
  173SLPC  C21519565   6.481   2.802   4.398
  173SLPC  H15R19566   6.374   2.784   4.419
  173SLPC  H15S19567   6.471   2.697   4.374
  173SLPC  C21619568   6.529   2.888   4.269
  173SLPC  H16R19569   6.631   2.897   4.240
  173SLPC  H16S19570   6.495   2.997   4.274
  173SLPC  C21719571   6.463   2.856   4.134
  173SLPC  H17R19572   6.360   2.812   4.149
  173SLPC  H17S19573   6.471   2.753   4.102
  173SLPC  C21819574   6.466   2.994   4.050
  173SLPC  H18R19575   6.401   3.078   4.091
  173SLPC  H18S19576   6.421   2.962   3.952
  173SLPC  H18T19577   6.517   3.048   3.976
  173SLPC   C3319578   6.167   2.710   5.576
  173SLPC   H3X19579   6.110   2.648   5.640
  173SLPC   H3Y19580   6.250   2.650   5.532
  173SLPC   C3419581   6.041   2.738   5.493
  173SLPC   H4X19582   5.949   2.728   5.556
  173SLPC   H4Y19583   6.030   2.665   5.408
  173SLPC   C3519584   6.062   2.861   5.422
  173SLPC   H5X19585   6.168   2.849   5.388
  173SLPC   H5Y19586   6.050   2.942   5.497
  173SLPC   C3619587   5.972   2.868   5.302
  173SLPC   H6X19588   5.897   2.947   5.321
  173SLPC   H6Y19589   5.919   2.771   5.285
  173SLPC   C3719590   6.060   2.896   5.182
  173SLPC   H7X19591   6.130   2.809   5.167
  173SLPC   H7Y19592   6.125   2.984   5.203
  173SLPC   C3819593   5.977   2.919   5.057
  173SLPC   H8X19594   5.910   3.006   5.072
  173SLPC   H8Y19595   5.912   2.831   5.041
  173SLPC   C3919596   6.071   2.946   4.940
  173SLPC   H9X19597   6.025   2.914   4.844
  173SLPC   H9Y19598   6.164   2.885   4.953
  173SLPC  C31019599   6.108   3.094   4.936
  173SLPC  H10X19600   6.159   3.125   5.031
  173SLPC  H10Y19601   6.015   3.155   4.929
  173SLPC  C31119602   6.200   3.121   4.818
  173SLPC  H11X19603   6.143   3.108   4.724
  173SLPC  H11Y19604   6.282   3.047   4.818
  173SLPC  C31219605   6.271   3.255   4.829
  173SLPC  H12X19606   6.337   3.267   4.739
  173SLPC  H12Y19607   6.325   3.268   4.923
  173SLPC  C31319608   6.179   3.367   4.826
  173SLPC  H13X19609   6.227   3.469   4.832
  173SLPC  H13Y19610   6.106   3.360   4.911
  173SLPC  C31419611   6.119   3.337   4.690
  173SLPC  H14X19612   6.049   3.398   4.732
  173SLPC  H14Y19613   6.027   3.281   4.669
  173SLPC  C31519614   6.194   3.383   4.561
  173SLPC  H15X19615   6.290   3.339   4.561
  173SLPC  H15Y19616   6.216   3.494   4.578
  173SLPC  C31619617   6.106   3.349   4.433
  173SLPC  H16X19618   6.030   3.418   4.403
  173SLPC  H16Y19619   6.024   3.280   4.448
  173SLPC  C31719620   6.153   3.355   4.289
  173SLPC  H17X19621   6.220   3.427   4.259
  173SLPC  H17Y19622   6.078   3.381   4.214
  173SLPC  C31819623   6.260   3.278   4.261
  173SLPC  H18X19624   6.296   3.277   4.158
  173SLPC  H18Y19625   6.186   3.200   4.290
  173SLPC  H18Z19626   6.344   3.297   4.332
  174SLPC     N19627   1.692   1.517   6.021
  174SLPC   C1319628   1.790   1.522   6.135
  174SLPC  H13A19629   1.755   1.581   6.219
  174SLPC  H13B19630   1.815   1.422   6.166
  174SLPC  H13C19631   1.885   1.565   6.103
  174SLPC   C1419632   1.671   1.659   5.978
  174SLPC  H14A19633   1.766   1.698   5.940
  174SLPC  H14B19634   1.597   1.665   5.900
  174SLPC  H14C19635   1.642   1.716   6.065
  174SLPC   C1519636   1.565   1.455   6.064
  174SLPC  H15A19637   1.495   1.453   5.982
  174SLPC  H15B19638   1.582   1.353   6.096
  174SLPC  H15C19639   1.519   1.513   6.142
  174SLPC   C1219640   1.753   1.431   5.911
  174SLPC  H12A19641   1.676   1.390   5.847
  174SLPC  H12B19642   1.804   1.347   5.959
  174SLPC   C1119643   1.856   1.494   5.816
  174SLPC  H11A19644   1.805   1.565   5.748
  174SLPC  H11B19645   1.898   1.412   5.753
  174SLPC     P19646   2.091   1.486   5.924
  174SLPC   O1319647   2.174   1.582   5.999
  174SLPC   O1419648   2.061   1.356   5.984
  174SLPC   O1219649   1.956   1.563   5.888
  174SLPC   O1119650   2.159   1.440   5.790
  174SLPC    C119651   2.268   1.510   5.745
  174SLPC    HA19652   2.310   1.585   5.817
  174SLPC    HB19653   2.371   1.470   5.723
  174SLPC    C219654   2.206   1.556   5.622
  174SLPC    HS19655   2.188   1.643   5.585
  174SLPC   O2119656   2.056   1.593   5.606
  174SLPC   C2119657   2.004   1.741   5.604
  174SLPC   O2219658   2.050   1.848   5.621
  174SLPC   C2219659   1.877   1.764   5.561
  174SLPC   H2R19660   1.852   1.665   5.524
  174SLPC   H2S19661   1.833   1.788   5.661
  174SLPC    C319662   2.286   1.447   5.525
  174SLPC    HX19663   2.397   1.426   5.529
  174SLPC    HY19664   2.343   1.491   5.435
  174SLPC   O3119665   2.204   1.341   5.502
  174SLPC   C3119666   2.216   1.292   5.389
  174SLPC   O3219667   2.308   1.310   5.313
  174SLPC   C3219668   2.084   1.229   5.374
  174SLPC   H2X19669   1.999   1.289   5.339
  174SLPC   H2Y19670   2.070   1.171   5.469
  174SLPC   C2319671   1.880   1.890   5.468
  174SLPC   H3R19672   1.940   1.877   5.375
  174SLPC   H3S19673   1.926   1.986   5.508
  174SLPC   C2419674   1.734   1.921   5.450
  174SLPC   H4R19675   1.721   2.024   5.413
  174SLPC   H4S19676   1.688   1.917   5.551
  174SLPC   C2519677   1.662   1.818   5.362
  174SLPC   H5R19678   1.556   1.851   5.352
  174SLPC   H5S19679   1.659   1.718   5.412
  174SLPC   C2619680   1.720   1.807   5.221
  174SLPC   H6R19681   1.807   1.737   5.223
  174SLPC   H6S19682   1.757   1.907   5.192
  174SLPC   C2719683   1.615   1.764   5.118
  174SLPC   H7R19684   1.539   1.843   5.103
  174SLPC   H7S19685   1.560   1.676   5.153
  174SLPC   C2819686   1.673   1.714   4.987
  174SLPC   H8R19687   1.594   1.665   4.930
  174SLPC   H8S19688   1.746   1.634   5.007
  174SLPC   C2919689   1.755   1.801   4.901
  174SLPC   H9R19690   1.812   1.876   4.959
  174SLPC  C21019691   1.728   1.830   4.775
  174SLPC  H10R19692   1.805   1.878   4.717
  174SLPC  C21119693   1.620   1.797   4.682
  174SLPC  H11R19694   1.530   1.821   4.740
  174SLPC  H11S19695   1.644   1.697   4.671
  174SLPC  C21219696   1.589   1.841   4.543
  174SLPC  H12R19697   1.501   1.907   4.541
  174SLPC  C21319698   1.669   1.826   4.436
  174SLPC  H13R19699   1.650   1.888   4.347
  174SLPC  C21419700   1.804   1.760   4.444
  174SLPC  H14R19701   1.796   1.677   4.371
  174SLPC  H14S19702   1.824   1.716   4.543
  174SLPC  C21519703   1.931   1.844   4.419
  174SLPC  H15R19704   1.913   1.919   4.339
  174SLPC  H15S19705   2.012   1.769   4.396
  174SLPC  C21619706   1.997   1.915   4.532
  174SLPC  H16R19707   2.040   1.837   4.599
  174SLPC  H16S19708   1.915   1.972   4.569
  174SLPC  C21719709   2.108   2.010   4.498
  174SLPC  H17R19710   2.147   2.055   4.593
  174SLPC  H17S19711   2.078   2.096   4.432
  174SLPC  C21819712   2.209   1.922   4.432
  174SLPC  H18R19713   2.216   1.923   4.322
  174SLPC  H18S19714   2.260   1.846   4.495
  174SLPC  H18T19715   2.288   1.981   4.430
  174SLPC   C3319716   2.099   1.139   5.265
  174SLPC   H3X19717   2.024   1.062   5.263
  174SLPC   H3Y19718   2.172   1.076   5.310
  174SLPC   C3419719   2.130   1.193   5.126
  174SLPC   H4X19720   2.116   1.101   5.063
  174SLPC   H4Y19721   2.231   1.235   5.110
  174SLPC   C3519722   2.028   1.251   5.046
  174SLPC   H5X19723   2.069   1.252   4.940
  174SLPC   H5Y19724   2.022   1.350   5.091
  174SLPC   C3619725   1.910   1.161   5.065
  174SLPC   H6X19726   1.848   1.191   5.152
  174SLPC   H6Y19727   1.931   1.052   5.066
  174SLPC   C3719728   1.832   1.178   4.948
  174SLPC   H7X19729   1.737   1.128   4.973
  174SLPC   H7Y19730   1.882   1.133   4.858
  174SLPC   C3819731   1.800   1.321   4.929
  174SLPC   H8X19732   1.863   1.406   4.949
  174SLPC   H8Y19733   1.699   1.333   4.974
  174SLPC   C3919734   1.782   1.339   4.787
  174SLPC   H9X19735   1.689   1.390   4.806
  174SLPC   H9Y19736   1.734   1.245   4.769
  174SLPC  C31019737   1.892   1.373   4.673
  174SLPC  H10X19738   1.947   1.277   4.669
  174SLPC  H10Y19739   1.948   1.459   4.711
  174SLPC  C31119740   1.875   1.408   4.513
  174SLPC  H11X19741   1.856   1.512   4.489
  174SLPC  H11Y19742   1.780   1.415   4.468
  174SLPC  C31219743   1.894   1.301   4.403
  174SLPC  H12X19744   1.828   1.316   4.311
  174SLPC  H12Y19745   1.881   1.195   4.431
  174SLPC  C31319746   2.026   1.326   4.358
  174SLPC  H13X19747   2.092   1.300   4.444
  174SLPC  H13Y19748   2.029   1.436   4.340
  174SLPC  C31419749   2.042   1.237   4.238
  174SLPC  H14X19750   2.008   1.134   4.247
  174SLPC  H14Y19751   2.140   1.196   4.239
  174SLPC  C31519752   2.002   1.301   4.107
  174SLPC  H15X19753   1.894   1.279   4.100
  174SLPC  H15Y19754   2.042   1.256   4.017
  174SLPC  C31619755   2.045   1.440   4.061
  174SLPC  H16X19756   1.989   1.496   4.135
  174SLPC  H16Y19757   2.013   1.442   3.952
  174SLPC  C31719758   2.167   1.528   4.074
  174SLPC  H17X19759   2.208   1.533   4.176
  174SLPC  H17Y19760   2.181   1.618   4.009
  174SLPC  C31819761   2.263   1.478   4.004
  174SLPC  H18X19762   2.343   1.519   3.951
  174SLPC  H18Y19763   2.220   1.386   3.951
  174SLPC  H18Z19764   2.349   1.469   4.071
  175SLPC     N19765   6.641   4.075   5.825
  175SLPC   C1319766   6.550   4.188   5.862
  175SLPC  H13A19767   6.590   4.241   5.947
  175SLPC  H13B19768   6.528   4.253   5.779
  175SLPC  H13C19769   6.455   4.150   5.898
  175SLPC   C1419770   6.608   4.028   5.688
  175SLPC  H14A19771   6.508   3.989   5.693
  175SLPC  H14B19772   6.605   4.111   5.618
  175SLPC  H14C19773   6.671   3.949   5.652
  175SLPC   C1519774   6.622   3.974   5.930
  175SLPC  H15A19775   6.675   3.884   5.916
  175SLPC  H15B19776   6.627   4.014   6.031
  175SLPC  H15C19777   6.524   3.928   5.924
  175SLPC   C1219778   6.782   4.119   5.829
  175SLPC  H12A19779   6.785   4.218   5.786
  175SLPC  H12B19780   6.835   4.052   5.763
  175SLPC   C1119781   6.849   4.123   5.968
  175SLPC  H11A19782   6.954   4.153   5.950
  175SLPC  H11B19783   6.857   4.024   6.020
  175SLPC     P19784   6.831   4.361   6.082
  175SLPC   O1319785   6.774   4.417   6.206
  175SLPC   O1419786   6.979   4.360   6.065
  175SLPC   O1219787   6.779   4.212   6.056
  175SLPC   O1119788   6.768   4.430   5.954
  175SLPC    C119789   6.654   4.516   5.967
  175SLPC    HA19790   6.560   4.461   5.947
  175SLPC    HB19791   6.642   4.563   6.068
  175SLPC    C219792   6.666   4.629   5.865
  175SLPC    HS19793   6.576   4.690   5.871
  175SLPC   O2119794   6.688   4.590   5.729
  175SLPC   C2119795   6.596   4.516   5.675
  175SLPC   O2219796   6.485   4.492   5.718
  175SLPC   C2219797   6.648   4.468   5.541
  175SLPC   H2R19798   6.754   4.500   5.529
  175SLPC   H2S19799   6.645   4.358   5.537
  175SLPC    C319800   6.778   4.724   5.903
  175SLPC    HX19801   6.757   4.767   6.003
  175SLPC    HY19802   6.762   4.796   5.819
  175SLPC   O3119803   6.909   4.674   5.912
  175SLPC   C3119804   6.970   4.673   5.801
  175SLPC   O3219805   6.944   4.730   5.697
  175SLPC   C3219806   7.092   4.597   5.823
  175SLPC   H2X19807   7.098   4.532   5.911
  175SLPC   H2Y19808   7.146   4.681   5.856
  175SLPC   C2319809   6.562   4.524   5.428
  175SLPC   H3R19810   6.567   4.636   5.427
  175SLPC   H3S19811   6.456   4.493   5.447
  175SLPC   C2419812   6.603   4.471   5.291
  175SLPC   H4R19813   6.556   4.534   5.212
  175SLPC   H4S19814   6.563   4.367   5.283
  175SLPC   C2519815   6.753   4.468   5.264
  175SLPC   H5R19816   6.770   4.423   5.165
  175SLPC   H5S19817   6.808   4.408   5.339
  175SLPC   C2619818   6.815   4.606   5.271
  175SLPC   H6R19819   6.802   4.636   5.378
  175SLPC   H6S19820   6.760   4.677   5.206
  175SLPC   C2719821   6.965   4.607   5.244
  175SLPC   H7R19822   7.024   4.521   5.279
  175SLPC   H7S19823   7.001   4.683   5.316
  175SLPC   C2819824   7.001   4.620   5.094
  175SLPC   H8R19825   6.970   4.531   5.040
  175SLPC   H8S19826   7.112   4.629   5.087
  175SLPC   C2919827   6.938   4.740   5.033
  175SLPC   H9R19828   7.001   4.823   5.032
  175SLPC  C21019829   6.851   4.780   4.953
  175SLPC  H10R19830   6.853   4.885   4.913
  175SLPC  C21119831   6.785   4.674   4.890
  175SLPC  H11R19832   6.797   4.573   4.930
  175SLPC  H11S19833   6.843   4.681   4.804
  175SLPC  C21219834   6.663   4.752   4.899
  175SLPC  H12R19835   6.597   4.727   4.983
  175SLPC  C21319836   6.615   4.815   4.797
  175SLPC  H13R19837   6.518   4.857   4.821
  175SLPC  C21419838   6.653   4.832   4.650
  175SLPC  H14R19839   6.642   4.770   4.556
  175SLPC  H14S19840   6.711   4.782   4.585
  175SLPC  C21519841   6.672   4.932   4.595
  175SLPC  H15R19842   6.766   4.958   4.651
  175SLPC  H15S19843   6.586   4.968   4.629
  175SLPC  C21619844   6.626   4.917   4.449
  175SLPC  H16R19845   6.691   4.988   4.481
  175SLPC  H16S19846   6.538   4.960   4.408
  175SLPC  C21719847   6.716   4.859   4.357
  175SLPC  H17R19848   6.719   4.906   4.262
  175SLPC  H17S19849   6.679   4.763   4.317
  175SLPC  C21819850   6.850   4.890   4.417
  175SLPC  H18R19851   6.902   4.930   4.505
  175SLPC  H18S19852   6.902   4.852   4.341
  175SLPC  H18T19853   6.862   4.823   4.497
  175SLPC   C3319854   7.138   4.536   5.695
  175SLPC   H3X19855   7.233   4.488   5.715
  175SLPC   H3Y19856   7.149   4.609   5.611
  175SLPC   C3419857   7.043   4.427   5.656
  175SLPC   H4X19858   6.945   4.473   5.636
  175SLPC   H4Y19859   7.035   4.357   5.742
  175SLPC   C3519860   7.094   4.361   5.532
  175SLPC   H5X19861   7.200   4.335   5.556
  175SLPC   H5Y19862   7.104   4.429   5.445
  175SLPC   C3619863   7.000   4.251   5.486
  175SLPC   H6X19864   6.892   4.269   5.482
  175SLPC   H6Y19865   6.998   4.158   5.549
  175SLPC   C3719866   7.035   4.223   5.344
  175SLPC   H7X19867   7.131   4.183   5.364
  175SLPC   H7Y19868   7.107   4.265   5.271
  175SLPC   C3819869   6.940   4.123   5.288
  175SLPC   H8X19870   6.898   4.029   5.336
  175SLPC   H8Y19871   7.010   4.098   5.210
  175SLPC   C3919872   6.851   4.182   5.201
  175SLPC   H9X19873   6.921   4.253   5.148
  175SLPC   H9Y19874   6.785   4.218   5.281
  175SLPC  C31019875   6.795   4.087   5.108
  175SLPC  H10X19876   6.736   4.004   5.158
  175SLPC  H10Y19877   6.864   4.043   5.029
  175SLPC  C31119878   6.719   4.172   5.025
  175SLPC  H11X19879   6.640   4.225   5.083
  175SLPC  H11Y19880   6.699   4.073   4.979
  175SLPC  C31219881   6.777   4.266   4.928
  175SLPC  H12X19882   6.857   4.217   4.868
  175SLPC  H12Y19883   6.822   4.340   4.996
  175SLPC  C31319884   6.670   4.343   4.850
  175SLPC  H13X19885   6.724   4.431   4.814
  175SLPC  H13Y19886   6.590   4.378   4.920
  175SLPC  C31419887   6.624   4.285   4.716
  175SLPC  H14X19888   6.601   4.182   4.727
  175SLPC  H14Y19889   6.708   4.269   4.647
  175SLPC  C31519890   6.499   4.345   4.653
  175SLPC  H15X19891   6.497   4.432   4.601
  175SLPC  H15Y19892   6.425   4.367   4.731
  175SLPC  C31619893   6.460   4.291   4.518
  175SLPC  H16X19894   6.541   4.259   4.450
  175SLPC  H16Y19895   6.390   4.355   4.459
  175SLPC  C31719896   6.392   4.178   4.568
  175SLPC  H17X19897   6.291   4.192   4.519
  175SLPC  H17Y19898   6.347   4.204   4.665
  175SLPC  C31819899   6.488   4.044   4.556
  175SLPC  H18X19900   6.523   3.980   4.635
  175SLPC  H18Y19901   6.536   4.023   4.461
  175SLPC  H18Z19902   6.425   3.957   4.545
  176SLPC     N19903   5.848   1.514   6.089
  176SLPC   C1319904   5.963   1.436   6.112
  176SLPC  H13A19905   6.037   1.474   6.044
  176SLPC  H13B19906   5.986   1.436   6.217
  176SLPC  H13C19907   5.935   1.335   6.081
  176SLPC   C1419908   5.867   1.648   6.146
  176SLPC  H14A19909   5.948   1.703   6.101
  176SLPC  H14B19910   5.781   1.716   6.129
  176SLPC  H14C19911   5.876   1.640   6.252
  176SLPC   C1519912   5.744   1.441   6.167
  176SLPC  H15A19913   5.669   1.518   6.172
  176SLPC  H15B19914   5.690   1.359   6.117
  176SLPC  H15C19915   5.755   1.429   6.273
  176SLPC   C1219916   5.835   1.538   5.936
  176SLPC  H12A19917   5.883   1.631   5.903
  176SLPC  H12B19918   5.742   1.589   5.920
  176SLPC   C1119919   5.829   1.423   5.834
  176SLPC  H11A19920   5.919   1.424   5.777
  176SLPC  H11B19921   5.753   1.435   5.754
  176SLPC     P19922   5.756   1.171   5.837
  176SLPC   O1319923   5.641   1.112   5.907
  176SLPC   O1419924   5.752   1.191   5.691
  176SLPC   O1219925   5.802   1.304   5.905
  176SLPC   O1119926   5.883   1.097   5.865
  176SLPC    C119927   5.990   1.113   5.948
  176SLPC    HA19928   5.979   1.206   6.004
  176SLPC    HB19929   6.000   1.026   6.014
  176SLPC    C219930   6.114   1.143   5.869
  176SLPC    HS19931   6.178   1.192   5.944
  176SLPC   O2119932   6.072   1.206   5.745
  176SLPC   C2119933   6.119   1.326   5.741
  176SLPC   O2219934   6.168   1.380   5.839
  176SLPC   C2219935   6.101   1.405   5.604
  176SLPC   H2R19936   6.135   1.382   5.505
  176SLPC   H2S19937   6.000   1.380   5.575
  176SLPC    C319938   6.201   1.029   5.839
  176SLPC    HX19939   6.224   0.970   5.928
  176SLPC    HY19940   6.297   1.046   5.788
  176SLPC   O3119941   6.114   0.956   5.770
  176SLPC   C3119942   6.164   0.912   5.667
  176SLPC   O3219943   6.246   0.945   5.595
  176SLPC   C3219944   6.092   0.850   5.642
  176SLPC   H2X19945   6.030   0.736   5.605
  176SLPC   H2Y19946   6.095   0.745   5.574
  176SLPC   C2319947   6.182   1.535   5.579
  176SLPC   H3R19948   6.290   1.519   5.554
  176SLPC   H3S19949   6.170   1.587   5.675
  176SLPC   C2419950   6.136   1.611   5.456
  176SLPC   H4R19951   6.145   1.556   5.360
  176SLPC   H4S19952   6.208   1.692   5.444
  176SLPC   C2519953   5.997   1.661   5.480
  176SLPC   H5R19954   5.997   1.712   5.580
  176SLPC   H5S19955   5.923   1.581   5.472
  176SLPC   C2619956   5.947   1.753   5.377
  176SLPC   H6R19957   5.982   1.843   5.428
  176SLPC   H6S19958   5.848   1.795   5.373
  176SLPC   C2719959   5.967   1.704   5.237
  176SLPC   H7R19960   6.072   1.705   5.206
  176SLPC   H7S19961   5.911   1.775   5.175
  176SLPC   C2819962   5.900   1.581   5.189
  176SLPC   H8R19963   5.808   1.612   5.183
  176SLPC   H8S19964   5.875   1.520   5.274
  176SLPC   C2919965   5.850   1.560   5.051
  176SLPC   H9R19966   5.752   1.600   5.014
  176SLPC  C21019967   5.941   1.510   4.977
  176SLPC  H10R19968   5.928   1.483   4.875
  176SLPC  C21119969   6.072   1.481   5.032
  176SLPC  H11R19970   6.109   1.534   5.121
  176SLPC  H11S19971   6.133   1.517   4.955
  176SLPC  C21219972   6.074   1.335   5.050
  176SLPC  H12R19973   6.046   1.304   5.151
  176SLPC  C21319974   6.129   1.249   4.965
  176SLPC  H13R19975   6.156   1.146   4.992
  176SLPC  C21419976   6.194   1.282   4.843
  176SLPC  H14R19977   6.306   1.294   4.860
  176SLPC  H14S19978   6.151   1.377   4.808
  176SLPC  C21519979   6.164   1.182   4.734
  176SLPC  H15R19980   6.170   1.226   4.632
  176SLPC  H15S19981   6.063   1.142   4.748
  176SLPC  C21619982   6.272   1.080   4.740
  176SLPC  H16R19983   6.267   1.022   4.837
  176SLPC  H16S19984   6.360   1.144   4.737
  176SLPC  C21719985   6.285   0.978   4.626
  176SLPC  H17R19986   6.193   0.946   4.592
  176SLPC  H17S19987   6.321   0.894   4.684
  176SLPC  C21819988   6.299   0.987   4.475
  176SLPC  H18R19989   6.404   0.967   4.448
  176SLPC  H18S19990   6.265   1.090   4.454
  176SLPC  H18T19991   6.243   0.910   4.418
  176SLPC   C3319992   5.982   1.085   5.500
  176SLPC   H3X19993   5.962   1.110   5.405
  176SLPC   H3Y19994   5.878   1.106   5.535
  176SLPC   C3419995   5.953   0.992   5.265
  176SLPC   H4X19996   5.886   1.071   5.246
  176SLPC   H4Y19997   5.907   0.861   5.256
  176SLPC   C3519998   5.999   0.894   5.157
  176SLPC   H5X19999   6.037   0.794   5.194
  176SLPC   H5Y20000   6.034   0.982   5.180
  176SLPC   C3620001   5.914   0.906   5.029
  176SLPC   H6X20002   5.811   0.941   5.002
  176SLPC   H6Y20003   5.901   0.809   5.001
  176SLPC   C3720004   5.967   0.947   4.928
  176SLPC   H7X20005   6.054   0.877   4.962
  176SLPC   H7Y20006   5.997   1.048   4.943
  176SLPC   C3820007   5.852   0.898   4.828
  176SLPC   H8X20008   5.855   0.786   4.811
  176SLPC   H8Y20009   5.919   0.972   4.784
  176SLPC   C3920010   5.731   0.968   4.777
  176SLPC   H9X20011   5.650   0.946   4.848
  176SLPC   H9Y20012   5.697   0.929   4.677
  176SLPC  C31020013   5.772   1.114   4.767
  176SLPC  H10X20014   5.843   1.133   4.682
  176SLPC  H10Y20015   5.816   1.155   4.860
  176SLPC  C31120016   5.643   1.179   4.748
  176SLPC  H11X20017   5.583   1.132   4.824
  176SLPC  H11Y20018   5.614   1.148   4.644
  176SLPC  C31220019   5.619   1.326   4.771
  176SLPC  H12X20020   5.730   1.334   4.759
  176SLPC  H12Y20021   5.637   1.361   4.875
  176SLPC  C31320022   5.510   1.413   4.674
  176SLPC  H13X20023   5.496   1.521   4.693
  176SLPC  H13Y20024   5.418   1.396   4.724
  176SLPC  C31420025   5.497   1.431   4.508
  176SLPC  H14X20026   5.422   1.506   4.513
  176SLPC  H14Y20027   5.465   1.331   4.480
  176SLPC  C31520028   5.598   1.492   4.396
  176SLPC  H15X20029   5.711   1.483   4.382
  176SLPC  H15Y20030   5.608   1.597   4.416
  176SLPC  C31620031   5.577   1.447   4.258
  176SLPC  H16X20032   5.486   1.510   4.243
  176SLPC  H16Y20033   5.562   1.338   4.256
  176SLPC  C31720034   5.701   1.482   4.181
  176SLPC  H17X20035   5.679   1.448   4.080
  176SLPC  H17Y20036   5.803   1.446   4.215
  176SLPC  C31820037   5.710   1.627   4.185
  176SLPC  H18X20038   5.747   1.683   4.274
  176SLPC  H18Y20039   5.615   1.674   4.148
  176SLPC  H18Z20040   5.789   1.638   4.110
  177SLPC     N20041   7.203   2.963   5.805
  177SLPC   C1320042   7.293   2.868   5.764
  177SLPC  H13A20043   7.270   2.782   5.827
  177SLPC  H13B20044   7.264   2.854   5.660
  177SLPC  H13C20045   7.390   2.909   5.784
  177SLPC   C1420046   7.085   2.928   5.730
  177SLPC  H14A20047   7.061   2.999   5.650
  177SLPC  H14B20048   7.012   2.851   5.753
  177SLPC  H14C20049   7.033   2.983   5.802
  177SLPC   C1520050   7.249   3.089   5.738
  177SLPC  H15A20051   7.163   3.156   5.753
  177SLPC  H15B20052   7.319   3.142   5.800
  177SLPC  H15C20053   7.224   3.124   5.638
  177SLPC   C1220054   7.195   2.949   5.962
  177SLPC  H12A20055   7.170   3.037   6.018
  177SLPC  H12B20056   7.295   2.940   6.004
  177SLPC   C1120057   7.098   2.847   6.029
  177SLPC  H11A20058   6.992   2.860   5.997
  177SLPC  H11B20059   7.094   2.864   6.141
  177SLPC     P20060   7.268   2.659   6.072
  177SLPC   O1320061   7.386   2.717   6.002
  177SLPC   O1420062   7.256   2.681   6.217
  177SLPC   O1220063   7.138   2.716   5.998
  177SLPC   O1120064   7.259   2.505   6.047
  177SLPC    C120065   7.145   2.442   5.990
  177SLPC    HA20066   7.156   2.336   6.019
  177SLPC    HB20067   7.051   2.484   6.031
  177SLPC    C220068   7.139   2.439   5.833
  177SLPC    HS20069   7.138   2.330   5.801
  177SLPC   O2120070   7.244   2.514   5.776
  177SLPC   C2120071   7.351   2.448   5.792
  177SLPC   O2220072   7.353   2.332   5.835
  177SLPC   C2220073   7.462   2.544   5.733
  177SLPC   H2R20074   7.516   2.599   5.809
  177SLPC   H2S20075   7.562   2.511   5.720
  177SLPC    C320076   7.016   2.495   5.763
  177SLPC    HX20077   6.987   2.595   5.801
  177SLPC    HY20078   6.934   2.428   5.787
  177SLPC   O3120079   7.039   2.489   5.620
  177SLPC   C3120080   7.035   2.604   5.556
  177SLPC   O3220081   6.987   2.707   5.598
  177SLPC   C3220082   7.093   2.587   5.414
  177SLPC   H2X20083   7.173   2.511   5.413
  177SLPC   H2Y20084   7.124   2.687   5.380
  177SLPC   C2320085   7.432   2.601   5.593
  177SLPC   H3R20086   7.376   2.690   5.622
  177SLPC   H3S20087   7.368   2.534   5.531
  177SLPC   C2420088   7.559   2.637   5.515
  177SLPC   H4R20089   7.616   2.556   5.475
  177SLPC   H4S20090   7.638   2.687   5.575
  177SLPC   C2520091   7.543   2.711   5.388
  177SLPC   H5R20092   7.643   2.701   5.337
  177SLPC   H5S20093   7.520   2.812   5.418
  177SLPC   C2620094   7.431   2.691   5.287
  177SLPC   H6R20095   7.416   2.778   5.220
  177SLPC   H6S20096   7.340   2.640   5.326
  177SLPC   C2720097   7.480   2.605   5.183
  177SLPC   H7R20098   7.521   2.544   5.258
  177SLPC   H7S20099   7.586   2.603   5.153
  177SLPC   C2820100   7.375   2.558   5.078
  177SLPC   H8R20101   7.340   2.643   5.021
  177SLPC   H8S20102   7.294   2.500   5.128
  177SLPC   C2920103   7.415   2.476   4.962
  177SLPC   H9R20104   7.456   2.383   4.981
  177SLPC  C21020105   7.430   2.473   4.837
  177SLPC  H10R20106   7.472   2.378   4.805
  177SLPC  C21120107   7.410   2.575   4.745
  177SLPC  H11R20108   7.499   2.629   4.773
  177SLPC  H11S20109   7.313   2.611   4.775
  177SLPC  C21220110   7.424   2.559   4.602
  177SLPC  H12R20111   7.522   2.512   4.591
  177SLPC  C21320112   7.331   2.550   4.508
  177SLPC  H13R20113   7.360   2.497   4.415
  177SLPC  C21420114   7.181   2.550   4.530
  177SLPC  H14R20115   7.157   2.622   4.607
  177SLPC  H14S20116   7.133   2.456   4.566
  177SLPC  C21520117   7.086   2.532   4.419
  177SLPC  H15R20118   7.125   2.594   4.340
  177SLPC  H15S20119   6.989   2.573   4.450
  177SLPC  C21620120   7.055   2.389   4.374
  177SLPC  H16R20121   7.030   2.310   4.446
  177SLPC  H16S20122   7.152   2.344   4.344
  177SLPC  C21720123   6.943   2.408   4.268
  177SLPC  H17R20124   6.866   2.472   4.303
  177SLPC  H17S20125   6.908   2.306   4.241
  177SLPC  C21820126   6.945   2.522   4.161
  177SLPC  H18R20127   6.876   2.555   4.087
  177SLPC  H18S20128   6.967   2.452   4.085
  177SLPC  H18T20129   7.027   2.591   4.160
  177SLPC   C3320130   6.991   2.539   5.312
  177SLPC   H3X20131   6.904   2.578   5.362
  177SLPC   H3Y20132   6.991   2.428   5.313
  177SLPC   C3420133   6.990   2.599   5.171
  177SLPC   H4X20134   7.084   2.562   5.127
  177SLPC   H4Y20135   6.986   2.709   5.184
  177SLPC   C3520136   6.881   2.555   5.072
  177SLPC   H5X20137   6.789   2.609   5.071
  177SLPC   H5Y20138   6.867   2.448   5.084
  177SLPC   C3620139   6.894   2.573   4.924
  177SLPC   H6X20140   6.843   2.497   4.867
  177SLPC   H6Y20141   6.993   2.547   4.909
  177SLPC   C3720142   6.847   2.702   4.865
  177SLPC   H7X20143   6.744   2.724   4.900
  177SLPC   H7Y20144   6.844   2.688   4.754
  177SLPC   C3820145   6.942   2.812   4.901
  177SLPC   H8X20146   6.932   2.834   5.010
  177SLPC   H8Y20147   6.912   2.904   4.847
  177SLPC   C3920148   7.083   2.775   4.859
  177SLPC   H9X20149   7.087   2.714   4.766
  177SLPC   H9Y20150   7.133   2.717   4.940
  177SLPC  C31020151   7.158   2.899   4.825
  177SLPC  H10X20152   7.174   2.952   4.921
  177SLPC  H10Y20153   7.102   2.963   4.753
  177SLPC  C31120154   7.291   2.869   4.764
  177SLPC  H11X20155   7.287   2.792   4.685
  177SLPC  H11Y20156   7.341   2.810   4.843
  177SLPC  C31220157   7.361   3.000   4.724
  177SLPC  H12X20158   7.449   2.990   4.659
  177SLPC  H12Y20159   7.401   3.054   4.812
  177SLPC  C31320160   7.293   3.087   4.623
  177SLPC  H13X20161   7.371   3.162   4.590
  177SLPC  H13Y20162   7.215   3.135   4.680
  177SLPC  C31420163   7.235   3.013   4.503
  177SLPC  H14X20164   7.204   3.091   4.429
  177SLPC  H14Y20165   7.154   2.943   4.526
  177SLPC  C31520166   7.338   2.922   4.446
  177SLPC  H15X20167   7.383   2.853   4.517
  177SLPC  H15Y20168   7.408   2.998   4.407
  177SLPC  C31620169   7.298   2.793   4.371
  177SLPC  H16X20170   7.218   2.855   4.328
  177SLPC  H16Y20171   7.218   2.735   4.383
  177SLPC  C31720172   7.410   2.703   4.304
  177SLPC  H17X20173   7.483   2.660   4.367
  177SLPC  H17Y20174   7.457   2.763   4.269
  177SLPC  C31820175   7.436   2.612   4.186
  177SLPC  H18X20176   7.416   2.647   4.073
  177SLPC  H18Y20177   7.346   2.564   4.221
  177SLPC  H18Z20178   7.516   2.593   4.114
  178SLPC     N20179   1.804   7.384   5.916
  178SLPC   C1320180   1.858   7.362   5.781
  178SLPC  H13A20181   1.876   7.255   5.771
  178SLPC  H13B20182   1.792   7.391   5.700
  178SLPC  H13C20183   1.951   7.418   5.771
  178SLPC   C1420184   1.672   7.319   5.931
  178SLPC  H14A20185   1.653   7.303   6.036
  178SLPC  H14B20186   1.590   7.379   5.893
  178SLPC  H14C20187   1.676   7.222   5.883
  178SLPC   C1520188   1.785   7.522   5.942
  178SLPC  H15A20189   1.714   7.564   5.869
  178SLPC  H15B20190   1.741   7.546   6.039
  178SLPC  H15C20191   1.872   7.585   5.926
  178SLPC   C1220192   1.907   7.336   6.016
  178SLPC  H12A20193   1.866   7.351   6.115
  178SLPC  H12B20194   1.993   7.400   6.005
  178SLPC   C1120195   1.957   7.192   6.002
  178SLPC  H11A20196   2.038   7.175   6.078
  178SLPC  H11B20197   2.003   7.176   5.902
  178SLPC     P20198   1.866   6.954   5.983
  178SLPC   O1320199   1.998   6.907   6.031
  178SLPC   O1420200   1.746   6.877   6.020
  178SLPC   O1220201   1.849   7.105   6.027
  178SLPC   O1120202   1.874   6.969   5.826
  178SLPC    C120203   1.754   6.959   5.750
  178SLPC    HA20204   1.707   6.860   5.764
  178SLPC    HB20205   1.682   7.038   5.783
  178SLPC    C220206   1.790   6.981   5.601
  178SLPC    HS20207   1.835   6.888   5.560
  178SLPC   O2120208   1.883   7.092   5.595
  178SLPC   C2120209   1.942   7.119   5.483
  178SLPC   O2220210   1.923   7.065   5.375
  178SLPC   C2220211   2.042   7.233   5.509
  178SLPC   H2R20212   1.980   7.324   5.526
  178SLPC   H2S20213   2.102   7.213   5.600
  178SLPC    C320214   1.665   7.009   5.520
  178SLPC    HX20215   1.579   6.945   5.557
  178SLPC    HY20216   1.679   6.977   5.413
  178SLPC   O3120217   1.651   7.154   5.542
  178SLPC   C3120218   1.556   7.190   5.466
  178SLPC   O3220219   1.506   7.112   5.390
  178SLPC   C3220220   1.508   7.336   5.494
  178SLPC   H2X20221   1.580   7.396   5.542
  178SLPC   H2Y20222   1.412   7.347   5.547
  178SLPC   C2320223   2.130   7.264   5.388
  178SLPC   H3R20224   2.199   7.350   5.410
  178SLPC   H3S20225   2.059   7.296   5.309
  178SLPC   C2420226   2.212   7.145   5.337
  178SLPC   H4R20227   2.148   7.059   5.308
  178SLPC   H4S20228   2.288   7.115   5.411
  178SLPC   C2520229   2.277   7.173   5.205
  178SLPC   H5R20230   2.326   7.084   5.161
  178SLPC   H5S20231   2.360   7.240   5.233
  178SLPC   C2620232   2.170   7.230   5.109
  178SLPC   H6R20233   2.145   7.337   5.137
  178SLPC   H6S20234   2.083   7.167   5.084
  178SLPC   C2720235   2.214   7.226   4.968
  178SLPC   H7R20236   2.294   7.149   4.949
  178SLPC   H7S20237   2.275   7.293   5.019
  178SLPC   C2820238   2.173   7.337   4.863
  178SLPC   H8R20239   2.236   7.384   4.784
  178SLPC   H8S20240   2.147   7.434   4.913
  178SLPC   C2920241   2.091   7.247   4.786
  178SLPC   H9R20242   2.142   7.161   4.740
  178SLPC  C21020243   1.962   7.265   4.787
  178SLPC  H10R20244   1.899   7.200   4.726
  178SLPC  C21120245   1.897   7.376   4.863
  178SLPC  H11R20246   1.920   7.369   4.971
  178SLPC  H11S20247   1.789   7.366   4.845
  178SLPC  C21220248   1.929   7.514   4.823
  178SLPC  H12R20249   1.950   7.588   4.899
  178SLPC  C21320250   1.927   7.559   4.703
  178SLPC  H13R20251   1.952   7.659   4.701
  178SLPC  C21420252   1.893   7.491   4.577
  178SLPC  H14R20253   1.883   7.382   4.578
  178SLPC  H14S20254   1.974   7.512   4.504
  178SLPC  C21520255   1.753   7.524   4.533
  178SLPC  H15R20256   1.780   7.622   4.506
  178SLPC  H15S20257   1.676   7.573   4.594
  178SLPC  C21620258   1.731   7.437   4.407
  178SLPC  H16R20259   1.830   7.440   4.358
  178SLPC  H16S20260   1.660   7.463   4.326
  178SLPC  C21720261   1.631   7.337   4.391
  178SLPC  H17R20262   1.688   7.290   4.471
  178SLPC  H17S20263   1.643   7.295   4.284
  178SLPC  C21820264   1.498   7.404   4.429
  178SLPC  H18R20265   1.441   7.462   4.353
  178SLPC  H18S20266   1.508   7.473   4.518
  178SLPC  H18T20267   1.442   7.314   4.451
  178SLPC   C3320268   1.454   7.396   5.375
  178SLPC   H3X20269   1.447   7.464   5.296
  178SLPC   H3Y20270   1.342   7.379   5.382
  178SLPC   C3420271   1.584   7.370   5.282
  178SLPC   H4X20272   1.630   7.270   5.277
  178SLPC   H4Y20273   1.652   7.444   5.327
  178SLPC   C3520274   1.594   7.394   5.131
  178SLPC   H5X20275   1.690   7.424   5.085
  178SLPC   H5Y20276   1.548   7.496   5.113
  178SLPC   C3620277   1.544   7.283   5.037
  178SLPC   H6X20278   1.522   7.374   4.986
  178SLPC   H6Y20279   1.450   7.221   5.020
  178SLPC   C3720280   1.580   7.146   5.008
  178SLPC   H7X20281   1.541   7.087   5.097
  178SLPC   H7Y20282   1.684   7.168   5.006
  178SLPC   C3820283   1.523   7.081   4.879
  178SLPC   H8X20284   1.564   7.138   4.794
  178SLPC   H8Y20285   1.411   7.075   4.868
  178SLPC   C3920286   1.588   6.948   4.874
  178SLPC   H9X20287   1.546   6.888   4.958
  178SLPC   H9Y20288   1.696   6.970   4.893
  178SLPC  C31020289   1.576   6.875   4.742
  178SLPC  H10X20290   1.470   6.856   4.717
  178SLPC  H10Y20291   1.626   6.777   4.761
  178SLPC  C31120292   1.645   6.944   4.624
  178SLPC  H11X20293   1.624   7.053   4.615
  178SLPC  H11Y20294   1.605   6.900   4.530
  178SLPC  C31220295   1.796   6.921   4.623
  178SLPC  H12X20296   1.813   6.811   4.612
  178SLPC  H12Y20297   1.843   6.955   4.718
  178SLPC  C31320298   1.858   7.000   4.508
  178SLPC  H13X20299   1.834   7.109   4.519
  178SLPC  H13Y20300   1.814   6.962   4.414
  178SLPC  C31420301   2.010   6.982   4.503
  178SLPC  H14X20302   2.024   6.875   4.475
  178SLPC  H14Y20303   2.053   7.000   4.603
  178SLPC  C31520304   2.087   7.067   4.401
  178SLPC  H15X20305   2.193   7.037   4.416
  178SLPC  H15Y20306   2.079   7.176   4.418
  178SLPC  C31620307   2.047   7.029   4.258
  178SLPC  H16X20308   1.951   7.080   4.234
  178SLPC  H16Y20309   2.034   6.919   4.255
  178SLPC  C31720310   2.149   7.066   4.150
  178SLPC  H17X20311   2.253   7.047   4.183
  178SLPC  H17Y20312   2.136   7.175   4.150
  178SLPC  C31820313   2.129   7.002   4.010
  178SLPC  H18X20314   2.133   6.892   4.018
  178SLPC  H18Y20315   2.206   7.038   3.939
  178SLPC  H18Z20316   2.031   7.025   3.963
  179SLPC     N20317   2.809   2.298   2.462
  179SLPC   C1320318   2.780   2.404   2.362
  179SLPC  H13A20319   2.802   2.499   2.411
  179SLPC  H13B20320   2.848   2.399   2.278
  179SLPC  H13C20321   2.678   2.401   2.328
  179SLPC   C1420322   2.803   2.171   2.398
  179SLPC  H14A20323   2.890   2.161   2.330
  179SLPC  H14B20324   2.831   2.086   2.464
  179SLPC  H14C20325   2.721   2.136   2.338
  179SLPC   C1520326   2.716   2.295   2.577
  179SLPC  H15A20327   2.697   2.396   2.610
  179SLPC  H15B20328   2.625   2.243   2.552
  179SLPC  H15C20329   2.764   2.239   2.657
  179SLPC   C1220330   2.953   2.317   2.509
  179SLPC  H12A20331   3.017   2.319   2.421
  179SLPC  H12B20332   2.985   2.228   2.563
  179SLPC   C1120333   2.982   2.441   2.597
  179SLPC  H11A20334   3.092   2.441   2.615
  179SLPC  H11B20335   2.935   2.427   2.698
  179SLPC     P20336   2.893   2.687   2.626
  179SLPC   O1320337   2.928   2.816   2.562
  179SLPC   O1420338   2.755   2.661   2.673
  179SLPC   O1220339   2.942   2.565   2.536
  179SLPC   O1120340   2.988   2.663   2.747
  179SLPC    C120341   3.126   2.695   2.745
  179SLPC    HA20342   3.184   2.616   2.695
  179SLPC    HB20343   3.147   2.796   2.701
  179SLPC    C220344   3.172   2.704   2.890
  179SLPC    HS20345   3.285   2.714   2.894
  179SLPC   O2120346   3.125   2.601   2.974
  179SLPC   C2120347   3.178   2.502   2.941
  179SLPC   O2220348   3.282   2.489   2.875
  179SLPC   C2220349   3.075   2.397   2.991
  179SLPC   H2R20350   3.006   2.427   3.069
  179SLPC   H2S20351   3.032   2.345   2.902
  179SLPC    C320352   3.118   2.822   2.949
  179SLPC    HX20353   3.180   2.909   2.928
  179SLPC    HY20354   3.132   2.782   3.057
  179SLPC   O3120355   2.979   2.842   2.909
  179SLPC   C3120356   2.925   2.977   2.890
  179SLPC   O3220357   3.018   3.054   2.866
  179SLPC   C3220358   2.768   3.026   2.999
  179SLPC   H2X20359   2.730   2.948   2.931
  179SLPC   H2Y20360   2.696   3.077   2.973
  179SLPC   C2320361   3.136   2.289   3.069
  179SLPC   H3R20362   3.194   2.287   2.977
  179SLPC   H3S20363   3.090   2.193   3.090
  179SLPC   C2420364   3.213   2.320   3.188
  179SLPC   H4R20365   3.276   2.402   3.145
  179SLPC   H4S20366   3.264   2.229   3.227
  179SLPC   C2520367   3.155   2.377   3.314
  179SLPC   H5R20368   3.090   2.293   3.342
  179SLPC   H5S20369   3.110   2.467   3.270
  179SLPC   C2620370   3.247   2.413   3.435
  179SLPC   H6R20371   3.322   2.493   3.414
  179SLPC   H6S20372   3.305   2.327   3.475
  179SLPC   C2720373   3.181   2.482   3.546
  179SLPC   H7R20374   3.262   2.527   3.609
  179SLPC   H7S20375   3.120   2.407   3.596
  179SLPC   C2820376   3.084   2.581   3.498
  179SLPC   H8R20377   3.037   2.623   3.588
  179SLPC   H8S20378   3.003   2.546   3.433
  179SLPC   C2920379   3.148   2.676   3.413
  179SLPC   H9R20380   3.216   2.663   3.326
  179SLPC  C21020381   3.106   2.790   3.440
  179SLPC  H10R20382   3.114   2.837   3.357
  179SLPC  C21120383   3.019   2.870   3.523
  179SLPC  H11R20384   2.965   2.816   3.597
  179SLPC  H11S20385   2.969   2.952   3.468
  179SLPC  C21220386   3.131   2.933   3.574
  179SLPC  H12R20387   3.135   3.038   3.557
  179SLPC  C21320388   3.207   2.905   3.669
  179SLPC  H13R20389   3.262   2.998   3.687
  179SLPC  C21420390   3.196   2.782   3.760
  179SLPC  H14R20391   3.243   2.734   3.674
  179SLPC  H14S20392   3.115   2.719   3.732
  179SLPC  C21520393   3.248   2.746   3.920
  179SLPC  H15R20394   3.259   2.639   3.922
  179SLPC  H15S20395   3.156   2.768   3.976
  179SLPC  C21620396   3.364   2.808   4.027
  179SLPC  H16R20397   3.356   2.912   4.048
  179SLPC  H16S20398   3.476   2.813   4.015
  179SLPC  C21720399   3.397   2.774   4.159
  179SLPC  H17R20400   3.294   2.749   4.184
  179SLPC  H17S20401   3.438   2.874   4.200
  179SLPC  C21820402   3.505   2.667   4.148
  179SLPC  H18R20403   3.606   2.710   4.121
  179SLPC  H18S20404   3.478   2.588   4.075
  179SLPC  H18T20405   3.502   2.633   4.252
  179SLPC   C3320406   2.748   3.001   3.227
  179SLPC   H3X20407   2.668   3.044   3.179
  179SLPC   H3Y20408   2.793   3.043   3.312
  179SLPC   C3420409   2.817   2.819   3.324
  179SLPC   H4X20410   2.816   2.835   3.424
  179SLPC   H4Y20411   2.917   2.785   3.287
  179SLPC   C3520412   2.764   2.645   3.281
  179SLPC   H5X20413   2.771   2.605   3.170
  179SLPC   H5Y20414   2.645   2.646   3.280
  179SLPC   C3620415   2.741   2.535   3.347
  179SLPC   H6X20416   2.849   2.526   3.331
  179SLPC   H6Y20417   2.677   2.470   3.276
  179SLPC   C3720418   2.686   2.599   3.470
  179SLPC   H7X20419   2.583   2.644   3.469
  179SLPC   H7Y20420   2.751   2.681   3.508
  179SLPC   C3820421   2.697   2.480   3.550
  179SLPC   H8X20422   2.740   2.518   3.643
  179SLPC   H8Y20423   2.766   2.407   3.503
  179SLPC   C3920424   2.560   2.420   3.564
  179SLPC   H9X20425   2.499   2.408   3.472
  179SLPC   H9Y20426   2.512   2.499   3.619
  179SLPC  C31020427   2.551   2.315   3.670
  179SLPC  H10X20428   2.540   2.216   3.634
  179SLPC  H10Y20429   2.456   2.328   3.725
  179SLPC  C31120430   2.668   2.322   3.766
  179SLPC  H11X20431   2.663   2.427   3.799
  179SLPC  H11Y20432   2.770   2.302   3.726
  179SLPC  C31220433   2.646   2.247   3.893
  179SLPC  H12X20434   2.623   2.141   3.871
  179SLPC  H12Y20435   2.554   2.296   3.936
  179SLPC  C31320436   2.768   2.261   3.985
  179SLPC  H13X20437   2.865   2.232   3.944
  179SLPC  H13Y20438   2.760   2.209   4.079
  179SLPC  C31420439   2.777   2.397   4.043
  179SLPC  H14X20440   2.684   2.402   4.108
  179SLPC  H14Y20441   2.779   2.460   3.952
  179SLPC  C31520442   2.895   2.439   4.125
  179SLPC  H15X20443   2.872   2.538   4.175
  179SLPC  H15Y20444   2.980   2.461   4.057
  179SLPC  C31620445   2.927   2.323   4.218
  179SLPC  H16X20446   2.937   2.227   4.166
  179SLPC  H16Y20447   2.854   2.319   4.303
  179SLPC  C31720448   3.067   2.322   4.264
  179SLPC  H17X20449   3.030   2.412   4.305
  179SLPC  H17Y20450   3.144   2.379   4.208
  179SLPC  C31820451   3.110   2.213   4.371
  179SLPC  H18X20452   3.202   2.161   4.343
  179SLPC  H18Y20453   3.032   2.182   4.443
  179SLPC  H18Z20454   3.167   2.244   4.462
  180SLPC     N20455   2.022   3.454   2.699
  180SLPC   C1320456   1.907   3.495   2.783
  180SLPC  H13A20457   1.914   3.599   2.812
  180SLPC  H13B20458   1.817   3.482   2.724
  180SLPC  H13C20459   1.901   3.435   2.875
  180SLPC   C1420460   2.010   3.306   2.675
  180SLPC  H14A20461   2.107   3.269   2.640
  180SLPC  H14B20462   2.009   3.250   2.769
  180SLPC  H14C20463   1.932   3.275   2.608
  180SLPC   C1520464   2.143   3.490   2.773
  180SLPC  H15A20465   2.171   3.592   2.793
  180SLPC  H15B20466   2.121   3.446   2.870
  180SLPC  H15C20467   2.231   3.430   2.746
  180SLPC   C1220468   2.040   3.515   2.567
  180SLPC  H12A20469   2.115   3.454   2.517
  180SLPC  H12B20470   2.085   3.613   2.578
  180SLPC   C1120471   1.912   3.523   2.484
  180SLPC  H11A20472   1.942   3.560   2.383
  180SLPC  H11B20473   1.848   3.601   2.532
  180SLPC     P20474   1.708   3.392   2.386
  180SLPC   O1320475   1.702   3.510   2.298
  180SLPC   O1420476   1.698   3.259   2.326
  180SLPC   O1220477   1.840   3.399   2.478
  180SLPC   O1120478   1.584   3.393   2.486
  180SLPC    C120479   1.447   3.382   2.437
  180SLPC    HA20480   1.419   3.474   2.381
  180SLPC    HB20481   1.433   3.324   2.346
  180SLPC    C220482   1.342   3.368   2.561
  180SLPC    HS20483   1.244   3.421   2.510
  180SLPC   O2120484   1.394   3.427   2.723
  180SLPC   C2120485   1.411   3.568   2.803
  180SLPC   O2220486   1.352   3.673   2.789
  180SLPC   C2220487   1.525   3.589   2.868
  180SLPC   H2R20488   1.497   3.545   2.959
  180SLPC   H2S20489   1.616   3.546   2.812
  180SLPC    C320490   1.313   3.240   2.553
  180SLPC    HX20491   1.211   3.204   2.520
  180SLPC    HY20492   1.276   3.282   2.632
  180SLPC   O3120493   1.439   3.173   2.563
  180SLPC   C3120494   1.516   3.161   2.673
  180SLPC   O3220495   1.498   3.196   2.785
  180SLPC   C3220496   1.635   3.075   2.655
  180SLPC   H2X20497   1.695   3.147   2.598
  180SLPC   H2Y20498   1.611   2.989   2.594
  180SLPC   C2320499   1.516   3.745   2.874
  180SLPC   H3R20500   1.453   3.833   2.853
  180SLPC   H3S20501   1.567   3.723   2.772
  180SLPC   C2420502   1.526   3.855   2.985
  180SLPC   H4R20503   1.573   3.955   2.958
  180SLPC   H4S20504   1.621   3.867   2.993
  180SLPC   C2520505   1.491   3.804   3.123
  180SLPC   H5R20506   1.504   3.697   3.143
  180SLPC   H5S20507   1.394   3.827   3.108
  180SLPC   C2620508   1.523   3.875   3.248
  180SLPC   H6R20509   1.519   3.985   3.246
  180SLPC   H6S20510   1.622   3.830   3.280
  180SLPC   C2720511   1.462   3.854   3.372
  180SLPC   H7R20512   1.358   3.871   3.346
  180SLPC   H7S20513   1.499   3.939   3.439
  180SLPC   C2820514   1.509   3.714   3.382
  180SLPC   H8R20515   1.612   3.672   3.389
  180SLPC   H8S20516   1.436   3.660   3.319
  180SLPC   C2920517   1.440   3.732   3.489
  180SLPC   H9R20518   1.452   3.808   3.576
  180SLPC  C21020519   1.474   3.636   3.545
  180SLPC  H10R20520   1.352   3.627   3.573
  180SLPC  C21120521   1.548   3.457   3.569
  180SLPC  H11R20522   1.639   3.427   3.538
  180SLPC  H11S20523   1.523   3.525   3.498
  180SLPC  C21220524   1.449   3.324   3.666
  180SLPC  H12R20525   1.313   3.341   3.665
  180SLPC  C21320526   1.445   3.267   3.761
  180SLPC  H13R20527   1.341   3.248   3.778
  180SLPC  C21420528   1.544   3.282   3.855
  180SLPC  H14R20529   1.503   3.323   3.951
  180SLPC  H14S20530   1.615   3.350   3.808
  180SLPC  C21520531   1.619   3.169   3.870
  180SLPC  H15R20532   1.635   3.098   3.794
  180SLPC  H15S20533   1.548   3.096   3.886
  180SLPC  C21620534   1.711   3.197   3.981
  180SLPC  H16R20535   1.746   3.110   4.031
  180SLPC  H16S20536   1.669   3.233   4.076
  180SLPC  C21720537   1.821   3.268   3.924
  180SLPC  H17R20538   1.766   3.366   3.917
  180SLPC  H17S20539   1.820   3.225   3.824
  180SLPC  C21820540   1.937   3.227   4.017
  180SLPC  H18R20541   2.035   3.269   4.000
  180SLPC  H18S20542   1.909   3.157   4.100
  180SLPC  H18T20543   1.947   3.289   4.102
  180SLPC   C3320544   1.700   3.022   2.789
  180SLPC   H3X20545   1.792   2.970   2.756
  180SLPC   H3Y20546   1.640   2.947   2.845
  180SLPC   C3420547   1.739   3.128   2.894
  180SLPC   H4X20548   1.648   3.176   2.936
  180SLPC   H4Y20549   1.803   3.205   2.846
  180SLPC   C3520550   1.809   3.074   3.019
  180SLPC   H5X20551   1.900   3.022   2.981
  180SLPC   H5Y20552   1.743   3.000   3.069
  180SLPC   C3620553   1.857   3.183   3.118
  180SLPC   H6X20554   1.917   3.253   3.057
  180SLPC   H6Y20555   1.922   3.133   3.191
  180SLPC   C3720556   1.749   3.262   3.194
  180SLPC   H7X20557   1.684   3.191   3.250
  180SLPC   H7Y20558   1.689   3.312   3.114
  180SLPC   C3820559   1.796   3.379   3.286
  180SLPC   H8X20560   1.705   3.434   3.314
  180SLPC   H8Y20561   1.852   3.455   3.229
  180SLPC   C3920562   1.861   3.340   3.420
  180SLPC   H9X20563   1.932   3.259   3.405
  180SLPC   H9Y20564   1.780   3.299   3.486
  180SLPC  C31020565   1.946   3.449   3.489
  180SLPC  H10X20566   2.007   3.504   3.415
  180SLPC  H10Y20567   2.015   3.397   3.561
  180SLPC  C31120568   1.873   3.549   3.577
  180SLPC  H11X20569   1.811   3.484   3.644
  180SLPC  H11Y20570   1.802   3.614   3.520
  180SLPC  C31220571   1.972   3.632   3.660
  180SLPC  H12X20572   2.035   3.702   3.601
  180SLPC  H12Y20573   2.037   3.568   3.723
  180SLPC  C31320574   1.901   3.718   3.758
  180SLPC  H13X20575   1.842   3.780   3.696
  180SLPC  H13Y20576   1.964   3.779   3.825
  180SLPC  C31420577   1.807   3.638   3.841
  180SLPC  H14X20578   1.871   3.583   3.910
  180SLPC  H14Y20579   1.735   3.580   3.787
  180SLPC  C31520580   1.719   3.716   3.926
  180SLPC  H15X20581   1.648   3.792   3.892
  180SLPC  H15Y20582   1.805   3.778   3.954
  180SLPC  C31620583   1.627   3.641   4.039
  180SLPC  H16X20584   1.610   3.545   4.010
  180SLPC  H16Y20585   1.565   3.718   4.025
  180SLPC  C31720586   1.504   3.719   4.151
  180SLPC  H17X20587   1.465   3.823   4.128
  180SLPC  H17Y20588   1.531   3.797   4.230
  180SLPC  C31820589   1.450   3.633   4.252
  180SLPC  H18X20590   1.399   3.557   4.191
  180SLPC  H18Y20591   1.382   3.704   4.307
  180SLPC  H18Z20592   1.520   3.580   4.316
  181SLPC     N20593   1.669   2.138   2.399
  181SLPC   C1320594   1.668   2.037   2.286
  181SLPC  H13A20595   1.630   1.941   2.320
  181SLPC  H13B20596   1.608   2.069   2.203
  181SLPC  H13C20597   1.769   2.021   2.248
  181SLPC   C1420598   1.731   2.265   2.357
  181SLPC  H14A20599   1.831   2.255   2.317
  181SLPC  H14B20600   1.675   2.313   2.278
  181SLPC  H14C20601   1.742   2.341   2.435
  181SLPC   C1520602   1.750   2.081   2.511
  181SLPC  H15A20603   1.746   2.143   2.600
  181SLPC  H15B20604   1.705   1.987   2.542
  181SLPC  H15C20605   1.852   2.062   2.483
  181SLPC   C1220606   1.529   2.177   2.445
  181SLPC  H12A20607   1.485   2.241   2.370
  181SLPC  H12B20608   1.539   2.241   2.533
  181SLPC   C1120609   1.428   2.065   2.476
  181SLPC  H11A20610   1.405   2.016   2.379
  181SLPC  H11B20611   1.334   2.110   2.517
  181SLPC     P20612   1.475   1.988   2.723
  181SLPC   O1320613   1.605   1.946   2.777
  181SLPC   O1420614   1.426   2.123   2.759
  181SLPC   O1220615   1.483   1.970   2.565
  181SLPC   O1120616   1.363   1.882   2.758
  181SLPC    C120617   1.226   1.922   2.754
  181SLPC    HA20618   1.209   2.021   2.706
  181SLPC    HB20619   1.172   1.848   2.692
  181SLPC    C220620   1.163   1.935   2.895
  181SLPC    HS20621   1.062   1.972   2.889
  181SLPC   O2120622   1.235   2.018   2.983
  181SLPC   C2120623   1.212   2.141   2.985
  181SLPC   O2220624   1.128   2.206   2.925
  181SLPC   C2220625   1.311   2.197   3.087
  181SLPC   H2R20626   1.405   2.141   3.083
  181SLPC   H2S20627   1.317   2.301   3.048
  181SLPC    C320628   1.148   1.805   2.966
  181SLPC    HX20629   1.103   1.721   2.906
  181SLPC    HY20630   1.084   1.823   3.055
  181SLPC   O3120631   1.284   1.782   2.995
  181SLPC   C3120632   1.302   1.723   3.101
  181SLPC   O3220633   1.217   1.712   3.191
  181SLPC   C3220634   1.446   1.666   3.083
  181SLPC   H2X20635   1.470   1.568   3.039
  181SLPC   H2Y20636   1.489   1.641   3.179
  181SLPC   C2320637   1.281   2.193   3.240
  181SLPC   H3R20638   1.192   2.232   3.218
  181SLPC   H3S20639   1.309   2.281   3.299
  181SLPC   C2420640   1.239   2.061   3.309
  181SLPC   H4R20641   1.331   2.006   3.314
  181SLPC   H4S20642   1.160   2.011   3.248
  181SLPC   C2520643   1.180   2.069   3.449
  181SLPC   H5R20644   1.072   2.092   3.430
  181SLPC   H5S20645   1.236   2.146   3.507
  181SLPC   C2620646   1.167   1.952   3.545
  181SLPC   H6R20647   1.108   1.981   3.638
  181SLPC   H6S20648   1.266   1.914   3.571
  181SLPC   C2720649   1.093   1.845   3.476
  181SLPC   H7R20650   1.128   1.820   3.376
  181SLPC   H7S20651   1.014   1.908   3.442
  181SLPC   C2820652   1.073   1.717   3.558
  181SLPC   H8R20653   1.177   1.698   3.592
  181SLPC   H8S20654   1.043   1.637   3.486
  181SLPC   C2920655   0.978   1.717   3.675
  181SLPC   H9R20656   0.881   1.758   3.662
  181SLPC  C21020657   0.995   1.673   3.797
  181SLPC  H10R20658   0.919   1.675   3.875
  181SLPC  C21120659   1.117   1.612   3.840
  181SLPC  H11R20660   1.149   1.549   3.758
  181SLPC  H11S20661   1.078   1.542   3.918
  181SLPC  C21220662   1.238   1.687   3.885
  181SLPC  H12R20663   1.324   1.690   3.816
  181SLPC  C21320664   1.251   1.733   4.008
  181SLPC  H13R20665   1.344   1.778   4.043
  181SLPC  C21420666   1.149   1.716   4.115
  181SLPC  H14R20667   1.053   1.672   4.074
  181SLPC  H14S20668   1.124   1.809   4.167
  181SLPC  C21520669   1.212   1.636   4.226
  181SLPC  H15R20670   1.307   1.586   4.221
  181SLPC  H15S20671   1.140   1.559   4.210
  181SLPC  C21620672   1.238   1.691   4.364
  181SLPC  H16R20673   1.144   1.725   4.412
  181SLPC  H16S20674   1.298   1.779   4.343
  181SLPC  C21720675   1.320   1.597   4.460
  181SLPC  H17R20676   1.317   1.649   4.556
  181SLPC  H17S20677   1.425   1.589   4.422
  181SLPC  C21820678   1.286   1.451   4.500
  181SLPC  H18R20679   1.310   1.395   4.408
  181SLPC  H18S20680   1.191   1.431   4.554
  181SLPC  H18T20681   1.328   1.388   4.578
  181SLPC   C3320682   1.534   1.772   3.051
  181SLPC   H3X20683   1.497   1.813   2.958
  181SLPC   H3Y20684   1.629   1.729   3.018
  181SLPC   C3420685   1.541   1.852   3.181
  181SLPC   H4X20686   1.561   1.794   3.276
  181SLPC   H4Y20687   1.445   1.897   3.206
  181SLPC   C3520688   1.656   1.942   3.154
  181SLPC   H5X20689   1.636   1.999   3.063
  181SLPC   H5Y20690   1.739   1.878   3.116
  181SLPC   C3620691   1.695   2.033   3.267
  181SLPC   H6X20692   1.772   2.104   3.232
  181SLPC   H6Y20693   1.735   1.993   3.359
  181SLPC   C3720694   1.585   2.096   3.336
  181SLPC   H7X20695   1.524   2.016   3.385
  181SLPC   H7Y20696   1.531   2.152   3.257
  181SLPC   C3820697   1.643   2.181   3.444
  181SLPC   H8X20698   1.706   2.264   3.404
  181SLPC   H8Y20699   1.698   2.129   3.525
  181SLPC   C3920700   1.524   2.234   3.508
  181SLPC   H9X20701   1.442   2.168   3.542
  181SLPC   H9Y20702   1.480   2.280   3.419
  181SLPC  C31020703   1.577   2.325   3.612
  181SLPC  H10X20704   1.482   2.353   3.653
  181SLPC  H10Y20705   1.645   2.401   3.566
  181SLPC  C31120706   1.639   2.291   3.742
  181SLPC  H11X20707   1.646   2.381   3.809
  181SLPC  H11Y20708   1.739   2.260   3.709
  181SLPC  C31220709   1.560   2.181   3.808
  181SLPC  H12X20710   1.637   2.136   3.873
  181SLPC  H12Y20711   1.528   2.109   3.729
  181SLPC  C31320712   1.437   2.224   3.889
  181SLPC  H13X20713   1.356   2.245   3.819
  181SLPC  H13Y20714   1.456   2.315   3.950
  181SLPC  C31420715   1.395   2.115   3.987
  181SLPC  H14X20716   1.487   2.095   4.048
  181SLPC  H14Y20717   1.370   2.019   3.938
  181SLPC  C31520718   1.294   2.154   4.093
  181SLPC  H15X20719   1.337   2.233   4.160
  181SLPC  H15Y20720   1.255   2.061   4.134
  181SLPC  C31620721   1.154   2.197   4.079
  181SLPC  H16X20722   1.184   2.305   4.057
  181SLPC  H16Y20723   1.099   2.211   4.172
  181SLPC  C31720724   1.064   2.117   3.981
  181SLPC  H17X20725   1.119   2.100   3.884
  181SLPC  H17Y20726   0.967   2.180   3.972
  181SLPC  C31820727   0.985   2.001   3.992
  181SLPC  H18X20728   1.065   1.929   4.000
  181SLPC  H18Y20729   0.926   1.993   3.894
  181SLPC  H18Z20730   0.920   2.028   4.078
  182SLPC     N20731   2.355   6.012   2.617
  182SLPC   C1320732   2.218   6.065   2.584
  182SLPC  H13A20733   2.215   6.172   2.606
  182SLPC  H13B20734   2.197   6.055   2.479
  182SLPC  H13C20735   2.137   6.020   2.641
  182SLPC   C1420736   2.368   5.874   2.570
  182SLPC  H14A20737   2.385   5.862   2.464
  182SLPC  H14B20738   2.441   5.815   2.625
  182SLPC  H14C20739   2.273   5.822   2.584
  182SLPC   C1520740   2.379   6.020   2.765
  182SLPC  H15A20741   2.344   5.932   2.817
  182SLPC  H15B20742   2.485   6.034   2.785
  182SLPC  H15C20743   2.328   6.106   2.806
  182SLPC   C1220744   2.469   6.082   2.548
  182SLPC  H12A20745   2.468   6.060   2.442
  182SLPC  H12B20746   2.558   6.037   2.589
  182SLPC   C1120747   2.487   6.234   2.561
  182SLPC  H11A20748   2.580   6.258   2.503
  182SLPC  H11B20749   2.499   6.263   2.667
  182SLPC     P20750   2.394   6.458   2.472
  182SLPC   O1320751   2.426   6.480   2.330
  182SLPC   O1420752   2.270   6.523   2.521
  182SLPC   O1220753   2.378   6.302   2.506
  182SLPC   O1120754   2.519   6.511   2.559
  182SLPC    C120755   2.501   6.597   2.672
  182SLPC    HA20756   2.475   6.701   2.643
  182SLPC    HB20757   2.420   6.555   2.736
  182SLPC    C220758   2.623   6.608   2.769
  182SLPC    HS20759   2.708   6.668   2.727
  182SLPC   O2120760   2.669   6.480   2.802
  182SLPC   C2120761   2.742   6.420   2.716
  182SLPC   O2220762   2.799   6.467   2.619
  182SLPC   C2220763   2.755   6.283   2.787
  182SLPC   H2R20764   2.663   6.233   2.811
  182SLPC   H2S20765   2.775   6.205   2.726
  182SLPC    C320766   2.582   6.673   2.901
  182SLPC    HX20767   2.551   6.777   2.878
  182SLPC    HY20768   2.672   6.673   2.962
  182SLPC   O3120769   2.482   6.596   2.970
  182SLPC   C3120770   2.379   6.660   3.022
  182SLPC   O3220771   2.362   6.781   3.023
  182SLPC   C3220772   2.284   6.553   3.074
  182SLPC   H2X20773   2.196   6.599   3.122
  182SLPC   H2Y20774   2.341   6.495   3.150
  182SLPC   C2320775   2.869   6.258   2.882
  182SLPC   H3R20776   2.961   6.319   2.884
  182SLPC   H3S20777   2.903   6.151   2.879
  182SLPC   C2420778   2.800   6.315   2.988
  182SLPC   H4R20779   2.707   6.261   3.010
  182SLPC   H4S20780   2.805   6.427   2.987
  182SLPC   C2520781   2.869   6.293   3.095
  182SLPC   H5R20782   2.976   6.329   3.073
  182SLPC   H5S20783   2.909   6.182   3.089
  182SLPC   C2620784   2.789   6.377   3.228
  182SLPC   H6R20785   2.816   6.477   3.248
  182SLPC   H6S20786   2.829   6.377   3.341
  182SLPC   C2720787   2.662   6.323   3.273
  182SLPC   H7R20788   2.679   6.231   3.212
  182SLPC   H7S20789   2.591   6.386   3.221
  182SLPC   C2820790   2.649   6.321   3.430
  182SLPC   H8R20791   2.731   6.291   3.495
  182SLPC   H8S20792   2.568   6.250   3.447
  182SLPC   C2920793   2.635   6.455   3.487
  182SLPC   H9R20794   2.555   6.500   3.434
  182SLPC  C21020795   2.707   6.523   3.578
  182SLPC  H10R20796   2.696   6.631   3.584
  182SLPC  C21120797   2.829   6.479   3.651
  182SLPC  H11R20798   2.894   6.566   3.679
  182SLPC  H11S20799   2.883   6.403   3.591
  182SLPC  C21220800   2.813   6.417   3.777
  182SLPC  H12R20801   2.841   6.314   3.772
  182SLPC  C21320802   2.763   6.475   3.883
  182SLPC  H13R20803   2.777   6.426   3.980
  182SLPC  C21420804   2.716   6.616   3.876
  182SLPC  H14R20805   2.606   6.608   3.867
  182SLPC  H14S20806   2.754   6.672   3.789
  182SLPC  C21520807   2.757   6.689   4.001
  182SLPC  H15R20808   2.742   6.798   3.988
  182SLPC  H15S20809   2.865   6.671   4.024
  182SLPC  C21620810   2.661   6.639   4.107
  182SLPC  H16R20811   2.683   6.533   4.135
  182SLPC  H16S20812   2.557   6.657   4.077
  182SLPC  C21720813   2.663   6.713   4.230
  182SLPC  H17R20814   2.596   6.683   4.308
  182SLPC  H17S20815   2.656   6.824   4.216
  182SLPC  C21820816   2.785   6.663   4.279
  182SLPC  H18R20817   2.760   6.709   4.376
  182SLPC  H18S20818   2.868   6.717   4.226
  182SLPC  H18T20819   2.815   6.581   4.345
  182SLPC   C3320820   2.233   6.462   2.959
  182SLPC   H3X20821   2.316   6.402   2.915
  182SLPC   H3Y20822   2.194   6.529   2.878
  182SLPC   C3420823   2.118   6.368   3.003
  182SLPC   H4X20824   2.082   6.309   2.916
  182SLPC   H4Y20825   2.034   6.431   3.036
  182SLPC   C3520826   2.158   6.271   3.114
  182SLPC   H5X20827   2.213   6.324   3.195
  182SLPC   H5Y20828   2.224   6.190   3.074
  182SLPC   C3620829   2.043   6.206   3.189
  182SLPC   H6X20830   1.995   6.141   3.114
  182SLPC   H6Y20831   1.965   6.278   3.224
  182SLPC   C3720832   2.099   6.131   3.311
  182SLPC   H7X20833   2.193   6.084   3.277
  182SLPC   H7Y20834   2.037   6.048   3.351
  182SLPC   C3820835   2.127   6.225   3.429
  182SLPC   H8X20836   2.032   6.278   3.454
  182SLPC   H8Y20837   2.202   6.300   3.396
  182SLPC   C3920838   2.195   6.161   3.549
  182SLPC   H9X20839   2.125   6.096   3.606
  182SLPC   H9Y20840   2.226   6.244   3.617
  182SLPC  C31020841   2.320   6.082   3.512
  182SLPC  H10X20842   2.399   6.144   3.463
  182SLPC  H10Y20843   2.295   6.003   3.438
  182SLPC  C31120844   2.380   6.014   3.633
  182SLPC  H11X20845   2.456   5.955   3.585
  182SLPC  H11Y20846   2.315   5.939   3.681
  182SLPC  C31220847   2.443   6.111   3.734
  182SLPC  H12X20848   2.371   6.190   3.764
  182SLPC  H12Y20849   2.525   6.165   3.685
  182SLPC  C31320850   2.501   6.037   3.855
  182SLPC  H13X20851   2.583   5.973   3.817
  182SLPC  H13Y20852   2.425   5.968   3.899
  182SLPC  C31420853   2.550   6.132   3.965
  182SLPC  H14X20854   2.605   6.218   3.919
  182SLPC  H14Y20855   2.619   6.080   4.035
  182SLPC  C31520856   2.436   6.181   4.052
  182SLPC  H15X20857   2.402   6.098   4.117
  182SLPC  H15Y20858   2.349   6.219   3.994
  182SLPC  C31620859   2.487   6.285   4.146
  182SLPC  H16X20860   2.544   6.365   4.091
  182SLPC  H16Y20861   2.557   6.237   4.217
  182SLPC  C31720862   2.373   6.352   4.215
  182SLPC  H17X20863   2.341   6.297   4.307
  182SLPC  H17Y20864   2.282   6.364   4.153
  182SLPC  C31820865   2.435   6.486   4.226
  182SLPC  H18X20866   2.390   6.577   4.184
  182SLPC  H18Y20867   2.534   6.479   4.278
  182SLPC  H18Z20868   2.385   6.542   4.293
  183SLPC     N20869   7.379   4.345   2.676
  183SLPC   C1320870   7.401   4.487   2.638
  183SLPC  H13A20871   7.334   4.513   2.555
  183SLPC  H13B20872   7.383   4.555   2.720
  183SLPC  H13C20873   7.503   4.499   2.603
  183SLPC   C1420874   7.430   4.324   2.815
  183SLPC  H14A20875   7.536   4.338   2.819
  183SLPC  H14B20876   7.384   4.394   2.883
  183SLPC  H14C20877   7.406   4.224   2.848
  183SLPC   C1520878   7.459   4.267   2.577
  183SLPC  H15A20879   7.446   4.161   2.591
  183SLPC  H15B20880   7.424   4.294   2.477
  183SLPC  H15C20881   7.565   4.289   2.583
  183SLPC   C1220882   7.231   4.312   2.671
  183SLPC  H12A20883   7.177   4.396   2.715
  183SLPC  H12B20884   7.212   4.228   2.737
  183SLPC   C1120885   7.164   4.284   2.534
  183SLPC  H11A20886   7.056   4.259   2.552
  183SLPC  H11B20887   7.205   4.195   2.481
  183SLPC     P20888   7.067   4.504   2.433
  183SLPC   O1320889   7.104   4.570   2.307
  183SLPC   O1420890   6.937   4.439   2.447
  183SLPC   O1220891   7.179   4.395   2.448
  183SLPC   O1120892   7.097   4.598   2.544
  183SLPC    C120893   7.169   4.718   2.504
  183SLPC    HA20894   7.275   4.716   2.537
  183SLPC    HB20895   7.140   4.769   2.409
  183SLPC    C220896   7.117   4.822   2.582
  183SLPC    HS20897   7.150   4.926   2.581
  183SLPC   O2120898   7.128   4.746   2.717
  183SLPC   C2120899   7.225   4.731   2.803
  183SLPC   O2220900   7.340   4.761   2.776
  183SLPC   C2220901   7.175   4.669   2.949
  183SLPC   H2R20902   7.066   4.657   2.961
  183SLPC   H2S20903   7.227   4.575   2.962
  183SLPC    C320904   6.960   4.865   2.512
  183SLPC    HX20905   6.946   4.921   2.422
  183SLPC    HY20906   6.967   4.974   2.558
  183SLPC   O3120907   6.833   4.773   2.531
  183SLPC   C3120908   6.752   4.722   2.632
  183SLPC   O3220909   6.714   4.788   2.729
  183SLPC   C3220910   6.712   4.538   2.630
  183SLPC   H2X20911   6.766   4.516   2.553
  183SLPC   H2Y20912   6.636   4.593   2.616
  183SLPC   C2320913   7.214   4.740   3.082
  183SLPC   H3R20914   7.143   4.826   3.106
  183SLPC   H3S20915   7.320   4.766   3.061
  183SLPC   C2420916   7.211   4.693   3.221
  183SLPC   H4R20917   7.220   4.783   3.290
  183SLPC   H4S20918   7.299   4.628   3.227
  183SLPC   C2520919   7.077   4.635   3.240
  183SLPC   H5R20920   7.079   4.589   3.340
  183SLPC   H5S20921   7.057   4.557   3.162
  183SLPC   C2620922   6.971   4.742   3.228
  183SLPC   H6R20923   6.959   4.765   3.119
  183SLPC   H6S20924   6.982   4.829   3.296
  183SLPC   C2720925   6.844   4.686   3.259
  183SLPC   H7R20926   6.870   4.586   3.220
  183SLPC   H7S20927   6.766   4.710   3.186
  183SLPC   C2820928   6.808   4.689   3.407
  183SLPC   H8R20929   6.864   4.611   3.462
  183SLPC   H8S20930   6.717   4.639   3.427
  183SLPC   C2920931   6.771   4.822   3.464
  183SLPC   H9R20932   6.674   4.867   3.440
  183SLPC  C21020933   6.826   4.875   3.565
  183SLPC  H10R20934   6.783   4.968   3.603
  183SLPC  C21120935   6.936   4.804   3.632
  183SLPC  H11R20936   6.971   4.710   3.584
  183SLPC  H11S20937   6.901   4.779   3.733
  183SLPC  C21220938   7.048   4.898   3.627
  183SLPC  H12R20939   7.086   4.930   3.529
  183SLPC  C21320940   7.097   4.949   3.736
  183SLPC  H13R20941   7.171   5.017   3.725
  183SLPC  C21420942   7.063   4.932   3.878
  183SLPC  H14R20943   7.146   4.961   3.948
  183SLPC  H14S20944   7.018   4.837   3.901
  183SLPC  C21520945   6.938   5.008   3.886
  183SLPC  H15R20946   6.859   5.023   3.815
  183SLPC  H15S20947   6.963   5.103   3.873
  183SLPC  C21620948   6.889   5.030   4.014
  183SLPC  H16R20949   6.818   5.109   4.006
  183SLPC  H16S20950   6.954   5.087   4.060
  183SLPC  C21720951   6.902   4.928   4.107
  183SLPC  H17R20952   6.886   4.958   4.204
  183SLPC  H17S20953   7.007   4.909   4.132
  183SLPC  C21820954   6.801   4.836   4.055
  183SLPC  H18R20955   6.723   4.893   4.006
  183SLPC  H18S20956   6.749   4.774   4.128
  183SLPC  H18T20957   6.851   4.777   3.981
  183SLPC   C3320958   6.715   4.395   2.789
  183SLPC   H3X20959   6.626   4.336   2.811
  183SLPC   H3Y20960   6.687   4.449   2.893
  183SLPC   C3420961   6.879   4.369   2.866
  183SLPC   H4X20962   6.959   4.460   2.904
  183SLPC   H4Y20963   6.961   4.361   2.792
  183SLPC   C3520964   6.844   4.330   2.986
  183SLPC   H5X20965   6.762   4.260   2.958
  183SLPC   H5Y20966   6.817   4.420   3.043
  183SLPC   C3620967   6.969   4.285   3.018
  183SLPC   H6X20968   7.051   4.359   3.023
  183SLPC   H6Y20969   6.992   4.203   2.943
  183SLPC   C3720970   6.951   4.268   3.155
  183SLPC   H7X20971   6.882   4.174   3.125
  183SLPC   H7Y20972   6.865   4.287   3.222
  183SLPC   C3820973   7.118   4.279   3.201
  183SLPC   H8X20974   7.193   4.252   3.126
  183SLPC   H8Y20975   7.167   4.206   3.276
  183SLPC   C3920976   7.166   4.369   3.297
  183SLPC   H9X20977   7.059   4.391   3.325
  183SLPC   H9Y20978   7.195   4.422   3.205
  183SLPC  C31020979   7.266   4.297   3.401
  183SLPC  H10X20980   7.347   4.244   3.344
  183SLPC  H10Y20981   7.229   4.209   3.464
  183SLPC  C31120982   7.293   4.397   3.496
  183SLPC  H11X20983   7.334   4.474   3.426
  183SLPC  H11Y20984   7.366   4.346   3.560
  183SLPC  C31220985   7.169   4.447   3.570
  183SLPC  H12X20986   7.117   4.367   3.627
  183SLPC  H12Y20987   7.092   4.485   3.501
  183SLPC  C31320988   7.213   4.568   3.653
  183SLPC  H13X20989   7.125   4.623   3.692
  183SLPC  H13Y20990   7.264   4.637   3.581
  183SLPC  C31420991   7.294   4.534   3.779
  183SLPC  H14X20992   7.381   4.470   3.757
  183SLPC  H14Y20993   7.227   4.476   3.846
  183SLPC  C31520994   7.346   4.657   3.854
  183SLPC  H15X20995   7.266   4.725   3.890
  183SLPC  H15Y20996   7.404   4.712   3.778
  183SLPC  C31620997   7.430   4.619   3.977
  183SLPC  H16X20998   7.374   4.552   4.047
  183SLPC  H16Y20999   7.452   4.707   4.038
  183SLPC  C31721000   7.564   4.563   3.934
  183SLPC  H17X21001   7.645   4.629   3.972
  183SLPC  H17Y21002   7.567   4.570   3.823
  183SLPC  C31821003   7.592   4.420   3.977
  183SLPC  H18X21004   7.545   4.342   3.914
  183SLPC  H18Y21005   7.582   4.402   4.086
  183SLPC  H18Z21006   7.697   4.406   3.961
  184SLPC     N21007   6.687   5.769   2.435
  184SLPC   C1321008   6.768   5.772   2.313
  184SLPC  H13A21009   6.845   5.845   2.330
  184SLPC  H13B21010   6.806   5.673   2.297
  184SLPC  H13C21011   6.706   5.798   2.227
  184SLPC   C1421012   6.593   5.668   2.414
  184SLPC  H14A21013   6.523   5.664   2.500
  184SLPC  H14B21014   6.525   5.695   2.333
  184SLPC  H14C21015   6.618   5.563   2.397
  184SLPC   C1521016   6.623   5.904   2.457
  184SLPC  H15A21017   6.541   5.931   2.392
  184SLPC  H15B21018   6.577   5.894   2.554
  184SLPC  H15C21019   6.696   5.981   2.479
  184SLPC   C1221020   6.748   5.719   2.562
  184SLPC  H12A21021   6.760   5.613   2.555
  184SLPC  H12B21022   6.680   5.737   2.646
  184SLPC   C1121023   6.876   5.781   2.597
  184SLPC  H11A21024   6.944   5.771   2.507
  184SLPC  H11B21025   6.924   5.724   2.681
  184SLPC     P21026   6.972   5.996   2.633
  184SLPC   O1321027   7.058   5.903   2.712
  184SLPC   O1421028   7.013   6.022   2.493
  184SLPC   O1221029   6.840   5.916   2.632
  184SLPC   O1121030   6.946   6.138   2.709
  184SLPC    C121031   7.012   6.269   2.698
  184SLPC    HA21032   7.111   6.275   2.731
  184SLPC    HB21033   7.027   6.308   2.597
  184SLPC    C221034   6.981   6.380   2.797
  184SLPC    HS21035   7.076   6.435   2.832
  184SLPC   O2121036   6.907   6.316   2.900
  184SLPC   C2121037   6.864   6.404   2.985
  184SLPC   O2221038   6.892   6.522   2.975
  184SLPC   C2221039   6.820   6.325   3.110
  184SLPC   H2R21040   6.818   6.217   3.097
  184SLPC   H2S21041   6.893   6.320   3.188
  184SLPC    C321042   6.900   6.466   2.711
  184SLPC    HX21043   6.969   6.510   2.634
  184SLPC    HY21044   6.851   6.551   2.762
  184SLPC   O3121045   6.809   6.371   2.650
  184SLPC   C3121046   6.690   6.362   2.700
  184SLPC   O3221047   6.644   6.438   2.784
  184SLPC   C3221048   6.622   6.245   2.635
  184SLPC   H2X21049   6.696   6.165   2.612
  184SLPC   H2Y21050   6.574   6.281   2.542
  184SLPC   C2321051   6.709   6.404   3.173
  184SLPC   H3R21052   6.635   6.408   3.093
  184SLPC   H3S21053   6.736   6.510   3.173
  184SLPC   C2421054   6.638   6.356   3.301
  184SLPC   H4R21055   6.596   6.258   3.281
  184SLPC   H4S21056   6.561   6.434   3.323
  184SLPC   C2521057   6.703   6.328   3.432
  184SLPC   H5R21058   6.800   6.268   3.432
  184SLPC   H5S21059   6.638   6.324   3.522
  184SLPC   C2621060   6.744   6.452   3.478
  184SLPC   H6R21061   6.819   6.454   3.393
  184SLPC   H6S21062   6.823   6.428   3.549
  184SLPC   C2721063   6.648   6.584   3.523
  184SLPC   H7R21064   6.560   6.555   3.561
  184SLPC   H7S21065   6.603   6.630   3.436
  184SLPC   C2821066   6.690   6.737   3.569
  184SLPC   H8R21067   6.780   6.802   3.530
  184SLPC   H8S21068   6.722   6.734   3.664
  184SLPC   C2921069   6.639   6.829   3.643
  184SLPC   H9R21070   6.642   6.892   3.554
  184SLPC  C21021071   6.548   6.841   3.737
  184SLPC  H10R21072   6.498   6.928   3.732
  184SLPC  C21121073   6.464   6.743   3.796
  184SLPC  H11R21074   6.535   6.667   3.764
  184SLPC  H11S21075   6.377   6.697   3.751
  184SLPC  C21221076   6.427   6.828   3.915
  184SLPC  H12R21077   6.403   6.932   3.898
  184SLPC  C21321078   6.446   6.813   4.039
  184SLPC  H13R21079   6.413   6.869   4.124
  184SLPC  C21421080   6.508   6.705   4.080
  184SLPC  H14R21081   6.446   6.618   4.045
  184SLPC  H14S21082   6.450   6.691   4.174
  184SLPC  C21521083   6.676   6.703   4.064
  184SLPC  H15R21084   6.712   6.685   3.963
  184SLPC  H15S21085   6.734   6.622   4.114
  184SLPC  C21621086   6.780   6.770   4.139
  184SLPC  H16R21087   6.743   6.785   4.240
  184SLPC  H16S21088   6.765   6.844   4.067
  184SLPC  C21721089   6.913   6.695   4.128
  184SLPC  H17R21090   6.918   6.625   4.214
  184SLPC  H17S21091   6.986   6.775   4.140
  184SLPC  C21821092   6.927   6.613   3.996
  184SLPC  H18R21093   6.911   6.695   3.926
  184SLPC  H18S21094   6.911   6.505   3.989
  184SLPC  H18T21095   7.019   6.585   3.941
  184SLPC   C3321096   6.517   6.191   2.731
  184SLPC   H3X21097   6.461   6.114   2.673
  184SLPC   H3Y21098   6.443   6.271   2.753
  184SLPC   C3421099   6.584   6.137   2.861
  184SLPC   H4X21100   6.522   6.164   2.950
  184SLPC   H4Y21101   6.691   6.159   2.871
  184SLPC   C3521102   6.599   5.988   2.859
  184SLPC   H5X21103   6.618   5.935   2.763
  184SLPC   H5Y21104   6.494   6.006   2.848
  184SLPC   C3621105   6.634   5.909   2.989
  184SLPC   H6X21106   6.606   5.802   2.993
  184SLPC   H6Y21107   6.580   5.949   3.078
  184SLPC   C3721108   6.783   5.909   3.008
  184SLPC   H7X21109   6.814   6.016   3.016
  184SLPC   H7Y21110   6.831   5.870   2.916
  184SLPC   C3821111   6.829   5.821   3.124
  184SLPC   H8X21112   6.786   5.719   3.114
  184SLPC   H8Y21113   6.802   5.865   3.222
  184SLPC   C3921114   6.979   5.802   3.123
  184SLPC   H9X21115   7.011   5.772   3.020
  184SLPC   H9Y21116   7.013   5.726   3.194
  184SLPC  C31021117   7.047   5.931   3.163
  184SLPC  H10X21118   6.995   5.992   3.089
  184SLPC  H10Y21119   7.157   5.934   3.153
  184SLPC  C31121120   7.020   5.995   3.298
  184SLPC  H11X21121   6.999   5.905   3.357
  184SLPC  H11Y21122   6.929   6.055   3.286
  184SLPC  C31221123   7.131   6.082   3.364
  184SLPC  H12X21124   7.162   6.180   3.328
  184SLPC  H12Y21125   7.228   6.029   3.356
  184SLPC  C31321126   7.076   6.146   3.492
  184SLPC  H13X21127   6.980   6.193   3.478
  184SLPC  H13Y21128   7.151   6.221   3.529
  184SLPC  C31421129   7.003   6.051   3.588
  184SLPC  H14X21130   7.101   6.038   3.585
  184SLPC  H14Y21131   6.969   5.952   3.554
  184SLPC  C31521132   7.019   6.056   3.738
  184SLPC  H15X21133   7.065   5.968   3.792
  184SLPC  H15Y21134   6.911   6.044   3.748
  184SLPC  C31621135   7.084   6.185   3.780
  184SLPC  H16X21136   7.047   6.270   3.719
  184SLPC  H16Y21137   7.195   6.182   3.766
  184SLPC  C31721138   7.058   6.209   3.925
  184SLPC  H17X21139   7.025   6.115   3.975
  184SLPC  H17Y21140   6.975   6.283   3.931
  184SLPC  C31821141   7.182   6.263   3.991
  184SLPC  H18X21142   7.274   6.202   3.985
  184SLPC  H18Y21143   7.163   6.284   4.098
  184SLPC  H18Z21144   7.202   6.357   3.934
  185POPC     N21145   5.299   5.867   6.319
  185POPC   C1221146   5.347   5.788   6.198
  185POPC  H12A21147   5.369   5.687   6.230
  185POPC  H12B21148   5.441   5.833   6.166
  185POPC   C1321149   5.183   5.797   6.377
  185POPC  H13A21150   5.153   5.845   6.469
  185POPC  H13B21151   5.099   5.793   6.308
  185POPC  H13C21152   5.210   5.694   6.403
  185POPC   C1421153   5.407   5.867   6.425
  185POPC  H14A21154   5.371   5.869   6.528
  185POPC  H14B21155   5.460   5.772   6.424
  185POPC  H14C21156   5.473   5.950   6.407
  185POPC   C1521157   5.259   6.006   6.283
  185POPC  H15A21158   5.171   6.008   6.217
  185POPC  H15B21159   5.339   6.059   6.234
  185POPC  H15C21160   5.227   6.060   6.371
  185POPC   C1121161   5.257   5.777   6.070
  185POPC  H11A21162   5.318   5.730   5.990
  185POPC  H11B21163   5.232   5.880   6.037
  185POPC     P21164   5.013   5.713   5.992
  185POPC   O1321165   5.050   5.797   5.877
  185POPC   O1421166   4.897   5.760   6.072
  185POPC   O1221167   5.139   5.699   6.091
  185POPC   O1121168   4.982   5.565   5.943
  185POPC    C121169   5.083   5.471   5.906
  185POPC    HA21170   5.042   5.370   5.926
  185POPC    HB21171   5.176   5.482   5.968
  185POPC    C221172   5.129   5.470   5.757
  185POPC    HS21173   5.201   5.384   5.747
  185POPC   O2121174   5.196   5.592   5.727
  185POPC   C2121175   5.274   5.582   5.623
  185POPC   O2221176   5.310   5.481   5.566
  185POPC   C2221177   5.329   5.715   5.594
  185POPC   H2R21178   5.371   5.756   5.689
  185POPC   H2S21179   5.251   5.786   5.558
  185POPC    C321180   5.018   5.447   5.651
  185POPC    HX21181   4.967   5.352   5.675
  185POPC    HY21182   5.065   5.431   5.551
  185POPC   O3121183   4.921   5.552   5.649
  185POPC   C3121184   4.926   5.632   5.544
  185POPC   O3221185   4.997   5.620   5.446
  185POPC   C3221186   4.811   5.728   5.561
  185POPC   H2X21187   4.813   5.766   5.665
  185POPC   H2Y21188   4.726   5.663   5.554
  185POPC   C2321189   5.436   5.686   5.483
  185POPC   H3R21190   5.395   5.645   5.391
  185POPC   H3S21191   5.529   5.637   5.526
  185POPC   C2421192   5.486   5.810   5.417
  185POPC   H4R21193   5.595   5.834   5.420
  185POPC   H4S21194   5.474   5.827   5.519
  185POPC   C2521195   5.383   5.899   5.336
  185POPC   H5R21196   5.328   5.985   5.381
  185POPC   H5S21197   5.279   5.886   5.357
  185POPC   C2621198   5.460   5.958   5.219
  185POPC   H6R21199   5.571   5.968   5.240
  185POPC   H6S21200   5.433   6.055   5.170
  185POPC   C2721201   5.491   5.847   5.141
  185POPC   H7R21202   5.395   5.798   5.125
  185POPC   H7S21203   5.565   5.782   5.198
  185POPC   C2821204   5.555   5.907   5.024
  185POPC   H8R21205   5.557   5.804   4.985
  185POPC   H8S21206   5.649   5.954   5.056
  185POPC   C2921207   5.494   6.012   4.937
  185POPC   H9121208   5.500   6.111   4.980
  185POPC  C21021209   5.450   6.001   4.813
  185POPC  H10121210   5.414   6.089   4.762
  185POPC  C21121211   5.450   5.882   4.730
  185POPC  H11R21212   5.355   5.828   4.714
  185POPC  H11S21213   5.521   5.814   4.784
  185POPC  C21221214   5.503   5.906   4.592
  185POPC  H12R21215   5.509   5.812   4.536
  185POPC  H12S21216   5.599   5.963   4.597
  185POPC  C21321217   5.464   6.000   4.492
  185POPC  H13R21218   5.466   6.094   4.551
  185POPC  H13S21219   5.364   5.976   4.459
  185POPC  C21421220   5.567   5.989   4.375
  185POPC  H14R21221   5.665   6.040   4.394
  185POPC  H14S21222   5.520   6.038   4.287
  185POPC  C21521223   5.574   5.868   4.295
  185POPC  H15R21224   5.468   5.855   4.260
  185POPC  H15S21225   5.611   5.787   4.353
  185POPC  C21621226   5.674   5.887   4.188
  185POPC  H16R21227   5.684   5.996   4.157
  185POPC  H16S21228   5.661   5.810   4.105
  185POPC  C21721229   5.805   5.885   4.220
  185POPC  H17R21230   5.833   5.960   4.292
  185POPC  H17S21231   5.841   5.912   4.121
  185POPC  C21821232   5.839   5.755   4.245
  185POPC  H18R21233   5.936   5.711   4.270
  185POPC  H18S21234   5.837   5.718   4.152
  185POPC  H18T21235   5.749   5.696   4.255
  185POPC   C3321236   4.810   5.844   5.464
  185POPC   H3X21237   4.714   5.902   5.468
  185POPC   H3Y21238   4.825   5.813   5.358
  185POPC   C3421239   4.916   5.938   5.514
  185POPC   H4X21240   5.017   5.894   5.502
  185POPC   H4Y21241   4.895   5.967   5.620
  185POPC   C3521242   4.913   6.061   5.433
  185POPC   H5X21243   4.991   6.127   5.473
  185POPC   H5Y21244   4.815   6.111   5.448
  185POPC   C3621245   4.936   6.027   5.286
  185POPC   H6X21246   4.911   6.103   5.217
  185POPC   H6Y21247   4.849   5.981   5.243
  185POPC   C3721248   5.077   5.984   5.247
  185POPC   H7X21249   5.095   5.884   5.290
  185POPC   H7Y21250   5.153   6.054   5.290
  185POPC   C3821251   5.096   5.975   5.095
  185POPC   H8X21252   5.197   5.938   5.067
  185POPC   H8Y21253   5.084   6.069   5.045
  185POPC   C3921254   4.981   5.926   5.008
  185POPC   H9X21255   4.990   5.976   4.908
  185POPC   H9Y21256   4.883   5.963   5.046
  185POPC  C31021257   5.001   5.778   4.993
  185POPC  H10X21258   4.982   5.729   5.091
  185POPC  H10Y21259   5.105   5.759   4.962
  185POPC  C31121260   4.914   5.721   4.884
  185POPC  H11X21261   4.907   5.777   4.790
  185POPC  H11Y21262   4.816   5.745   4.927
  185POPC  C31221263   4.947   5.574   4.851
  185POPC  H12X21264   4.859   5.538   4.791
  185POPC  H12Y21265   4.963   5.513   4.944
  185POPC  C31321266   5.063   5.536   4.772
  185POPC  H13X21267   5.070   5.424   4.779
  185POPC  H13Y21268   5.146   5.586   4.824
  185POPC  C31421269   5.039   5.576   4.631
  185POPC  H14X21270   5.033   5.687   4.625
  185POPC  H14Y21271   4.942   5.535   4.592
  185POPC  C31521272   5.156   5.524   4.552
  185POPC  H15X21273   5.170   5.414   4.568
  185POPC  H15Y21274   5.247   5.576   4.586
  185POPC  C31621275   5.130   5.549   4.409
  185POPC  H16X21276   5.207   5.508   4.341
  185POPC  H16Y21277   5.109   5.656   4.391
  185POPC  H16Z21278   5.036   5.496   4.387
  186POPC     N21279   2.034   0.571   6.148
  186POPC   C1221280   1.952   0.649   6.049
  186POPC  H12A21281   1.862   0.590   6.046
  186POPC  H12B21282   2.004   0.653   5.954
  186POPC   C1321283   2.146   0.624   6.162
  186POPC  H13A21284   2.142   0.734   6.182
  186POPC  H13B21285   2.226   0.596   6.232
  186POPC  H13C21286   2.198   0.620   6.064
  186POPC   C1421287   2.016   0.596   6.285
  186POPC  H14A21288   2.016   0.700   6.319
  186POPC  H14B21289   1.926   0.547   6.312
  186POPC  H14C21290   2.099   0.547   6.340
  186POPC   C1521291   2.090   0.443   6.105
  186POPC  H15A21292   2.152   0.463   6.018
  186POPC  H15B21293   2.009   0.383   6.078
  186POPC  H15C21294   2.167   0.405   6.172
  186POPC   C1121295   1.909   0.794   6.082
  186POPC  H11A21296   1.865   0.844   5.993
  186POPC  H11B21297   1.991   0.859   6.104
  186POPC     P21298   1.675   0.762   6.182
  186POPC   O1321299   1.608   0.854   6.272
  186POPC   O1421300   1.656   0.617   6.203
  186POPC   O1221301   1.825   0.798   6.194
  186POPC   O1121302   1.638   0.801   6.035
  186POPC    C121303   1.507   0.768   5.989
  186POPC    HA21304   1.438   0.857   6.001
  186POPC    HB21305   1.459   0.678   6.032
  186POPC    C221306   1.527   0.730   5.844
  186POPC    HS21307   1.424   0.699   5.809
  186POPC   O2121308   1.622   0.642   5.794
  186POPC   C2121309   1.632   0.539   5.849
  186POPC   O2221310   1.558   0.477   5.920
  186POPC   C2221311   1.758   0.483   5.812
  186POPC   H2R21312   1.756   0.428   5.902
  186POPC   H2S21313   1.847   0.544   5.831
  186POPC    C321314   1.570   0.843   5.770
  186POPC    HX21315   1.502   0.914   5.818
  186POPC    HY21316   1.545   0.791   5.670
  186POPC   O3121317   1.696   0.905   5.774
  186POPC   C3121318   1.761   0.887   5.663
  186POPC   O3221319   1.734   0.812   5.571
  186POPC   C3221320   1.879   0.976   5.674
  186POPC   H2X21321   1.890   1.012   5.779
  186POPC   H2Y21322   1.866   1.060   5.603
  186POPC   C2321323   1.726   0.418   5.677
  186POPC   H3R21324   1.710   0.499   5.602
  186POPC   H3S21325   1.663   0.327   5.674
  186POPC   C2421326   1.843   0.357   5.628
  186POPC   H4R21327   1.873   0.289   5.710
  186POPC   H4S21328   1.895   0.459   5.632
  186POPC   C2521329   1.864   0.283   5.497
  186POPC   H5R21330   1.822   0.183   5.495
  186POPC   H5S21331   1.966   0.243   5.484
  186POPC   C2621332   1.827   0.377   5.385
  186POPC   H6R21333   1.880   0.476   5.396
  186POPC   H6S21334   1.732   0.424   5.400
  186POPC   C2721335   1.831   0.305   5.248
  186POPC   H7R21336   1.811   0.199   5.243
  186POPC   H7S21337   1.928   0.252   5.249
  186POPC   C2821338   1.806   0.401   5.124
  186POPC   H8R21339   1.854   0.382   5.026
  186POPC   H8S21340   1.827   0.509   5.139
  186POPC   C2921341   1.667   0.415   5.118
  186POPC   H9121342   1.626   0.343   5.187
  186POPC  C21021343   1.603   0.517   5.064
  186POPC  H10121344   1.497   0.511   5.078
  186POPC  C21121345   1.667   0.638   4.998
  186POPC  H11R21346   1.603   0.659   4.911
  186POPC  H11S21347   1.770   0.620   4.957
  186POPC  C21221348   1.679   0.762   5.089
  186POPC  H12R21349   1.760   0.748   5.164
  186POPC  H12S21350   1.582   0.777   5.140
  186POPC  C21321351   1.700   0.894   5.014
  186POPC  H13R21352   1.807   0.918   5.007
  186POPC  H13S21353   1.652   0.975   5.072
  186POPC  C21421354   1.639   0.890   4.874
  186POPC  H14R21355   1.536   0.850   4.881
  186POPC  H14S21356   1.703   0.827   4.810
  186POPC  C21521357   1.621   1.020   4.805
  186POPC  H15R21358   1.716   1.068   4.792
  186POPC  H15S21359   1.548   1.085   4.859
  186POPC  C21621360   1.599   1.012   4.657
  186POPC  H16R21361   1.533   1.099   4.660
  186POPC  H16S21362   1.528   0.936   4.628
  186POPC  C21721363   1.725   1.022   4.563
  186POPC  H17R21364   1.796   0.946   4.601
  186POPC  H17S21365   1.785   1.114   4.581
  186POPC  C21821366   1.709   0.994   4.410
  186POPC  H18R21367   1.690   0.888   4.394
  186POPC  H18S21368   1.789   1.037   4.347
  186POPC  H18T21369   1.627   1.040   4.354
  186POPC   C3321370   1.997   0.892   5.639
  186POPC   H3X21371   1.979   0.784   5.666
  186POPC   H3Y21372   2.083   0.932   5.699
  186POPC   C3421373   2.028   0.892   5.491
  186POPC   H4X21374   2.109   0.965   5.478
  186POPC   H4Y21375   1.942   0.925   5.432
  186POPC   C3521376   2.057   0.751   5.441
  186POPC   H5X21377   1.967   0.689   5.428
  186POPC   H5Y21378   2.101   0.702   5.525
  186POPC   C3621379   2.146   0.741   5.321
  186POPC   H6X21380   2.177   0.636   5.313
  186POPC   H6Y21381   2.247   0.783   5.322
  186POPC   C3721382   2.084   0.821   5.206
  186POPC   H7X21383   2.119   0.909   5.241
  186POPC   H7Y21384   1.977   0.844   5.207
  186POPC   C3821385   2.141   0.799   5.069
  186POPC   H8X21386   2.195   0.714   5.113
  186POPC   H8Y21387   2.245   0.795   5.030
  186POPC   C3921388   2.039   0.812   4.952
  186POPC   H9X21389   2.034   0.919   4.932
  186POPC   H9Y21390   1.937   0.785   4.969
  186POPC  C31021391   2.075   0.743   4.821
  186POPC  H10X21392   2.075   0.634   4.819
  186POPC  H10Y21393   2.172   0.779   4.804
  186POPC  C31121394   1.992   0.764   4.704
  186POPC  H11X21395   1.994   0.851   4.643
  186POPC  H11Y21396   1.893   0.747   4.736
  186POPC  C31221397   2.017   0.674   4.600
  186POPC  H12X21398   2.118   0.634   4.592
  186POPC  H12Y21399   1.975   0.723   4.506
  186POPC  C31321400   1.945   0.559   4.620
  186POPC  H13X21401   1.915   0.539   4.721
  186POPC  H13Y21402   2.030   0.484   4.618
  186POPC  C31421403   1.843   0.566   4.509
  186POPC  H14X21404   1.864   0.462   4.522
  186POPC  H14Y21405   1.868   0.610   4.401
  186POPC  C31521406   1.707   0.599   4.530
  186POPC  H15X21407   1.626   0.515   4.525
  186POPC  H15Y21408   1.704   0.679   4.451
  186POPC  C31621409   1.666   0.614   4.657
  186POPC  H16X21410   1.681   0.506   4.695
  186POPC  H16Y21411   1.570   0.658   4.615
  186POPC  H16Z21412   1.739   0.685   4.685
  187POPC     N21413   5.085   6.371   2.219
  187POPC   C1221414   5.138   6.228   2.238
  187POPC  H12A21415   5.133   6.180   2.141
  187POPC  H12B21416   5.074   6.175   2.306
  187POPC   C1321417   5.064   6.439   2.350
  187POPC  H13A21418   5.018   6.537   2.340
  187POPC  H13B21419   5.000   6.379   2.413
  187POPC  H13C21420   5.159   6.453   2.403
  187POPC   C1421421   5.189   6.445   2.141
  187POPC  H14A21422   5.204   6.405   2.042
  187POPC  H14B21423   5.172   6.551   2.136
  187POPC  H14C21424   5.285   6.429   2.193
  187POPC   C1521425   4.952   6.365   2.150
  187POPC  H15A21426   4.905   6.462   2.141
  187POPC  H15B21427   4.887   6.301   2.207
  187POPC  H15C21428   4.963   6.325   2.050
  187POPC   C1121429   5.284   6.205   2.288
  187POPC  H11A21430   5.356   6.234   2.207
  187POPC  H11B21431   5.300   6.095   2.304
  187POPC     P21432   5.447   6.267   2.488
  187POPC   O1321433   5.505   6.403   2.486
  187POPC   O1421434   5.523   6.153   2.433
  187POPC   O1221435   5.305   6.274   2.411
  187POPC   O1121436   5.412   6.229   2.636
  187POPC    C121437   5.304   6.146   2.664
  187POPC    HA21438   5.327   6.092   2.752
  187POPC    HB21439   5.283   6.069   2.585
  187POPC    C221440   5.193   6.239   2.705
  187POPC    HS21441   5.177   6.310   2.619
  187POPC   O2121442   5.206   6.298   2.832
  187POPC   C2121443   5.140   6.411   2.845
  187POPC   O2221444   5.081   6.472   2.758
  187POPC   C2221445   5.152   6.446   2.991
  187POPC   H2R21446   5.146   6.555   3.005
  187POPC   H2S21447   5.248   6.406   3.028
  187POPC    C321448   5.069   6.171   2.714
  187POPC    HX21449   5.081   6.122   2.615
  187POPC    HY21450   4.998   6.253   2.691
  187POPC   O3121451   5.043   6.097   2.838
  187POPC   C3121452   4.927   6.060   2.908
  187POPC   O3221453   4.830   6.004   2.876
  187POPC   C3221454   4.933   6.037   3.042
  187POPC   H2X21455   4.841   5.984   3.082
  187POPC   H2Y21456   4.986   6.108   3.100
  187POPC   C2321457   5.035   6.382   3.064
  187POPC   H3R21458   5.039   6.273   3.054
  187POPC   H3S21459   4.944   6.420   3.016
  187POPC   C2421460   5.040   6.420   3.211
  187POPC   H4R21461   5.047   6.530   3.224
  187POPC   H4S21462   5.120   6.365   3.262
  187POPC   C2521463   4.916   6.382   3.281
  187POPC   H5R21464   4.905   6.270   3.282
  187POPC   H5S21465   4.838   6.437   3.221
  187POPC   C2621466   4.898   6.432   3.422
  187POPC   H6R21467   4.795   6.431   3.461
  187POPC   H6S21468   4.925   6.538   3.417
  187POPC   C2721469   4.996   6.358   3.506
  187POPC   H7R21470   5.096   6.372   3.461
  187POPC   H7S21471   4.976   6.250   3.507
  187POPC   C2821472   5.003   6.406   3.646
  187POPC   H8R21473   5.084   6.345   3.692
  187POPC   H8S21474   4.906   6.411   3.701
  187POPC   C2921475   5.081   6.511   3.682
  187POPC   H9121476   5.102   6.561   3.590
  187POPC  C21021477   5.062   6.562   3.801
  187POPC  H10121478   5.118   6.643   3.836
  187POPC  C21121479   4.975   6.540   3.918
  187POPC  H11R21480   4.872   6.512   3.898
  187POPC  H11S21481   4.945   6.627   3.982
  187POPC  C21221482   5.071   6.495   4.013
  187POPC  H12R21483   5.172   6.538   4.024
  187POPC  H12S21484   5.099   6.408   3.967
  187POPC  C21321485   4.984   6.478   4.126
  187POPC  H13R21486   4.996   6.379   4.160
  187POPC  H13S21487   4.872   6.482   4.103
  187POPC  C21421488   5.030   6.584   4.217
  187POPC  H14R21489   4.944   6.557   4.281
  187POPC  H14S21490   5.014   6.684   4.170
  187POPC  C21521491   5.168   6.584   4.291
  187POPC  H15R21492   5.247   6.593   4.219
  187POPC  H15S21493   5.203   6.494   4.343
  187POPC  C21621494   5.174   6.671   4.413
  187POPC  H16R21495   5.250   6.639   4.488
  187POPC  H16S21496   5.080   6.654   4.474
  187POPC  C21721497   5.202   6.813   4.363
  187POPC  H17R21498   5.245   6.876   4.442
  187POPC  H17S21499   5.114   6.861   4.314
  187POPC  C21821500   5.312   6.851   4.278
  187POPC  H18R21501   5.401   6.808   4.329
  187POPC  H18S21502   5.308   6.963   4.281
  187POPC  H18T21503   5.278   6.810   4.182
  187POPC   C3321504   5.027   5.937   3.041
  187POPC   H3X21505   5.098   5.932   2.957
  187POPC   H3Y21506   5.030   5.839   3.013
  187POPC   C3421507   5.018   5.886   3.176
  187POPC   H4X21508   5.113   5.848   3.175
  187POPC   H4Y21509   4.948   5.803   3.179
  187POPC   C3521510   5.082   5.960   3.287
  187POPC   H5X21511   5.092   5.887   3.366
  187POPC   H5Y21512   5.007   6.038   3.297
  187POPC   C3621513   5.230   6.003   3.274
  187POPC   H6X21514   5.241   6.060   3.180
  187POPC   H6Y21515   5.309   5.924   3.276
  187POPC   C3721516   5.274   6.094   3.381
  187POPC   H7X21517   5.205   6.179   3.370
  187POPC   H7Y21518   5.382   6.116   3.376
  187POPC   C3821519   5.243   6.036   3.512
  187POPC   H8X21520   5.286   5.941   3.510
  187POPC   H8Y21521   5.137   6.021   3.509
  187POPC   C3921522   5.284   6.116   3.630
  187POPC   H9X21523   5.216   6.202   3.643
  187POPC   H9Y21524   5.371   6.164   3.588
  187POPC  C31021525   5.299   6.038   3.763
  187POPC  H10X21526   5.373   5.959   3.763
  187POPC  H10Y21527   5.209   5.977   3.796
  187POPC  C31121528   5.314   6.138   3.878
  187POPC  H11X21529   5.295   6.085   3.966
  187POPC  H11Y21530   5.248   6.219   3.850
  187POPC  C31221531   5.397   6.239   3.946
  187POPC  H12X21532   5.397   6.302   3.853
  187POPC  H12Y21533   5.492   6.190   3.954
  187POPC  C31321534   5.464   6.252   4.085
  187POPC  H13X21535   5.548   6.317   4.089
  187POPC  H13Y21536   5.539   6.183   4.130
  187POPC  C31421537   5.404   6.352   4.161
  187POPC  H14X21538   5.304   6.311   4.154
  187POPC  H14Y21539   5.423   6.448   4.106
  187POPC  C31521540   5.484   6.363   4.285
  187POPC  H15X21541   5.431   6.434   4.346
  187POPC  H15Y21542   5.593   6.386   4.261
  187POPC  C31621543   5.497   6.248   4.365
  187POPC  H16X21544   5.407   6.180   4.352
  187POPC  H16Y21545   5.530   6.253   4.470
  187POPC  H16Z21546   5.590   6.205   4.319
  188POPC     N21547   5.970   6.254   2.152
  188POPC   C1221548   5.868   6.251   2.266
  188POPC  H12A21549   5.793   6.175   2.248
  188POPC  H12B21550   5.811   6.344   2.266
  188POPC   C1321551   6.036   6.123   2.128
  188POPC  H13A21552   5.959   6.049   2.111
  188POPC  H13B21553   6.102   6.132   2.042
  188POPC  H13C21554   6.095   6.096   2.215
  188POPC   C1421555   5.901   6.287   2.026
  188POPC  H14A21556   5.825   6.212   2.009
  188POPC  H14B21557   5.848   6.381   2.038
  188POPC  H14C21558   5.968   6.298   1.941
  188POPC   C1521559   6.077   6.353   2.185
  188POPC  H15A21560   6.138   6.311   2.266
  188POPC  H15B21561   6.036   6.446   2.223
  188POPC  H15C21562   6.139   6.374   2.100
  188POPC   C1121563   5.921   6.235   2.411
  188POPC  H11A21564   5.831   6.232   2.477
  188POPC  H11B21565   5.979   6.327   2.435
  188POPC     P21566   6.112   6.105   2.537
  188POPC   O1321567   6.145   6.239   2.589
  188POPC   O1421568   6.223   6.031   2.474
  188POPC   O1221569   5.998   6.116   2.425
  188POPC   O1121570   6.049   6.015   2.653
  188POPC    C121571   5.911   6.027   2.689
  188POPC    HA21572   5.881   5.938   2.749
  188POPC    HB21573   5.844   6.025   2.600
  188POPC    C221574   5.889   6.150   2.781
  188POPC    HS21575   5.905   6.241   2.719
  188POPC   O2121576   5.986   6.139   2.889
  188POPC   C2121577   6.052   6.249   2.919
  188POPC   O2221578   6.021   6.362   2.886
  188POPC   C2221579   6.177   6.220   3.001
  188POPC   H2R21580   6.262   6.232   2.931
  188POPC   H2S21581   6.188   6.122   3.046
  188POPC    C321582   5.745   6.154   2.840
  188POPC    HX21583   5.735   6.063   2.902
  188POPC    HY21584   5.667   6.145   2.761
  188POPC   O3121585   5.726   6.265   2.928
  188POPC   C3121586   5.654   6.367   2.886
  188POPC   O3221587   5.616   6.392   2.774
  188POPC   C3221588   5.619   6.458   3.004
  188POPC   H2X21589   5.511   6.482   3.007
  188POPC   H2Y21590   5.666   6.546   2.963
  188POPC   C2321591   6.189   6.310   3.125
  188POPC   H3R21592   6.146   6.408   3.098
  188POPC   H3S21593   6.297   6.319   3.147
  188POPC   C2421594   6.121   6.261   3.253
  188POPC   H4R21595   6.166   6.166   3.290
  188POPC   H4S21596   6.013   6.248   3.231
  188POPC   C2521597   6.119   6.366   3.364
  188POPC   H5R21598   6.103   6.464   3.317
  188POPC   H5S21599   6.215   6.366   3.420
  188POPC   C2621600   5.995   6.366   3.452
  188POPC   H6R21601   5.905   6.372   3.386
  188POPC   H6S21602   5.995   6.458   3.515
  188POPC   C2721603   5.996   6.244   3.544
  188POPC   H7R21604   6.082   6.255   3.613
  188POPC   H7S21605   6.014   6.154   3.483
  188POPC   C2821606   5.874   6.231   3.635
  188POPC   H8R21607   5.868   6.317   3.703
  188POPC   H8S21608   5.886   6.145   3.705
  188POPC   C2921609   5.749   6.233   3.554
  188POPC   H9121610   5.738   6.284   3.460
  188POPC  C21021611   5.650   6.162   3.583
  188POPC  H10121612   5.549   6.176   3.538
  188POPC  C21121613   5.658   6.077   3.698
  188POPC  H11R21614   5.730   6.068   3.785
  188POPC  H11S21615   5.606   5.989   3.659
  188POPC  C21221616   5.574   6.178   3.758
  188POPC  H12R21617   5.538   6.090   3.812
  188POPC  H12S21618   5.476   6.176   3.726
  188POPC  C21321619   5.611   6.319   3.832
  188POPC  H13R21620   5.537   6.397   3.886
  188POPC  H13S21621   5.584   6.378   3.746
  188POPC  C21421622   5.709   6.299   3.948
  188POPC  H14R21623   5.764   6.209   3.927
  188POPC  H14S21624   5.708   6.249   4.051
  188POPC  C21521625   5.719   6.443   3.989
  188POPC  H15R21626   5.624   6.492   4.025
  188POPC  H15S21627   5.744   6.490   3.892
  188POPC  C21621628   5.822   6.457   4.090
  188POPC  H16R21629   5.797   6.386   4.171
  188POPC  H16S21630   5.820   6.561   4.126
  188POPC  C21721631   5.943   6.421   4.009
  188POPC  H17R21632   5.936   6.491   3.921
  188POPC  H17S21633   5.946   6.316   3.976
  188POPC  C21821634   6.070   6.447   4.076
  188POPC  H18R21635   6.062   6.557   4.076
  188POPC  H18S21636   6.162   6.429   4.022
  188POPC  H18T21637   6.075   6.401   4.178
  188POPC   C3321638   5.673   6.418   3.143
  188POPC   H3X21639   5.698   6.508   3.201
  188POPC   H3Y21640   5.771   6.368   3.134
  188POPC   C3421641   5.574   6.332   3.223
  188POPC   H4X21642   5.470   6.370   3.218
  188POPC   H4Y21643   5.605   6.340   3.329
  188POPC   C3521644   5.576   6.185   3.179
  188POPC   H5X21645   5.547   6.177   3.072
  188POPC   H5Y21646   5.502   6.124   3.232
  188POPC   C3621647   5.711   6.119   3.203
  188POPC   H6X21648   5.737   6.123   3.310
  188POPC   H6Y21649   5.793   6.171   3.148
  188POPC   C3721650   5.705   5.972   3.167
  188POPC   H7X21651   5.650   5.955   3.072
  188POPC   H7Y21652   5.667   5.909   3.250
  188POPC   C3821653   5.842   5.923   3.146
  188POPC   H8X21654   5.863   5.953   3.040
  188POPC   H8Y21655   5.840   5.816   3.131
  188POPC   C3921656   5.946   5.969   3.254
  188POPC   H9X21657   5.975   6.070   3.238
  188POPC   H9Y21658   6.052   5.952   3.247
  188POPC  C31021659   5.943   5.905   3.392
  188POPC  H10X21660   5.899   5.805   3.376
  188POPC  H10Y21661   5.873   5.967   3.448
  188POPC  C31121662   6.084   5.881   3.456
  188POPC  H11X21663   6.155   5.966   3.447
  188POPC  H11Y21664   6.136   5.792   3.420
  188POPC  C31221665   6.084   5.830   3.594
  188POPC  H12X21666   6.191   5.817   3.628
  188POPC  H12Y21667   6.048   5.725   3.596
  188POPC  C31321668   6.003   5.932   3.676
  188POPC  H13X21669   5.895   5.921   3.671
  188POPC  H13Y21670   6.048   6.033   3.663
  188POPC  C31421671   6.043   5.918   3.813
  188POPC  H14X21672   6.149   5.938   3.786
  188POPC  H14Y21673   6.067   5.810   3.803
  188POPC  C31521674   5.989   5.984   3.964
  188POPC  H15X21675   5.884   5.951   3.953
  188POPC  H15Y21676   5.960   6.085   3.951
  188POPC  C31621677   6.058   5.980   4.129
  188POPC  H16X21678   6.163   5.998   4.150
  188POPC  H16Y21679   6.104   5.886   4.173
  188POPC  H16Z21680   6.003   5.963   4.218
  189SAPI   C1221681   5.612   6.159   6.584
  189SAPI    H221682   5.590   6.064   6.530
  189SAPI    O221683   5.534   6.263   6.525
  189SAPI   HO221684   5.572   6.348   6.549
  189SAPI   C1321685   5.573   6.136   6.730
  189SAPI    H321686   5.622   6.045   6.768
  189SAPI    O321687   5.433   6.111   6.737
  189SAPI   HO321688   5.412   6.075   6.651
  189SAPI   C1421689   5.614   6.254   6.817
  189SAPI    H421690   5.557   6.345   6.786
  189SAPI    O421691   5.580   6.228   6.954
  189SAPI   HO421692   5.581   6.313   6.998
  189SAPI   C1521693   5.764   6.279   6.805
  189SAPI    H521694   5.818   6.188   6.839
  189SAPI    O521695   5.806   6.388   6.888
  189SAPI   HO521696   5.903   6.391   6.892
  189SAPI   C1621697   5.799   6.304   6.658
  189SAPI    H621698   5.740   6.391   6.623
  189SAPI    O621699   5.934   6.341   6.640
  189SAPI   HO621700   5.931   6.381   6.551
  189SAPI   C1121701   5.762   6.184   6.572
  189SAPI    H121702   5.812   6.093   6.617
  189SAPI     P21703   5.873   6.083   6.352
  189SAPI   O1321704   5.775   5.970   6.352
  189SAPI   O1421705   6.002   6.052   6.418
  189SAPI   O1221706   5.800   6.207   6.434
  189SAPI   O1121707   5.901   6.134   6.205
  189SAPI    C121708   5.870   6.265   6.157
  189SAPI    HA21709   5.876   6.344   6.235
  189SAPI    HB21710   5.944   6.296   6.081
  189SAPI    C221711   5.736   6.264   6.081
  189SAPI    HS21712   5.654   6.241   6.153
  189SAPI   O2121713   5.746   6.163   5.980
  189SAPI   C2121714   5.632   6.122   5.937
  189SAPI   O2221715   5.521   6.150   5.980
  189SAPI   C2221716   5.657   6.043   5.817
  189SAPI   H2R21717   5.738   6.086   5.753
  189SAPI   H2S21718   5.681   5.936   5.837
  189SAPI    C321719   5.704   6.398   6.011
  189SAPI    HX21720   5.688   6.476   6.089
  189SAPI    HY21721   5.610   6.384   5.955
  189SAPI   O3121722   5.815   6.436   5.928
  189SAPI   C3121723   5.793   6.439   5.798
  189SAPI   O3221724   5.684   6.441   5.744
  189SAPI   C3221725   5.926   6.435   5.723
  189SAPI   H2X21726   5.974   6.339   5.716
  189SAPI   H2Y21727   5.991   6.486   5.798
  189SAPI   C2321728   5.532   6.059   5.740
  189SAPI   H3R21729   5.513   6.170   5.725
  189SAPI   H3S21730   5.439   6.011   5.783
  189SAPI   C2421731   5.579   5.982   5.627
  189SAPI   H4R21732   5.566   5.875   5.668
  189SAPI   H4S21733   5.677   5.983   5.579
  189SAPI   C2521734   5.481   6.053   5.541
  189SAPI   H5R21735   5.387   5.995   5.557
  189SAPI   C2621736   5.505   6.124   5.426
  189SAPI   H6R21737   5.422   6.142   5.354
  189SAPI   C2721738   5.634   6.150   5.351
  189SAPI   H7R21739   5.633   6.147   5.238
  189SAPI   H7S21740   5.713   6.080   5.384
  189SAPI   C2821741   5.623   6.285   5.401
  189SAPI   H8R21742   5.627   6.294   5.511
  189SAPI   C2921743   5.599   6.391   5.326
  189SAPI   H9R21744   5.580   6.480   5.385
  189SAPI  C21021745   5.579   6.401   5.177
  189SAPI  H10R21746   5.480   6.448   5.161
  189SAPI  H10S21747   5.576   6.303   5.122
  189SAPI  C21121748   5.690   6.490   5.126
  189SAPI  H11R21749   5.717   6.575   5.190
  189SAPI  C21221750   5.747   6.485   5.005
  189SAPI  H12R21751   5.834   6.550   4.983
  189SAPI  C21321752   5.711   6.390   4.894
  189SAPI  H13R21753   5.713   6.446   4.799
  189SAPI  H13S21754   5.605   6.358   4.904
  189SAPI  C21421755   5.804   6.273   4.890
  189SAPI  H14R21756   5.793   6.204   4.976
  189SAPI  C21521757   5.894   6.248   4.793
  189SAPI  H15R21758   5.959   6.159   4.802
  189SAPI  C21621759   5.921   6.332   4.671
  189SAPI  H16R21760   6.031   6.335   4.654
  189SAPI  H16S21761   5.893   6.438   4.690
  189SAPI  C21721762   5.857   6.279   4.542
  189SAPI  H17R21763   5.749   6.253   4.558
  189SAPI  H17S21764   5.907   6.183   4.514
  189SAPI  C21821765   5.869   6.372   4.421
  189SAPI  H18R21766   5.811   6.323   4.341
  189SAPI  H18S21767   5.975   6.380   4.387
  189SAPI  C21921768   5.816   6.515   4.439
  189SAPI  H19R21769   5.833   6.572   4.346
  189SAPI  H19S21770   5.873   6.564   4.520
  189SAPI  C22021771   5.669   6.535   4.467
  189SAPI  H20R21772   5.632   6.462   4.542
  189SAPI  H20S21773   5.612   6.527   4.375
  189SAPI  H20T21774   5.649   6.640   4.495
  189SAPI   C3321775   5.915   6.476   5.571
  189SAPI   H3X21776   5.823   6.542   5.578
  189SAPI   H3Y21777   5.845   6.437   5.500
  189SAPI   C3421778   6.049   6.532   5.496
  189SAPI   H4X21779   6.148   6.501   5.537
  189SAPI   H4Y21780   6.075   6.635   5.503
  189SAPI   C3521781   6.037   6.606   5.364
  189SAPI   H5X21782   6.117   6.675   5.337
  189SAPI   H5Y21783   5.974   6.695   5.349
  189SAPI   C3621784   6.007   6.492   5.282
  189SAPI   H6X21785   5.997   6.523   5.179
  189SAPI   H6Y21786   5.907   6.465   5.321
  189SAPI   C3721787   6.110   6.381   5.300
  189SAPI   H7X21788   6.139   6.351   5.403
  189SAPI   H7Y21789   6.204   6.419   5.256
  189SAPI   C3821790   6.049   6.257   5.240
  189SAPI   H8X21791   6.035   6.273   5.135
  189SAPI   H8Y21792   5.941   6.250   5.264
  189SAPI   C3921793   6.117   6.127   5.276
  189SAPI   H9X21794   6.099   6.111   5.384
  189SAPI   H9Y21795   6.228   6.132   5.265
  189SAPI  C31021796   6.052   6.010   5.200
  189SAPI  H10X21797   5.942   6.008   5.216
  189SAPI  H10Y21798   6.087   5.916   5.243
  189SAPI  C31121799   6.083   6.003   5.051
  189SAPI  H11X21800   6.191   5.985   5.038
  189SAPI  H11Y21801   6.050   6.099   5.007
  189SAPI  C31221802   6.007   5.895   4.976
  189SAPI  H12X21803   6.010   5.801   5.035
  189SAPI  H12Y21804   6.044   5.875   4.872
  189SAPI  C31321805   5.863   5.934   4.966
  189SAPI  H13X21806   5.835   6.031   4.927
  189SAPI  H13Y21807   5.827   5.915   5.070
  189SAPI  C31421808   5.798   5.845   4.868
  189SAPI  H14X21809   5.700   5.810   4.889
  189SAPI  H14Y21810   5.853   5.756   4.890
  189SAPI  C31521811   5.780   5.894   4.726
  189SAPI  H15X21812   5.864   5.939   4.681
  189SAPI  H15Y21813   5.701   5.973   4.747
  189SAPI  C31621814   5.744   5.788   4.618
  189SAPI  H16X21815   5.701   5.827   4.524
  189SAPI  H16Y21816   5.664   5.741   4.670
  189SAPI  C31721817   5.843   5.705   4.537
  189SAPI  H17X21818   5.916   5.672   4.610
  189SAPI  H17Y21819   5.884   5.786   4.478
  189SAPI  C31821820   5.799   5.582   4.449
  189SAPI  H18X21821   5.862   5.555   4.364
  189SAPI  H18Y21822   5.705   5.607   4.394
  189SAPI  H18Z21823   5.777   5.489   4.502
  190SAPI   C1221824   0.480   1.386   6.648
  190SAPI    H221825   0.435   1.312   6.578
  190SAPI    O221826   0.381   1.484   6.675
  190SAPI   HO221827   0.424   1.569   6.684
  190SAPI   C1321828   0.516   1.313   6.776
  190SAPI    H321829   0.585   1.229   6.752
  190SAPI    O321830   0.402   1.253   6.838
  190SAPI   HO321831   0.433   1.204   6.915
  190SAPI   C1421832   0.587   1.411   6.868
  190SAPI    H421833   0.518   1.498   6.883
  190SAPI    O421834   0.612   1.359   6.999
  190SAPI   HO421835   0.600   1.433   7.058
  190SAPI   C1521836   0.714   1.463   6.805
  190SAPI    H521837   0.776   1.375   6.775
  190SAPI    O521838   0.790   1.542   6.897
  190SAPI   HO521839   0.850   1.486   6.945
  190SAPI   C1621840   0.681   1.538   6.678
  190SAPI    H621841   0.619   1.628   6.702
  190SAPI    O621842   0.805   1.580   6.619
  190SAPI   HO621843   0.871   1.514   6.637
  190SAPI   C1121844   0.606   1.445   6.584
  190SAPI    H121845   0.675   1.361   6.560
  190SAPI     P21846   0.547   1.444   6.322
  190SAPI   O1321847   0.418   1.373   6.327
  190SAPI   O1421848   0.667   1.370   6.287
  190SAPI   O1221849   0.574   1.521   6.466
  190SAPI   O1121850   0.532   1.567   6.226
  190SAPI    C121851   0.618   1.678   6.225
  190SAPI    HA21852   0.562   1.772   6.241
  190SAPI    HB21853   0.700   1.672   6.300
  190SAPI    C221854   0.682   1.698   6.090
  190SAPI    HS21855   0.687   1.810   6.078
  190SAPI   O2121856   0.610   1.634   5.981
  190SAPI   C2121857   0.516   1.705   5.924
  190SAPI   O2221858   0.491   1.820   5.953
  190SAPI   C2221859   0.443   1.628   5.812
  190SAPI   H2R21860   0.486   1.529   5.794
  190SAPI   H2S21861   0.337   1.611   5.840
  190SAPI    C321862   0.824   1.639   6.105
  190SAPI    HX21863   0.887   1.682   6.185
  190SAPI    HY21864   0.883   1.661   6.026
  190SAPI   O3121865   0.834   1.503   6.083
  190SAPI   C3121866   0.816   1.465   5.955
  190SAPI   O3221867   0.815   1.533   5.856
  190SAPI   C3221868   0.809   1.322   5.959
  190SAPI   H2X21869   0.739   1.286   6.031
  190SAPI   H2Y21870   0.908   1.324   6.000
  190SAPI   C2321871   0.434   1.717   5.688
  190SAPI   H3R21872   0.376   1.807   5.716
  190SAPI   H3S21873   0.388   1.664   5.602
  190SAPI   C2421874   0.564   1.771   5.637
  190SAPI   H4R21875   0.608   1.834   5.718
  190SAPI   H4S21876   0.538   1.849   5.561
  190SAPI   C2521877   0.653   1.662   5.578
  190SAPI   H5R21878   0.733   1.625   5.644
  190SAPI   C2621879   0.663   1.634   5.446
  190SAPI   H6R21880   0.756   1.584   5.411
  190SAPI   C2721881   0.592   1.701   5.329
  190SAPI   H7R21882   0.654   1.738   5.246
  190SAPI   H7S21883   0.534   1.790   5.360
  190SAPI   C2821884   0.525   1.596   5.251
  190SAPI   H8R21885   0.444   1.556   5.310
  190SAPI   C2921886   0.547   1.552   5.125
  190SAPI   H9R21887   0.481   1.477   5.085
  190SAPI  C21021888   0.644   1.590   5.019
  190SAPI  H10R21889   0.685   1.507   4.958
  190SAPI  H10S21890   0.738   1.623   5.069
  190SAPI  C21121891   0.568   1.696   4.938
  190SAPI  H11R21892   0.540   1.788   4.989
  190SAPI  C21221893   0.512   1.697   4.821
  190SAPI  H12R21894   0.491   1.794   4.771
  190SAPI  C21321895   0.514   1.575   4.745
  190SAPI  H13R21896   0.423   1.578   4.688
  190SAPI  H13S21897   0.516   1.490   4.815
  190SAPI  C21421898   0.610   1.521   4.657
  190SAPI  H14R21899   0.708   1.493   4.700
  190SAPI  C21521900   0.604   1.537   4.531
  190SAPI  H15R21901   0.697   1.495   4.502
  190SAPI  C21621902   0.514   1.609   4.430
  190SAPI  H16R21903   0.562   1.623   4.329
  190SAPI  H16S21904   0.491   1.715   4.458
  190SAPI  C21721905   0.396   1.524   4.411
  190SAPI  H17R21906   0.343   1.531   4.508
  190SAPI  H17S21907   0.435   1.421   4.393
  190SAPI  C21821908   0.318   1.575   4.290
  190SAPI  H18R21909   0.388   1.581   4.205
  190SAPI  H18S21910   0.281   1.676   4.316
  190SAPI  C21921911   0.201   1.495   4.238
  190SAPI  H19R21912   0.181   1.509   4.131
  190SAPI  H19S21913   0.112   1.512   4.293
  190SAPI  C22021914   0.214   1.356   4.260
  190SAPI  H20R21915   0.220   1.352   4.370
  190SAPI  H20S21916   0.312   1.323   4.225
  190SAPI  H20T21917   0.135   1.286   4.226
  190SAPI   C3321918   0.818   1.244   5.832
  190SAPI   H3X21919   0.869   1.144   5.840
  190SAPI   H3Y21920   0.895   1.310   5.805
  190SAPI   C3421921   0.703   1.268   5.735
  190SAPI   H4X21922   0.691   1.376   5.721
  190SAPI   H4Y21923   0.621   1.220   5.793
  190SAPI   C3521924   0.708   1.218   5.591
  190SAPI   H5X21925   0.611   1.180   5.554
  190SAPI   H5Y21926   0.779   1.142   5.616
  190SAPI   C3621927   0.783   1.272   5.472
  190SAPI   H6X21928   0.888   1.259   5.474
  190SAPI   H6Y21929   0.770   1.378   5.467
  190SAPI   C3721930   0.790   1.189   5.349
  190SAPI   H7X21931   0.686   1.171   5.322
  190SAPI   H7Y21932   0.852   1.093   5.352
  190SAPI   C3821933   0.861   1.264   5.247
  190SAPI   H8X21934   0.964   1.281   5.257
  190SAPI   H8Y21935   0.838   1.370   5.238
  190SAPI   C3921936   0.864   1.179   5.130
  190SAPI   H9X21937   0.839   1.073   5.147
  190SAPI   H9Y21938   0.970   1.160   5.118
  190SAPI  C31021939   0.790   1.276   5.040
  190SAPI  H10X21940   0.856   1.362   5.014
  190SAPI  H10Y21941   0.692   1.293   5.087
  190SAPI  C31121942   0.745   1.211   4.921
  190SAPI  H11X21943   0.702   1.124   4.970
  190SAPI  H11Y21944   0.844   1.207   4.890
  190SAPI  C31221945   0.658   1.240   4.802
  190SAPI  H12X21946   0.669   1.346   4.801
  190SAPI  H12Y21947   0.561   1.201   4.838
  190SAPI  C31321948   0.686   1.190   4.659
  190SAPI  H13X21949   0.676   1.084   4.635
  190SAPI  H13Y21950   0.783   1.219   4.613
  190SAPI  C31421951   0.570   1.208   4.571
  190SAPI  H14X21952   0.540   1.310   4.564
  190SAPI  H14Y21953   0.487   1.153   4.622
  190SAPI  C31521954   0.597   1.157   4.430
  190SAPI  H15X21955   0.513   1.201   4.375
  190SAPI  H15Y21956   0.598   1.046   4.422
  190SAPI  C31621957   0.711   1.225   4.363
  190SAPI  H16X21958   0.799   1.182   4.408
  190SAPI  H16Y21959   0.700   1.332   4.381
  190SAPI  C31721960   0.731   1.210   4.218
  190SAPI  H17X21961   0.675   1.231   4.135
  190SAPI  H17Y21962   0.733   1.100   4.200
  190SAPI  C31821963   0.817   1.321   4.156
  190SAPI  H18X21964   0.830   1.327   4.046
  190SAPI  H18Y21965   0.914   1.279   4.180
  190SAPI  H18Z21966   0.795   1.422   4.191
  191SAPI   C1221967   4.743   3.521   1.792
  191SAPI    H221968   4.642   3.558   1.825
  191SAPI    O221969   4.733   3.379   1.781
  191SAPI   HO221970   4.773   3.347   1.863
  191SAPI   C1321971   4.774   3.580   1.656
  191SAPI    H321972   4.777   3.691   1.661
  191SAPI    O321973   4.672   3.543   1.562
  191SAPI   HO321974   4.658   3.448   1.576
  191SAPI   C1421975   4.910   3.533   1.612
  191SAPI    H421976   4.901   3.423   1.612
  191SAPI    O421977   4.939   3.574   1.478
  191SAPI   HO421978   4.971   3.498   1.428
  191SAPI   C1521979   5.020   3.569   1.711
  191SAPI    H521980   5.024   3.680   1.720
  191SAPI    O521981   5.146   3.522   1.663
  191SAPI   HO521982   5.153   3.428   1.674
  191SAPI   C1621983   4.985   3.509   1.847
  191SAPI    H621984   4.978   3.399   1.831
  191SAPI    O621985   5.088   3.527   1.944
  191SAPI   HO621986   5.071   3.463   2.014
  191SAPI   C1121987   4.850   3.561   1.894
  191SAPI    H121988   4.860   3.673   1.899
  191SAPI     P21989   4.751   3.593   2.143
  191SAPI   O1321990   4.614   3.634   2.104
  191SAPI   O1421991   4.850   3.695   2.182
  191SAPI   O1221992   4.816   3.502   2.020
  191SAPI   O1121993   4.738   3.486   2.260
  191SAPI    C121994   4.616   3.456   2.329
  191SAPI    HA21995   4.529   3.472   2.261
  191SAPI    HB21996   4.618   3.348   2.355
  191SAPI    C221997   4.589   3.544   2.456
  191SAPI    HS21998   4.615   3.650   2.435
  191SAPI   O2121999   4.660   3.499   2.571
  191SAPI   C2122000   4.788   3.521   2.576
  191SAPI   O2222001   4.858   3.585   2.500
  191SAPI   C2222002   4.834   3.453   2.700
  191SAPI   H2R22003   4.784   3.490   2.792
  191SAPI   H2S22004   4.808   3.345   2.691
  191SAPI    C322005   4.438   3.543   2.496
  191SAPI    HX22006   4.404   3.441   2.525
  191SAPI    HY22007   4.378   3.570   2.407
  191SAPI   O3122008   4.412   3.640   2.599
  191SAPI   C3122009   4.403   3.595   2.724
  191SAPI   O3222010   4.411   3.479   2.759
  191SAPI   C3222011   4.377   3.712   2.818
  191SAPI   H2X22012   4.268   3.713   2.838
  191SAPI   H2Y22013   4.403   3.807   2.768
  191SAPI   C2322014   4.983   3.459   2.709
  191SAPI   H3R22015   5.046   3.419   2.626
  191SAPI   H3S22016   4.987   3.401   2.801
  191SAPI   C2422017   5.055   3.578   2.754
  191SAPI   H4R22018   5.044   3.644   2.668
  191SAPI   H4S22019   5.163   3.547   2.763
  191SAPI   C2522020   4.985   3.614   2.882
  191SAPI   H5R22021   4.884   3.649   2.887
  191SAPI   C2622022   5.054   3.633   2.987
  191SAPI   H6R22023   5.020   3.634   3.091
  191SAPI   C2722024   5.188   3.624   2.991
  191SAPI   H7R22025   5.233   3.713   3.042
  191SAPI   H7S22026   5.243   3.642   2.899
  191SAPI   C2822027   5.191   3.480   3.045
  191SAPI   H8R22028   5.263   3.427   2.982
  191SAPI   C2922029   5.162   3.422   3.166
  191SAPI   H9R22030   5.232   3.343   3.193
  191SAPI  C21022031   5.113   3.459   3.302
  191SAPI  H10R22032   5.030   3.406   3.333
  191SAPI  H10S22033   5.061   3.560   3.290
  191SAPI  C21122034   5.232   3.424   3.402
  191SAPI  H11R22035   5.322   3.474   3.422
  191SAPI  C21222036   5.264   3.418   3.529
  191SAPI  H12R22037   5.335   3.494   3.584
  191SAPI  C21322038   5.167   3.444   3.615
  191SAPI  H13R22039   5.202   3.464   3.716
  191SAPI  H13S22040   5.237   3.354   3.614
  191SAPI  C21422041   5.018   3.419   3.573
  191SAPI  H14R22042   4.985   3.317   3.555
  191SAPI  C21522043   4.909   3.480   3.555
  191SAPI  H15R22044   4.820   3.417   3.548
  191SAPI  C21622045   4.901   3.618   3.574
  191SAPI  H16R22046   4.814   3.670   3.538
  191SAPI  H16S22047   4.968   3.656   3.496
  191SAPI  C21722048   4.937   3.638   3.720
  191SAPI  H17R22049   4.906   3.745   3.714
  191SAPI  H17S22050   5.044   3.615   3.750
  191SAPI  C21822051   4.851   3.622   3.836
  191SAPI  H18R22052   4.845   3.513   3.835
  191SAPI  H18S22053   4.758   3.677   3.806
  191SAPI  C21922054   4.913   3.674   3.966
  191SAPI  H19R22055   5.018   3.638   3.984
  191SAPI  H19S22056   4.846   3.630   4.042
  191SAPI  C22022057   4.904   3.823   3.992
  191SAPI  H20R22058   4.952   3.882   3.918
  191SAPI  H20S22059   4.954   3.848   4.086
  191SAPI  H20T22060   4.804   3.866   3.979
  191SAPI   C3322061   4.456   3.692   2.949
  191SAPI   H3X22062   4.442   3.590   2.992
  191SAPI   H3Y22063   4.417   3.762   3.026
  191SAPI   C3422064   4.605   3.714   2.924
  191SAPI   H4X22065   4.620   3.797   2.850
  191SAPI   H4Y22066   4.651   3.625   2.877
  191SAPI   C3522067   4.685   3.756   3.047
  191SAPI   H5X22068   4.662   3.861   3.077
  191SAPI   H5Y22069   4.787   3.748   3.012
  191SAPI   C3622070   4.694   3.668   3.170
  191SAPI   H6X22071   4.596   3.682   3.219
  191SAPI   H6Y22072   4.775   3.707   3.238
  191SAPI   C3722073   4.725   3.522   3.137
  191SAPI   H7X22074   4.825   3.512   3.089
  191SAPI   H7Y22075   4.648   3.487   3.065
  191SAPI   C3822076   4.727   3.436   3.264
  191SAPI   H8X22077   4.633   3.444   3.321
  191SAPI   H8Y22078   4.812   3.475   3.325
  191SAPI   C3922079   4.756   3.290   3.235
  191SAPI   H9X22080   4.857   3.295   3.196
  191SAPI   H9Y22081   4.700   3.250   3.149
  191SAPI  C31022082   4.755   3.198   3.358
  191SAPI  H10X22083   4.809   3.244   3.443
  191SAPI  H10Y22084   4.813   3.110   3.326
  191SAPI  C31122085   4.616   3.154   3.406
  191SAPI  H11X22086   4.557   3.127   3.316
  191SAPI  H11Y22087   4.568   3.242   3.455
  191SAPI  C31222088   4.612   3.032   3.502
  191SAPI  H12X22089   4.653   2.946   3.445
  191SAPI  H12Y22090   4.508   3.002   3.530
  191SAPI  C31322091   4.689   3.047   3.633
  191SAPI  H13X22092   4.792   3.078   3.608
  191SAPI  H13Y22093   4.693   2.948   3.683
  191SAPI  C31422094   4.631   3.148   3.732
  191SAPI  H14X22095   4.608   3.244   3.682
  191SAPI  H14Y22096   4.708   3.171   3.806
  191SAPI  C31522097   4.508   3.098   3.809
  191SAPI  H15X22098   4.525   2.998   3.855
  191SAPI  H15Y22099   4.431   3.082   3.730
  191SAPI  C31622100   4.466   3.205   3.913
  191SAPI  H16X22101   4.369   3.183   3.963
  191SAPI  H16Y22102   4.449   3.299   3.858
  191SAPI  C31722103   4.565   3.234   4.028
  191SAPI  H17X22104   4.532   3.326   4.079
  191SAPI  H17Y22105   4.665   3.258   3.990
  191SAPI  C31822106   4.569   3.122   4.133
  191SAPI  H18X22107   4.606   3.157   4.232
  191SAPI  H18Y22108   4.633   3.038   4.100
  191SAPI  H18Z22109   4.464   3.088   4.146
  192SAPI   C1222110   1.076   2.034   1.871
  192SAPI    H222111   1.102   1.943   1.932
  192SAPI    O222112   1.185   2.127   1.879
  192SAPI   HO222113   1.159   2.203   1.829
  192SAPI   C1322114   1.051   1.989   1.727
  192SAPI    H322115   0.979   1.907   1.733
  192SAPI    O322116   1.166   1.935   1.661
  192SAPI   HO322117   1.217   1.875   1.718
  192SAPI   C1422118   0.997   2.109   1.648
  192SAPI    H422119   1.073   2.189   1.647
  192SAPI    O422120   0.981   2.076   1.509
  192SAPI   HO422121   0.929   1.996   1.506
  192SAPI   C1522122   0.870   2.168   1.712
  192SAPI    H522123   0.788   2.095   1.714
  192SAPI    O522124   0.820   2.278   1.637
  192SAPI   HO522125   0.727   2.287   1.662
  192SAPI   C1622126   0.894   2.210   1.856
  192SAPI    H622127   0.971   2.290   1.859
  192SAPI    O622128   0.776   2.266   1.916
  192SAPI   HO622129   0.794   2.285   2.009
  192SAPI   C1122130   0.944   2.088   1.931
  192SAPI    H122131   0.865   2.009   1.919
  192SAPI     P22132   0.880   2.038   2.187
  192SAPI   O1322133   0.926   1.898   2.191
  192SAPI   O1422134   0.736   2.065   2.171
  192SAPI   O1222135   0.964   2.121   2.068
  192SAPI   O1122136   0.935   2.114   2.313
  192SAPI    C122137   0.965   2.254   2.308
  192SAPI    HA22138   1.073   2.267   2.330
  192SAPI    HB22139   0.944   2.303   2.210
  192SAPI    C222140   0.881   2.332   2.410
  192SAPI    HS22141   0.930   2.430   2.427
  192SAPI   O2122142   0.871   2.263   2.533
  192SAPI   C2122143   0.975   2.218   2.594
  192SAPI   O2222144   1.092   2.244   2.579
  192SAPI   C2222145   0.922   2.121   2.688
  192SAPI   H2R22146   0.987   2.107   2.775
  192SAPI   H2S22147   0.825   2.159   2.730
  192SAPI    C322148   0.734   2.355   2.363
  192SAPI    HX22149   0.689   2.256   2.338
  192SAPI    HY22150   0.728   2.416   2.271
  192SAPI   O3122151   0.662   2.424   2.467
  192SAPI   C3122152   0.585   2.347   2.545
  192SAPI   O3222153   0.548   2.234   2.523
  192SAPI   C3222154   0.554   2.430   2.665
  192SAPI   H2X22155   0.494   2.512   2.623
  192SAPI   H2Y22156   0.651   2.464   2.708
  192SAPI   C2322157   0.910   1.984   2.612
  192SAPI   H3R22158   0.997   1.953   2.553
  192SAPI   H3S22159   0.826   1.990   2.535
  192SAPI   C2422160   0.915   1.867   2.708
  192SAPI   H4R22161   0.963   1.854   2.800
  192SAPI   H4S22162   0.909   1.766   2.671
  192SAPI   C2522163   0.799   1.923   2.757
  192SAPI   H5R22164   0.725   1.925   2.670
  192SAPI   C2622165   0.767   1.959   2.881
  192SAPI   H6R22166   0.668   1.946   2.898
  192SAPI   C2722167   0.823   1.960   3.015
  192SAPI   H7R22168   0.780   2.042   3.074
  192SAPI   H7S22169   0.908   2.007   2.974
  192SAPI   C2822170   0.838   1.841   3.105
  192SAPI   H8R22171   0.855   1.744   3.055
  192SAPI   C2922172   0.826   1.836   3.240
  192SAPI   H9R22173   0.868   1.745   3.285
  192SAPI  C21022174   0.794   1.942   3.345
  192SAPI  H10R22175   0.691   1.941   3.363
  192SAPI  H10S22176   0.829   2.045   3.325
  192SAPI  C21122177   0.803   1.907   3.487
  192SAPI  H11R22178   0.860   1.819   3.497
  192SAPI  C21222179   0.748   1.948   3.598
  192SAPI  H12R22180   0.770   1.894   3.690
  192SAPI  C21322181   0.649   2.050   3.613
  192SAPI  H13R22182   0.591   2.029   3.699
  192SAPI  H13S22183   0.575   2.028   3.545
  192SAPI  C21422184   0.641   2.183   3.562
  192SAPI  H14R22185   0.635   2.188   3.452
  192SAPI  C21522186   0.615   2.279   3.648
  192SAPI  H15R22187   0.611   2.378   3.610
  192SAPI  C21622188   0.593   2.269   3.796
  192SAPI  H16R22189   0.495   2.229   3.800
  192SAPI  H16S22190   0.558   2.366   3.833
  192SAPI  C21722191   0.704   2.206   3.891
  192SAPI  H17R22192   0.752   2.301   3.925
  192SAPI  H17S22193   0.773   2.144   3.831
  192SAPI  C21822194   0.686   2.134   4.030
  192SAPI  H18R22195   0.620   2.193   4.090
  192SAPI  H18S22196   0.769   2.149   4.098
  192SAPI  C21922197   0.660   1.982   4.056
  192SAPI  H19R22198   0.582   1.975   3.995
  192SAPI  H19S22199   0.597   1.950   4.141
  192SAPI  C22022200   0.721   1.866   3.984
  192SAPI  H20R22201   0.652   1.779   3.983
  192SAPI  H20S22202   0.805   1.848   4.052
  192SAPI  H20T22203   0.748   1.892   3.880
  192SAPI   C3322204   0.466   2.359   2.769
  192SAPI   H3X22205   0.522   2.273   2.810
  192SAPI   H3Y22206   0.375   2.321   2.718
  192SAPI   C3422207   0.423   2.454   2.881
  192SAPI   H4X22208   0.337   2.412   2.937
  192SAPI   H4Y22209   0.378   2.545   2.837
  192SAPI   C3522210   0.538   2.487   2.978
  192SAPI   H5X22211   0.519   2.582   3.031
  192SAPI   H5Y22212   0.636   2.499   2.927
  192SAPI   C3622213   0.557   2.381   3.086
  192SAPI   H6X22214   0.603   2.289   3.046
  192SAPI   H6Y22215   0.458   2.362   3.136
  192SAPI   C3722216   0.646   2.428   3.197
  192SAPI   H7X22217   0.655   2.357   3.281
  192SAPI   H7Y22218   0.578   2.504   3.232
  192SAPI   C3822219   0.779   2.494   3.155
  192SAPI   H8X22220   0.833   2.524   3.246
  192SAPI   H8Y22221   0.759   2.587   3.098
  192SAPI   C3922222   0.876   2.406   3.082
  192SAPI   H9X22223   0.975   2.458   3.075
  192SAPI   H9Y22224   0.832   2.389   2.982
  192SAPI  C31022225   0.896   2.267   3.138
  192SAPI  H10X22226   0.949   2.208   3.059
  192SAPI  H10Y22227   0.806   2.211   3.166
  192SAPI  C31122228   0.988   2.269   3.253
  192SAPI  H11X22229   1.063   2.345   3.217
  192SAPI  H11Y22230   1.019   2.161   3.258
  192SAPI  C31222231   0.958   2.328   3.387
  192SAPI  H12X22232   0.876   2.264   3.422
  192SAPI  H12Y22233   0.937   2.435   3.372
  192SAPI  C31322234   1.065   2.332   3.492
  192SAPI  H13X22235   1.166   2.369   3.473
  192SAPI  H13Y22236   1.073   2.234   3.534
  192SAPI  C31422237   1.017   2.345   3.628
  192SAPI  H14X22238   0.924   2.288   3.652
  192SAPI  H14Y22239   1.001   2.440   3.663
  192SAPI  C31522240   1.133   2.319   3.714
  192SAPI  H15X22241   1.198   2.399   3.734
  192SAPI  H15Y22242   1.186   2.219   3.701
  192SAPI  C31622243   1.079   2.326   3.846
  192SAPI  H16X22244   1.178   2.291   3.881
  192SAPI  H16Y22245   1.007   2.247   3.812
  192SAPI  C31722246   0.998   2.416   3.944
  192SAPI  H17X22247   0.908   2.441   3.892
  192SAPI  H17Y22248   1.060   2.497   3.960
  192SAPI  C31822249   0.960   2.397   4.097
  192SAPI  H18X22250   1.046   2.401   4.170
  192SAPI  H18Y22251   0.904   2.304   4.117
  192SAPI  H18Z22252   0.902   2.481   4.133
  193SOD    SOD22253   2.902   7.157   1.056
  194SOD    SOD22254   7.034   3.661   1.048
  195SOD    SOD22255   2.250   4.552   8.430
  196SOD    SOD22256   0.913   7.246   7.081
  197SOD    SOD22257   0.720   5.892   7.842
  198SOD    SOD22258   3.536   0.074   7.495
  199SOD    SOD22259   5.247   0.552   7.084
  200SOD    SOD22260   5.011   6.508   0.923
  201SOD    SOD22261   2.994   1.286   1.068
  202SOD    SOD22262   7.285   5.766   0.720
  203SOD    SOD22263   6.326   0.355   6.670
  204SOD    SOD22264   3.179   1.160   8.152
  205SOD    SOD22265   4.664   3.127   8.287
  206SOD    SOD22266   5.917   3.849   8.256
  207SOD    SOD22267   6.466   3.418   0.166
  208SOD    SOD22268   1.064   1.516   7.949
  209SOD    SOD22269   6.948   2.502   0.468
  210SOD    SOD22270   5.875   7.097   7.199
  211SOD    SOD22271   0.061   5.783   7.786
  212SOD    SOD22272   3.763  -0.019   8.479
  213SOD    SOD22273   6.068   2.298   0.036
  214SOD    SOD22274   3.885   1.928   0.903
  215SOD    SOD22275   3.030   4.386   8.376
  216SOD    SOD22276   3.955   2.260   6.844
  217SOD    SOD22277   0.317   0.750   8.391
  218SOD    SOD22278   6.399   1.756   0.061
  219SOD    SOD22279   3.862   0.462   0.097
  220SOD    SOD22280   1.110   2.008   7.976
  221SOD    SOD22281   2.935   3.942   0.392
  222SOD    SOD22282   3.395   6.238   7.737
  223SOD    SOD22283   5.276   4.748   0.341
  224SOD    SOD22284   2.737   2.617   7.773
  225SOD    SOD22285   3.392   0.168   8.526
  226SOD    SOD22286   5.588   2.177   1.460
  227SOD    SOD22287   7.263   0.029   8.371
  228SOD    SOD22288   2.143   4.505   6.933
  229SOD    SOD22289   5.907  -0.031   1.573
  230SOD    SOD22290   0.885   0.658   0.778
  231SOD    SOD22291   4.214   2.493   7.804
  232SOD    SOD22292   2.984   3.900   7.318
  233SOD    SOD22293   0.564   3.884   0.521
  234CLA    CLA22294   0.612   4.932   7.109
  235CLA    CLA22295   5.541   1.493   0.565
  236CLA    CLA22296  -0.031   6.548   0.858
  237CLA    CLA22297   1.371   7.242   7.460
  238CLA    CLA22298   0.522   0.015   0.703
  239CLA    CLA22299   1.683   4.770   1.449
  240CLA    CLA22300   4.041   6.747   1.408
  241CLA    CLA22301   5.415   6.480   8.087
  242CLA    CLA22302   2.063   3.619   0.543
  243CLA    CLA22303   2.280   0.540   8.479
  244CLA    CLA22304   2.808   4.669   6.497
  245CLA    CLA22305   0.090   0.183   2.397
  246CLA    CLA22306   5.094   4.904   8.071
  247CLA    CLA22307   2.082   0.447   6.726
  248CLA    CLA22308   3.079   0.594   1.321
  249CLA    CLA22309   1.011   1.753   0.724
  250CLA    CLA22310   2.395   2.713   7.534
  251TIP3   OH222311   3.524   3.825   6.129
  251TIP3    H122312   3.568   3.879   6.065
  251TIP3    H222313   3.431   3.824   6.097
  252TIP3   OH222314   3.123   2.867   6.225
  252TIP3    H122315   3.144   2.957   6.189
  252TIP3    H222316   3.208   2.839   6.257
  253TIP3   OH222317   3.094   3.339   6.305
  253TIP3    H122318   3.144   3.398   6.360
  253TIP3    H222319   3.092   3.381   6.219
  254TIP3   OH222320   2.666   3.729   6.222
  254TIP3    H122321   2.638   3.645   6.180
  254TIP3    H222322   2.739   3.708   6.278
  255TIP3   OH222323   2.376   3.583   6.290
  255TIP3    H122324   2.448   3.546   6.234
  255TIP3    H222325   2.355   3.515   6.352
  256TIP3   OH222326   2.686   3.310   6.278
  256TIP3    H122327   2.709   3.352   6.362
  256TIP3    H222328   2.693   3.216   6.298
  257TIP3   OH222329   2.957   4.930   6.011
  257TIP3    H122330   2.977   4.998   6.076
  257TIP3    H222331   2.872   4.896   6.041
  258TIP3   OH222332   2.991   4.747   6.291
  258TIP3    H122333   2.950   4.670   6.335
  258TIP3    H222334   3.042   4.710   6.219
  259TIP3   OH222335   4.092   4.995   6.285
  259TIP3    H122336   4.110   5.088   6.302
  259TIP3    H222337   4.024   4.992   6.217
  260TIP3   OH222338   3.306   2.470   6.286
  260TIP3    H122339   3.226   2.524   6.287
  260TIP3    H222340   3.332   2.462   6.378
  261TIP3   OH222341   2.449   2.936   6.204
  261TIP3    H122342   2.516   2.909   6.268
  261TIP3    H222343   2.451   2.861   6.143
  262TIP3   OH222344   4.429   2.017   6.251
  262TIP3    H122345   4.463   2.105   6.224
  262TIP3    H222346   4.350   2.041   6.298
  263TIP3   OH222347   4.830   2.073   6.276
  263TIP3    H122348   4.790   2.145   6.326
  263TIP3    H222349   4.917   2.106   6.254
  264TIP3   OH222350   1.843   3.813   6.426
  264TIP3    H122351   1.886   3.762   6.355
  264TIP3    H222352   1.893   3.895   6.424
  265TIP3   OH222353   2.837   5.621   6.183
  265TIP3    H122354   2.773   5.604   6.252
  265TIP3    H222355   2.882   5.703   6.210
  266TIP3   OH222356   1.810   4.837   6.251
  266TIP3    H122357   1.865   4.768   6.286
  266TIP3    H222358   1.742   4.784   6.203
  267TIP3   OH222359   1.361   4.666   6.254
  267TIP3    H122360   1.317   4.714   6.324
  267TIP3    H222361   1.355   4.574   6.278
  268TIP3   OH222362   1.606   4.613   6.444
  268TIP3    H122363   1.556   4.533   6.452
  268TIP3    H222364   1.676   4.590   6.383
  269TIP3   OH222365   4.612   1.718   6.155
  269TIP3    H122366   4.543   1.778   6.122
  269TIP3    H222367   4.690   1.751   6.112
  270TIP3   OH222368   4.490   1.550   6.358
  270TIP3    H122369   4.462   1.475   6.304
  270TIP3    H222370   4.538   1.602   6.292
  271TIP3   OH222371   4.566   1.119   6.183
  271TIP3    H122372   4.586   1.104   6.275
  271TIP3    H222373   4.535   1.035   6.149
  272TIP3   OH222374   1.201   3.824   6.230
  272TIP3    H122375   1.297   3.817   6.233
  272TIP3    H222376   1.180   3.846   6.322
  273TIP3   OH222377   2.195   5.828   6.317
  273TIP3    H122378   2.126   5.768   6.345
  273TIP3    H222379   2.244   5.847   6.397
  274TIP3   OH222380   3.007   6.107   6.372
  274TIP3    H122381   2.916   6.127   6.394
  274TIP3    H222382   3.009   6.102   6.275
  275TIP3   OH222383   3.147   6.402   6.285
  275TIP3    H122384   3.095   6.408   6.365
  275TIP3    H222385   3.217   6.465   6.304
  276TIP3   OH222386   3.147   5.937   6.167
  276TIP3    H122387   3.135   6.033   6.153
  276TIP3    H222388   3.241   5.925   6.153
  277TIP3   OH222389   0.776   4.114   6.316
  277TIP3    H122390   0.760   4.026   6.351
  277TIP3    H222391   0.801   4.161   6.397
  278TIP3   OH222392   3.455   0.758   6.214
  278TIP3    H122393   3.530   0.741   6.273
  278TIP3    H222394   3.382   0.768   6.272
  279TIP3   OH222395   2.912   0.539   6.246
  279TIP3    H122396   2.992   0.516   6.202
  279TIP3    H222397   2.916   0.546   6.341
  280TIP3   OH222398   4.201   0.478   6.210
  280TIP3    H122399   4.171   0.536   6.278
  280TIP3    H222400   4.175   0.393   6.244
  281TIP3   OH222401   2.643   6.843   6.227
  281TIP3    H122402   2.659   6.751   6.247
  281TIP3    H222403   2.722   6.879   6.186
  282TIP3   OH222404   2.281   6.826   6.328
  282TIP3    H122405   2.208   6.885   6.314
  282TIP3    H222406   2.303   6.790   6.240
  283TIP3   OH222407   1.749   6.069   6.415
  283TIP3    H122408   1.712   6.132   6.353
  283TIP3    H222409   1.688   5.996   6.417
  284TIP3   OH222410   1.432   6.260   6.356
  284TIP3    H122411   1.394   6.184   6.312
  284TIP3    H222412   1.367   6.330   6.345
  285TIP3   OH222413   1.754   6.444   6.326
  285TIP3    H122414   1.815   6.485   6.264
  285TIP3    H222415   1.703   6.390   6.263
  286TIP3   OH222416   1.526   6.022   6.184
  286TIP3    H122417   1.489   5.950   6.131
  286TIP3    H222418   1.538   5.975   6.267
  287TIP3   OH222419   4.875   6.467   6.266
  287TIP3    H122420   4.953   6.514   6.234
  287TIP3    H222421   4.815   6.541   6.281
  288TIP3   OH222422   0.545   2.183   6.381
  288TIP3    H122423   0.526   2.236   6.303
  288TIP3    H222424   0.480   2.113   6.377
  289TIP3   OH222425   0.355   2.504   6.192
  289TIP3    H122426   0.395   2.495   6.276
  289TIP3    H222427   0.401   2.436   6.139
  290TIP3   OH222428   0.814   2.407   6.242
  290TIP3    H122429   0.772   2.475   6.293
  290TIP3    H222430   0.902   2.399   6.282
  291TIP3   OH222431   7.334   4.783   6.304
  291TIP3    H122432   7.242   4.777   6.286
  291TIP3    H222433   7.350   4.876   6.322
  292TIP3   OH222434   0.070   5.336   6.369
  292TIP3    H122435   0.160   5.362   6.347
  292TIP3    H222436   0.029   5.421   6.394
  293TIP3   OH222437   7.223   5.489   6.150
  293TIP3    H122438   7.318   5.496   6.134
  293TIP3    H222439   7.209   5.394   6.142
  294TIP3   OH222440   0.207   5.770   6.080
  294TIP3    H122441   0.178   5.682   6.104
  294TIP3    H222442   0.217   5.818   6.162
  295TIP3   OH222443   1.481   6.724   6.112
  295TIP3    H122444   1.387   6.744   6.100
  295TIP3    H222445   1.526   6.809   6.102
  296TIP3   OH222446   0.991   6.781   6.287
  296TIP3    H122447   0.959   6.856   6.337
  296TIP3    H222448   0.980   6.706   6.346
  297TIP3   OH222449   1.386   0.432   6.261
  297TIP3    H122450   1.471   0.460   6.223
  297TIP3    H222451   1.402   0.432   6.355
  298TIP3   OH222452   6.516   0.382   6.244
  298TIP3    H122453   6.523   0.401   6.338
  298TIP3    H222454   6.495   0.462   6.199
  299TIP3   OH222455   6.723   0.190   6.257
  299TIP3    H122456   6.665   0.266   6.250
  299TIP3    H222457   6.672   0.123   6.208
  300TIP3   OH222458   6.316   7.296   6.311
  300TIP3    H122459   6.346   7.227   6.372
  300TIP3    H222460   6.221   7.278   6.304
  301TIP3   OH222461   4.163   3.714   2.256
  301TIP3    H122462   4.194   3.654   2.186
  301TIP3    H222463   4.128   3.788   2.207
  302TIP3   OH222464   3.830   3.798   2.157
  302TIP3    H122465   3.897   3.866   2.157
  302TIP3    H222466   3.846   3.744   2.236
  303TIP3   OH222467   4.172   4.184   2.357
  303TIP3    H122468   4.097   4.237   2.386
  303TIP3    H222469   4.131   4.109   2.314
  304TIP3   OH222470   4.374   5.010   2.213
  304TIP3    H122471   4.364   5.019   2.117
  304TIP3    H222472   4.301   5.060   2.251
  305TIP3   OH222473   3.891   5.117   2.258
  305TIP3    H122474   3.810   5.085   2.299
  305TIP3    H222475   3.860   5.187   2.199
  306TIP3   OH222476   4.155   5.248   2.105
  306TIP3    H122477   4.080   5.301   2.083
  306TIP3    H222478   4.123   5.156   2.106
  307TIP3   OH222479   4.091   4.980   2.087
  307TIP3    H122480   4.037   4.985   2.166
  307TIP3    H222481   4.041   4.939   2.016
  308TIP3   OH222482   3.411   5.193   2.107
  308TIP3    H122483   3.383   5.276   2.066
  308TIP3    H222484   3.327   5.146   2.124
  309TIP3   OH222485   3.302   5.034   2.382
  309TIP3    H122486   3.245   4.999   2.311
  309TIP3    H222487   3.363   4.965   2.402
  310TIP3   OH222488   3.630   5.047   2.209
  310TIP3    H122489   3.561   5.108   2.173
  310TIP3    H222490   3.695   5.043   2.138
  311TIP3   OH222491   3.724   5.414   2.405
  311TIP3    H122492   3.627   5.403   2.421
  311TIP3    H222493   3.752   5.324   2.395
  312TIP3   OH222494   2.837   5.659   2.274
  312TIP3    H122495   2.775   5.611   2.332
  312TIP3    H222496   2.802   5.748   2.270
  313TIP3   OH222497   2.438   5.467   2.208
  313TIP3    H122498   2.387   5.387   2.200
  313TIP3    H222499   2.378   5.537   2.233
  314TIP3   OH222500   5.041   2.007   2.050
  314TIP3    H122501   5.090   1.925   2.041
  314TIP3    H222502   5.094   2.059   2.111
  315TIP3   OH222503   5.265   1.678   2.297
  315TIP3    H122504   5.295   1.633   2.217
  315TIP3    H222505   5.330   1.635   2.358
  316TIP3   OH222506   4.994   1.618   2.388
  316TIP3    H122507   5.082   1.581   2.376
  316TIP3    H222508   4.937   1.541   2.395
  317TIP3   OH222509   6.129   3.965   2.302
  317TIP3    H122510   6.083   4.046   2.332
  317TIP3    H222511   6.064   3.897   2.316
  318TIP3   OH222512   4.816   1.503   2.250
  318TIP3    H122513   4.836   1.534   2.161
  318TIP3    H222514   4.872   1.570   2.293
  319TIP3   OH222515   4.698   1.030   2.264
  319TIP3    H122516   4.728   1.103   2.319
  319TIP3    H222517   4.656   0.984   2.339
  320TIP3   OH222518   4.449   1.287   2.168
  320TIP3    H122519   4.385   1.267   2.238
  320TIP3    H222520   4.523   1.322   2.220
  321TIP3   OH222521   5.974   2.160   2.132
  321TIP3    H122522   5.957   2.165   2.228
  321TIP3    H222523   6.023   2.079   2.118
  322TIP3   OH222524   5.734   2.347   2.356
  322TIP3    H122525   5.789   2.425   2.371
  322TIP3    H222526   5.787   2.276   2.397
  323TIP3   OH222527   4.181   0.478   2.372
  323TIP3    H122528   4.235   0.456   2.297
  323TIP3    H222529   4.202   0.571   2.387
  324TIP3   OH222530   4.386   0.940   2.271
  324TIP3    H122531   4.357   0.849   2.289
  324TIP3    H222532   4.440   0.965   2.346
  325TIP3   OH222533   4.131   0.954   2.085
  325TIP3    H122534   4.075   1.031   2.099
  325TIP3    H222535   4.196   0.983   2.020
  326TIP3   OH222536   4.354   6.604   2.176
  326TIP3    H122537   4.280   6.574   2.232
  326TIP3    H222538   4.428   6.560   2.219
  327TIP3   OH222539   4.242   6.359   2.339
  327TIP3    H122540   4.326   6.403   2.361
  327TIP3    H222541   4.262   6.314   2.256
  328TIP3   OH222542   6.541   2.671   2.129
  328TIP3    H122543   6.467   2.721   2.094
  328TIP3    H222544   6.538   2.692   2.224
  329TIP3   OH222545   6.238   2.668   2.240
  329TIP3    H122546   6.197   2.600   2.188
  329TIP3    H222547   6.162   2.728   2.251
  330TIP3   OH222548   6.421   2.971   2.426
  330TIP3    H122549   6.444   2.891   2.379
  330TIP3    H222550   6.503   3.008   2.459
  331TIP3   OH222551   1.681   1.112   2.182
  331TIP3    H122552   1.699   1.147   2.271
  331TIP3    H222553   1.644   1.026   2.197
  332TIP3   OH222554   6.436   4.916   2.229
  332TIP3    H122555   6.522   4.922   2.189
  332TIP3    H222556   6.438   4.830   2.274
  333TIP3   OH222557   1.357   5.694   2.330
  333TIP3    H122558   1.411   5.771   2.309
  333TIP3    H222559   1.414   5.621   2.303
  334TIP3   OH222560   0.922   5.909   2.209
  334TIP3    H122561   0.872   5.828   2.203
  334TIP3    H222562   0.982   5.893   2.285
  335TIP3   OH222563   1.136   1.688   2.266
  335TIP3    H122564   1.171   1.691   2.177
  335TIP3    H222565   1.142   1.780   2.294
  336TIP3   OH222566   0.860   1.277   2.282
  336TIP3    H122567   0.934   1.337   2.304
  336TIP3    H222568   0.815   1.277   2.367
  337TIP3   OH222569   6.818   3.384   2.302
  337TIP3    H122570   6.787   3.441   2.231
  337TIP3    H222571   6.878   3.443   2.350
  338TIP3   OH222572   7.252   3.070   2.225
  338TIP3    H122573   7.348   3.068   2.217
  338TIP3    H222574   7.221   2.990   2.183
  339TIP3   OH222575   6.781   3.129   2.392
  339TIP3    H122576   6.777   3.225   2.372
  339TIP3    H222577   6.877   3.122   2.410
  340TIP3   OH222578   4.289   7.084   2.318
  340TIP3    H122579   4.255   7.000   2.351
  340TIP3    H222580   4.347   7.057   2.248
  341TIP3   OH222581   4.133   0.154   2.187
  341TIP3    H122582   4.130   0.083   2.252
  341TIP3    H222583   4.111   0.229   2.247
  342TIP3   OH222584   1.874   6.856   2.188
  342TIP3    H122585   1.855   6.783   2.130
  342TIP3    H222586   1.944   6.832   2.247
  343TIP3   OH222587   1.988   7.154   2.178
  343TIP3    H122588   2.040   7.165   2.261
  343TIP3    H222589   1.903   7.192   2.202
  344TIP3   OH222590   4.968   6.786   2.282
  344TIP3    H122591   5.021   6.707   2.292
  344TIP3    H222592   4.880   6.758   2.312
  345TIP3   OH222593   5.194   6.942   2.211
  345TIP3    H122594   5.215   6.869   2.154
  345TIP3    H222595   5.119   6.907   2.261
  346TIP3   OH222596   5.135   7.208   2.116
  346TIP3    H122597   5.162   7.195   2.209
  346TIP3    H222598   5.161   7.124   2.081
  347TIP3   OH222599   7.200   2.706   2.326
  347TIP3    H122600   7.217   2.699   2.232
  347TIP3    H222601   7.130   2.770   2.335
  348TIP3   OH222602   5.653   7.055   2.249
  348TIP3    H122603   5.713   6.994   2.295
  348TIP3    H222604   5.619   7.003   2.176
  349TIP3   OH222605   6.794   1.031   2.240
  349TIP3    H122606   6.799   1.040   2.336
  349TIP3    H222607   6.705   0.991   2.234
  350TIP3   OH222608   6.979   1.410   2.147
  350TIP3    H122609   6.965   1.356   2.227
  350TIP3    H222610   6.931   1.489   2.168
  351TIP3   OH222611   6.623   1.210   2.320
  351TIP3    H122612   6.560   1.160   2.268
  351TIP3    H222613   6.565   1.251   2.389
  352TIP3   OH222614   1.460   7.267   2.087
  352TIP3    H122615   1.452   7.303   2.177
  352TIP3    H222616   1.555   7.243   2.090
  353TIP3   OH222617   1.217   7.056   2.303
  353TIP3    H122618   1.201   6.970   2.266
  353TIP3    H222619   1.127   7.087   2.325
  354TIP3   OH222620   0.552   7.208   2.219
  354TIP3    H122621   0.613   7.235   2.148
  354TIP3    H222622   0.575   7.275   2.285
  355TIP3   OH222623   0.643   0.417   2.240
  355TIP3    H122624   0.603   0.377   2.163
  355TIP3    H222625   0.703   0.483   2.202
  356TIP3   OH222626   7.189   0.051   2.178
  356TIP3    H122627   7.237   0.008   2.251
  356TIP3    H222628   7.101   0.060   2.212
  357TIP3   OH222629   1.184   1.006   6.930
  357TIP3    H122630   1.187   1.104   6.927
  357TIP3    H222631   1.114   0.982   6.871
  358TIP3   OH222632   1.070   0.932   7.278
  358TIP3    H122633   1.070   0.868   7.349
  358TIP3    H222634   1.037   0.881   7.202
  359TIP3   OH222635   0.312   0.897   7.432
  359TIP3    H122636   0.318   0.830   7.503
  359TIP3    H222637   0.383   0.958   7.459
  360TIP3   OH222638   1.439   1.227   7.106
  360TIP3    H122639   1.401   1.154   7.156
  360TIP3    H222640   1.444   1.297   7.174
  361TIP3   OH222641   0.401   1.342   7.286
  361TIP3    H122642   0.367   1.257   7.252
  361TIP3    H222643   0.494   1.319   7.293
  362TIP3   OH222644   0.092   0.703   6.789
  362TIP3    H122645   0.043   0.780   6.828
  362TIP3    H222646   0.014   0.647   6.792
  363TIP3   OH222647   0.133   0.917   7.044
  363TIP3    H122648   0.161   0.840   7.096
  363TIP3    H222649   0.206   0.933   6.983
  364TIP3   OH222650   1.158   1.746   7.134
  364TIP3    H122651   1.215   1.672   7.101
  364TIP3    H222652   1.130   1.709   7.217
  365TIP3   OH222653   0.910   1.171   7.325
  365TIP3    H122654   0.944   1.108   7.260
  365TIP3    H222655   0.990   1.188   7.377
  366TIP3   OH222656   1.771   0.337   7.399
  366TIP3    H122657   1.788   0.396   7.476
  366TIP3    H222658   1.826   0.381   7.332
  367TIP3   OH222659   1.226   0.618   7.357
  367TIP3    H122660   1.242   0.521   7.357
  367TIP3    H222661   1.217   0.634   7.261
  368TIP3   OH222662   0.539   0.427   7.079
  368TIP3    H122663   0.550   0.511   7.031
  368TIP3    H222664   0.498   0.372   7.010
  369TIP3   OH222665   1.313   0.432   6.914
  369TIP3    H122666   1.378   0.406   6.984
  369TIP3    H222667   1.367   0.492   6.861
  370TIP3   OH222668   0.198   0.660   7.148
  370TIP3    H122669   0.270   0.612   7.194
  370TIP3    H222670   0.214   0.633   7.057
  371TIP3   OH222671   0.718   0.822   7.084
  371TIP3    H122672   0.783   0.765   7.127
  371TIP3    H222673   0.664   0.756   7.035
  372TIP3   OH222674   1.815   0.479   7.626
  372TIP3    H122675   1.751   0.552   7.616
  372TIP3    H222676   1.817   0.467   7.722
  373TIP3   OH222677   0.431   0.320   7.481
  373TIP3    H122678   0.399   0.376   7.408
  373TIP3    H222679   0.361   0.339   7.549
  374TIP3   OH222680   1.161   1.264   6.834
  374TIP3    H122681   1.124   1.238   6.749
  374TIP3    H222682   1.132   1.357   6.844
  375TIP3   OH222683   0.683   1.081   7.511
  375TIP3    H122684   0.610   1.145   7.528
  375TIP3    H222685   0.751   1.141   7.477
  376TIP3   OH222686   1.493   0.368   7.113
  376TIP3    H122687   1.469   0.294   7.170
  376TIP3    H222688   1.559   0.413   7.169
  377TIP3   OH222689   0.382   0.506   7.284
  377TIP3    H122690   0.447   0.571   7.319
  377TIP3    H222691   0.437   0.462   7.213
  378TIP3   OH222692   0.524   1.280   7.587
  378TIP3    H122693   0.519   1.373   7.555
  378TIP3    H222694   0.436   1.272   7.632
  379TIP3   OH222695   0.138   1.247   6.665
  379TIP3    H122696   0.102   1.272   6.579
  379TIP3    H222697   0.140   1.329   6.716
  380TIP3   OH222698   1.494   1.410   7.346
  380TIP3    H122699   1.397   1.420   7.357
  380TIP3    H222700   1.520   1.501   7.324
  381TIP3   OH222701   1.530   0.242   7.492
  381TIP3    H122702   1.453   0.297   7.474
  381TIP3    H222703   1.597   0.278   7.431
  382TIP3   OH222704   0.815   0.059   7.240
  382TIP3    H122705   0.805  -0.036   7.255
  382TIP3    H222706   0.726   0.088   7.270
  383TIP3   OH222707   1.318   1.587   7.002
  383TIP3    H122708   1.366   1.517   6.955
  383TIP3    H222709   1.360   1.668   6.964
  384TIP3   OH222710   1.441   1.382   6.854
  384TIP3    H122711   1.412   1.309   6.798
  384TIP3    H222712   1.445   1.334   6.940
  385TIP3   OH222713   1.603   1.240   7.704
  385TIP3    H122714   1.617   1.175   7.632
  385TIP3    H222715   1.623   1.325   7.661
  386TIP3   OH222716   1.791   0.871   7.509
  386TIP3    H122717   1.725   0.943   7.513
  386TIP3    H222718   1.840   0.894   7.428
  387TIP3   OH222719   1.389   0.767   7.684
  387TIP3    H122720   1.390   0.849   7.737
  387TIP3    H222721   1.326   0.796   7.615
  388TIP3   OH222722   0.558   1.016   6.965
  388TIP3    H122723   0.525   0.977   6.882
  388TIP3    H222724   0.620   0.947   6.999
  389TIP3   OH222725   0.594   0.890   7.330
  389TIP3    H122726   0.647   0.903   7.250
  389TIP3    H222727   0.629   0.958   7.392
  390TIP3   OH222728   1.228   1.449   7.399
  390TIP3    H122729   1.204   1.511   7.467
  390TIP3    H222730   1.206   1.362   7.440
  391TIP3   OH222731   0.689   1.337   7.797
  391TIP3    H122732   0.644   1.408   7.847
  391TIP3    H222733   0.619   1.313   7.730
  392TIP3   OH222734   0.380   0.952   7.718
  392TIP3    H122735   0.384   1.019   7.788
  392TIP3    H222736   0.286   0.961   7.694
  393TIP3   OH222737   0.513   1.536   7.874
  393TIP3    H122738   0.503   1.528   7.778
  393TIP3    H222739   0.419   1.525   7.901
  394TIP3   OH222740   1.653   0.061   6.507
  394TIP3    H122741   1.565   0.062   6.551
  394TIP3    H222742   1.675   0.151   6.481
  395TIP3   OH222743   0.463   0.918   6.716
  395TIP3    H122744   0.429   1.002   6.681
  395TIP3    H222745   0.389   0.856   6.716
  396TIP3   OH222746   0.122   1.148   7.589
  396TIP3    H122747   0.044   1.161   7.531
  396TIP3    H222748   0.084   1.070   7.636
  397TIP3   OH222749   0.068   1.457   7.268
  397TIP3    H122750   0.152   1.419   7.295
  397TIP3    H222751   0.040   1.506   7.346
  398TIP3   OH222752   1.863   1.505   7.859
  398TIP3    H122753   1.852   1.409   7.860
  398TIP3    H222754   1.777   1.530   7.903
  399TIP3   OH222755   0.962   1.456   7.761
  399TIP3    H122756   0.953   1.550   7.785
  399TIP3    H222757   0.870   1.423   7.768
  400TIP3   OH222758   1.015   1.836   6.726
  400TIP3    H122759   0.990   1.826   6.632
  400TIP3    H222760   1.003   1.931   6.744
  401TIP3   OH222761   0.361   1.726   6.914
  401TIP3    H122762   0.382   1.678   6.996
  401TIP3    H222763   0.285   1.678   6.880
  402TIP3   OH222764   1.307   1.751   6.425
  402TIP3    H122765   1.351   1.677   6.384
  402TIP3    H222766   1.309   1.732   6.520
  403TIP3   OH222767   1.279   1.747   6.703
  403TIP3    H122768   1.184   1.760   6.723
  403TIP3    H222769   1.303   1.677   6.765
  404TIP3   OH222770   1.578   0.651   7.908
  404TIP3    H122771   1.531   0.697   7.836
  404TIP3    H222772   1.577   0.559   7.878
  405TIP3   OH222773   0.294   1.300   7.715
  405TIP3    H122774   0.312   1.256   7.800
  405TIP3    H222775   0.210   1.256   7.688
  406TIP3   OH222776   0.559   0.139   7.304
  406TIP3    H122777   0.467   0.131   7.269
  406TIP3    H222778   0.547   0.222   7.353
  407TIP3   OH222779   1.020   0.113   7.646
  407TIP3    H122780   1.067   0.066   7.715
  407TIP3    H222781   0.926   0.097   7.662
  408TIP3   OH222782   1.353   0.487   7.730
  408TIP3    H122783   1.297   0.472   7.809
  408TIP3    H222784   1.337   0.581   7.706
  409TIP3   OH222785   0.569   0.636   7.428
  409TIP3    H122786   0.497   0.637   7.495
  409TIP3    H222787   0.567   0.728   7.393
  410TIP3   OH222788   0.567   0.653   6.915
  410TIP3    H122789   0.474   0.625   6.902
  410TIP3    H222790   0.606   0.617   6.832
  411TIP3   OH222791   1.116   0.698   6.788
  411TIP3    H122792   1.078   0.781   6.759
  411TIP3    H222793   1.190   0.681   6.727
  412TIP3   OH222794   1.025   0.722   7.938
  412TIP3    H122795   0.972   0.644   7.968
  412TIP3    H222796   1.108   0.708   7.985
  413TIP3   OH222797   1.222   0.649   7.076
  413TIP3    H122798   1.196   0.705   7.001
  413TIP3    H222799   1.232   0.563   7.031
  414TIP3   OH222800   0.335   0.663   7.599
  414TIP3    H122801   0.336   0.704   7.687
  414TIP3    H222802   0.285   0.582   7.618
  415TIP3   OH222803   0.032   0.403   6.976
  415TIP3    H122804   0.069   0.374   7.063
  415TIP3    H222805   0.052   0.329   6.920
  416TIP3   OH222806   0.143   0.475   6.574
  416TIP3    H122807   0.182   0.500   6.489
  416TIP3    H222808   0.051   0.501   6.566
  417TIP3   OH222809   1.142   0.808   7.534
  417TIP3    H122810   1.179   0.739   7.475
  417TIP3    H222811   1.096   0.754   7.601
  418TIP3   OH222812   0.821   0.398   7.016
  418TIP3    H122813   0.728   0.406   7.047
  418TIP3    H222814   0.871   0.393   7.099
  419TIP3   OH222815   0.306   0.564   6.897
  419TIP3    H122816   0.214   0.574   6.867
  419TIP3    H222817   0.331   0.477   6.864
  420TIP3   OH222818   0.664   0.570   6.668
  420TIP3    H122819   0.761   0.569   6.684
  420TIP3    H222820   0.650   0.632   6.598
  421TIP3   OH222821   1.262   0.332   7.339
  421TIP3    H122822   1.195   0.332   7.411
  421TIP3    H222823   1.213   0.299   7.263
  422TIP3   OH222824   1.581   1.896   7.978
  422TIP3    H122825   1.612   1.929   7.891
  422TIP3    H222826   1.657   1.923   8.033
  423TIP3   OH222827   0.349   1.136   7.934
  423TIP3    H122828   0.422   1.164   7.993
  423TIP3    H222829   0.272   1.152   7.990
  424TIP3   OH222830   0.951   0.679   7.205
  424TIP3    H122831   1.012   0.625   7.154
  424TIP3    H222832   0.936   0.626   7.284
  425TIP3   OH222833   0.449   0.299   6.848
  425TIP3    H122834   0.420   0.206   6.847
  425TIP3    H222835   0.528   0.293   6.792
  426TIP3   OH222836   0.815   0.517   7.446
  426TIP3    H122837   0.731   0.566   7.457
  426TIP3    H222838   0.869   0.549   7.521
  427TIP3   OH222839   0.875   1.138   6.620
  427TIP3    H122840   0.796   1.092   6.583
  427TIP3    H222841   0.854   1.147   6.712
  428TIP3   OH222842   1.591   1.055   7.498
  428TIP3    H122843   1.648   1.103   7.435
  428TIP3    H222844   1.505   1.061   7.451
  429TIP3   OH222845   1.026   1.162   7.744
  429TIP3    H122846   0.986   1.118   7.820
  429TIP3    H222847   0.994   1.252   7.749
  430TIP3   OH222848   1.331   0.609   6.604
  430TIP3    H122849   1.421   0.592   6.639
  430TIP3    H222850   1.341   0.683   6.544
  431TIP3   OH222851   0.382   1.075   7.194
  431TIP3    H122852   0.453   1.066   7.129
  431TIP3    H222853   0.391   0.991   7.243
  432TIP3   OH222854   0.080   0.914   7.724
  432TIP3    H122855   0.106   0.870   7.807
  432TIP3    H222856   0.021   0.850   7.681
  433TIP3   OH222857   0.784   0.871   7.942
  433TIP3    H122858   0.753   0.841   7.855
  433TIP3    H222859   0.877   0.840   7.941
  434TIP3   OH222860   1.251   1.406   7.734
  434TIP3    H122861   1.159   1.421   7.709
  434TIP3    H222862   1.255   1.430   7.828
  435TIP3   OH222863   1.808   0.630   6.581
  435TIP3    H122864   1.767   0.591   6.502
  435TIP3    H222865   1.831   0.719   6.547
  436TIP3   OH222866   1.818   1.209   7.856
  436TIP3    H122867   1.729   1.231   7.820
  436TIP3    H222868   1.873   1.204   7.775
  437TIP3   OH222869   1.645   1.506   6.613
  437TIP3    H122870   1.615   1.423   6.652
  437TIP3    H222871   1.681   1.486   6.527
  438TIP3   OH222872   1.369   0.988   7.325
  438TIP3    H122873   1.275   0.966   7.315
  438TIP3    H222874   1.412   0.911   7.283
  439TIP3   OH222875   0.809   1.604   7.526
  439TIP3    H122876   0.853   1.687   7.499
  439TIP3    H222877   0.870   1.571   7.593
  440TIP3   OH222878   1.163   1.209   7.494
  440TIP3    H122879   1.127   1.184   7.581
  440TIP3    H222880   1.223   1.136   7.473
  441TIP3   OH222881   1.434   1.668   7.743
  441TIP3    H122882   1.376   1.612   7.688
  441TIP3    H222883   1.463   1.732   7.674
  442TIP3   OH222884   1.838   1.751   6.422
  442TIP3    H122885   1.913   1.812   6.405
  442TIP3    H222886   1.768   1.810   6.457
  443TIP3   OH222887   0.248   0.387   7.677
  443TIP3    H122888   0.159   0.425   7.683
  443TIP3    H222889   0.234   0.302   7.721
  444TIP3   OH222890   0.227   1.572   7.516
  444TIP3    H122891   0.235   1.476   7.524
  444TIP3    H222892   0.235   1.596   7.609
  445TIP3   OH222893   1.120   0.366   7.575
  445TIP3    H122894   1.195   0.369   7.636
  445TIP3    H222895   1.086   0.276   7.590
  446TIP3   OH222896   1.205   0.321   6.680
  446TIP3    H122897   1.217   0.377   6.602
  446TIP3    H222898   1.252   0.370   6.748
  447TIP3   OH222899   0.915   0.504   6.765
  447TIP3    H122900   0.998   0.555   6.770
  447TIP3    H222901   0.893   0.487   6.858
  448TIP3   OH222902   0.975   0.601   7.684
  448TIP3    H122903   0.982   0.656   7.764
  448TIP3    H222904   1.040   0.531   7.694
  449TIP3   OH222905   1.008   0.202   6.865
  449TIP3    H122906   0.971   0.275   6.918
  449TIP3    H222907   1.069   0.256   6.807
  450TIP3   OH222908   1.593   0.389   7.770
  450TIP3    H122909   1.499   0.418   7.756
  450TIP3    H222910   1.621   0.384   7.677
  451TIP3   OH222911   1.453   0.767   7.174
  451TIP3    H122912   1.372   0.723   7.142
  451TIP3    H222913   1.501   0.696   7.222
  452TIP3   OH222914   1.559   1.692   7.337
  452TIP3    H122915   1.549   1.760   7.267
  452TIP3    H222916   1.656   1.698   7.354
  453TIP3   OH222917   0.289   0.119   7.223
  453TIP3    H122918   0.290   0.111   7.125
  453TIP3    H222919   0.267   0.028   7.246
  454TIP3   OH222920   0.155   1.765   7.959
  454TIP3    H122921   0.195   1.741   8.044
  454TIP3    H222922   0.102   1.684   7.943
  455TIP3   OH222923   0.593   1.651   8.122
  455TIP3    H122924   0.669   1.603   8.155
  455TIP3    H222925   0.589   1.625   8.028
  456TIP3   OH222926   1.267   1.480   7.993
  456TIP3    H122927   1.229   1.396   8.027
  456TIP3    H222928   1.336   1.499   8.060
  457TIP3   OH222929   0.111   1.135   8.062
  457TIP3    H122930   0.136   1.050   8.021
  457TIP3    H222931   0.044   1.167   8.000
  458TIP3   OH222932   0.792   1.140   7.994
  458TIP3    H122933   0.750   1.166   7.910
  458TIP3    H222934   0.796   1.041   7.987
  459TIP3   OH222935   1.357   1.125   7.739
  459TIP3    H122936   1.436   1.182   7.730
  459TIP3    H222937   1.287   1.191   7.741
  460TIP3   OH222938   0.204   0.861   7.998
  460TIP3    H122939   0.249   0.775   7.986
  460TIP3    H222940   0.182   0.863   8.091
  461TIP3   OH222941   0.669   0.974   6.506
  461TIP3    H122942   0.625   0.918   6.570
  461TIP3    H222943   0.698   0.912   6.434
  462TIP3   OH222944   0.598   0.756   7.734
  462TIP3    H122945   0.538   0.827   7.760
  462TIP3    H222946   0.637   0.793   7.653
  463TIP3   OH222947   1.105   1.016   8.074
  463TIP3    H122948   1.200   1.010   8.055
  463TIP3    H222949   1.088   0.936   8.126
  464TIP3   OH222950   0.639   0.495   7.838
  464TIP3    H122951   0.651   0.423   7.775
  464TIP3    H222952   0.632   0.575   7.783
  465TIP3   OH222953   0.678   0.335   7.592
  465TIP3    H122954   0.730   0.381   7.522
  465TIP3    H222955   0.589   0.323   7.551
  466TIP3   OH222956   0.833   0.880   7.619
  466TIP3    H122957   0.908   0.864   7.561
  466TIP3    H222958   0.797   0.964   7.586
  467TIP3   OH222959   1.273   0.655   8.115
  467TIP3    H122960   1.295   0.561   8.107
  467TIP3    H222961   1.360   0.698   8.116
  468TIP3   OH222962   1.407   0.936   7.933
  468TIP3    H122963   1.381   1.008   7.871
  468TIP3    H222964   1.503   0.932   7.911
  469TIP3   OH222965   0.482   0.618   8.036
  469TIP3    H122966   0.406   0.561   8.012
  469TIP3    H222967   0.547   0.586   7.970
  470TIP3   OH222968   0.741   0.097   7.662
  470TIP3    H122969   0.737   0.189   7.629
  470TIP3    H222970   0.686   0.052   7.596
  471TIP3   OH222971   0.883   0.512   7.996
  471TIP3    H122972   0.855   0.482   8.084
  471TIP3    H222973   0.806   0.489   7.941
  472TIP3   OH222974   1.157   0.424   7.904
  472TIP3    H122975   1.060   0.427   7.917
  472TIP3    H222976   1.185   0.361   7.973
  473TIP3   OH222977   1.313   0.295   8.098
  473TIP3    H122978   1.307   0.196   8.099
  473TIP3    H222979   1.287   0.317   8.190
  474TIP3   OH222980   0.309   0.413   8.011
  474TIP3    H122981   0.321   0.340   7.947
  474TIP3    H222982   0.288   0.364   8.092
  475TIP3   OH222983   0.778   7.315   7.906
  475TIP3    H122984   0.847   7.248   7.910
  475TIP3    H222985   0.767   7.337   7.811
  476TIP3   OH222986   0.816   0.182   8.110
  476TIP3    H122987   0.799   0.127   8.030
  476TIP3    H222988   0.755   0.256   8.102
  477TIP3   OH222989   0.764   1.868   6.423
  477TIP3    H122990   0.859   1.878   6.442
  477TIP3    H222991   0.744   1.939   6.363
  478TIP3   OH222992   0.145   1.344   6.363
  478TIP3    H122993   0.235   1.336   6.398
  478TIP3    H222994   0.133   1.261   6.316
  479TIP3   OH222995   7.334   1.885   6.865
  479TIP3    H122996   7.247   1.856   6.829
  479TIP3    H222997   7.347   1.814   6.933
  480TIP3   OH222998   0.080   1.682   7.060
  480TIP3    H122999   0.045   1.592   7.080
  480TIP3    H223000   0.105   1.710   7.150
  481TIP3   OH223001   1.831   1.757   7.357
  481TIP3    H123002   1.834   1.773   7.453
  481TIP3    H223003   1.902   1.815   7.326
  482TIP3   OH223004   1.788   1.716   7.652
  482TIP3    H123005   1.742   1.639   7.613
  482TIP3    H223006   1.839   1.672   7.722
  483TIP3   OH223007   1.635   1.287   8.118
  483TIP3    H123008   1.546   1.285   8.157
  483TIP3    H223009   1.672   1.368   8.160
  484TIP3   OH223010   1.765   1.121   6.662
  484TIP3    H123011   1.853   1.159   6.681
  484TIP3    H223012   1.765   1.048   6.728
  485TIP3   OH223013   1.801   0.933   6.848
  485TIP3    H123014   1.729   0.877   6.886
  485TIP3    H223015   1.862   0.941   6.924
  486TIP3   OH223016   1.777   1.199   7.348
  486TIP3    H123017   1.859   1.161   7.311
  486TIP3    H223018   1.791   1.294   7.331
  487TIP3   OH223019   1.632   1.489   7.575
  487TIP3    H123020   1.564   1.523   7.634
  487TIP3    H223021   1.577   1.448   7.505
  488TIP3   OH223022   1.833   0.912   6.490
  488TIP3    H123023   1.778   0.942   6.416
  488TIP3    H223024   1.824   0.984   6.555
  489TIP3   OH223025   1.585   0.776   6.904
  489TIP3    H123026   1.568   0.680   6.903
  489TIP3    H223027   1.549   0.800   6.991
  490TIP3   OH223028   0.085   0.984   7.304
  490TIP3    H123029   0.106   0.979   7.209
  490TIP3    H223030   0.173   0.971   7.348
  491TIP3   OH223031   1.669   0.973   7.877
  491TIP3    H123032   1.730   0.897   7.888
  491TIP3    H223033   1.729   1.051   7.875
  492TIP3   OH223034   1.818   0.762   7.940
  492TIP3    H123035   1.731   0.721   7.924
  492TIP3    H223036   1.876   0.685   7.933
  493TIP3   OH223037   1.549   0.535   6.754
  493TIP3    H123038   1.582   0.442   6.764
  493TIP3    H223039   1.628   0.575   6.715
  494TIP3   OH223040   1.614   0.590   7.297
  494TIP3    H123041   1.710   0.613   7.295
  494TIP3    H223042   1.595   0.603   7.391
  495TIP3   OH223043   1.619   0.663   7.574
  495TIP3    H123044   1.532   0.691   7.608
  495TIP3    H223045   1.663   0.749   7.553
  496TIP3   OH223046   0.073   0.504   7.930
  496TIP3    H123047   0.162   0.480   7.957
  496TIP3    H223048   0.014   0.434   7.966
  497TIP3   OH223049   1.855   0.069   8.108
  497TIP3    H123050   1.880   0.002   8.043
  497TIP3    H223051   1.856   0.152   8.057
  498TIP3   OH223052   1.612   0.267   6.760
  498TIP3    H123053   1.639   0.219   6.840
  498TIP3    H223054   1.557   0.200   6.712
  499TIP3   OH223055   0.167   0.345   7.207
  499TIP3    H123056   0.210   0.263   7.240
  499TIP3    H223057   0.219   0.413   7.254
  500TIP3   OH223058   0.051   0.717   7.353
  500TIP3    H123059   0.052   0.674   7.264
  500TIP3    H223060   0.058   0.808   7.325
  501TIP3   OH223061   1.800   0.274   7.944
  501TIP3    H123062   1.706   0.303   7.941
  501TIP3    H223063   1.804   0.221   7.862
  502TIP3   OH223064   1.796   0.265   6.408
  502TIP3    H123065   1.844   0.196   6.362
  502TIP3    H223066   1.867   0.332   6.423
  503TIP3   OH223067   0.071   0.261   6.685
  503TIP3    H123068  -0.021   0.288   6.694
  503TIP3    H223069   0.101   0.335   6.629
  504TIP3   OH223070   1.504   1.765   6.920
  504TIP3    H123071   1.572   1.734   6.856
  504TIP3    H223072   1.557   1.815   6.983
  505TIP3   OH223073   7.349   0.139   7.579
  505TIP3    H123074   7.269   0.113   7.624
  505TIP3    H223075   7.304   0.184   7.505
  506TIP3   OH223076   0.246   1.459   7.972
  506TIP3    H123077   0.161   1.476   7.930
  506TIP3    H223078   0.221   1.450   8.064
  507TIP3   OH223079   0.541   1.556   7.599
  507TIP3    H123080   0.501   1.641   7.572
  507TIP3    H223081   0.632   1.567   7.566
  508TIP3   OH223082   0.968   1.708   7.888
  508TIP3    H123083   0.970   1.683   7.983
  508TIP3    H223084   1.059   1.735   7.860
  509TIP3   OH223085   1.198   1.822   7.828
  509TIP3    H123086   1.272   1.769   7.789
  509TIP3    H223087   1.251   1.864   7.897
  510TIP3   OH223088   1.703   0.089   7.722
  510TIP3    H123089   1.618   0.118   7.684
  510TIP3    H223090   1.717   0.004   7.675
  511TIP3   OH223091   0.284   1.880   7.600
  511TIP3    H123092   0.209   1.929   7.560
  511TIP3    H223093   0.249   1.860   7.688
  512TIP3   OH223094   0.528   1.834   7.500
  512TIP3    H123095   0.440   1.850   7.543
  512TIP3    H223096   0.523   1.898   7.427
  513TIP3   OH223097   0.996   1.828   7.425
  513TIP3    H123098   0.953   1.882   7.357
  513TIP3    H223099   1.012   1.895   7.494
  514TIP3   OH223100   1.223   1.712   7.532
  514TIP3    H123101   1.143   1.735   7.483
  514TIP3    H223102   1.276   1.793   7.512
  515TIP3   OH223103   1.484   1.868   7.548
  515TIP3    H123104   1.480   1.964   7.524
  515TIP3    H223105   1.507   1.831   7.460
  516TIP3   OH223106   0.220   1.745   7.292
  516TIP3    H123107   0.221   1.700   7.379
  516TIP3    H223108   0.302   1.709   7.253
  517TIP3   OH223109   0.431   1.616   7.159
  517TIP3    H123110   0.413   1.523   7.182
  517TIP3    H223111   0.519   1.633   7.202
  518TIP3   OH223112   0.688   1.662   7.246
  518TIP3    H123113   0.715   1.575   7.216
  518TIP3    H223114   0.699   1.657   7.342
  519TIP3   OH223115   1.026   0.235   7.151
  519TIP3    H123116   0.974   0.166   7.194
  519TIP3    H223117   1.101   0.187   7.109
  520TIP3   OH223118   1.557   0.035   7.163
  520TIP3    H123119   1.618   0.095   7.115
  520TIP3    H223120   1.469   0.071   7.149
  521TIP3   OH223121   1.723   0.160   6.994
  521TIP3    H123122   1.787   0.102   6.951
  521TIP3    H223123   1.773   0.245   7.001
  522TIP3   OH223124   0.274   0.095   6.943
  522TIP3    H123125   0.199   0.067   6.890
  522TIP3    H223126   0.324   0.012   6.947
  523TIP3   OH223127   0.169   0.072   6.526
  523TIP3    H123128   0.199   0.127   6.453
  523TIP3    H223129   0.096   0.124   6.563
  524TIP3   OH223130   0.740   0.066   6.924
  524TIP3    H123131   0.813   0.132   6.914
  524TIP3    H223132   0.710   0.072   7.015
  525TIP3   OH223133   1.262   0.122   7.097
  525TIP3    H123134   1.289   0.117   7.005
  525TIP3    H223135   1.265   0.024   7.114
  526TIP3   OH223136   1.423   0.094   6.659
  526TIP3    H123137   1.349   0.151   6.633
  526TIP3    H223138   1.381   0.007   6.664
  527TIP3   OH223139   0.142   1.667   6.618
  527TIP3    H123140   0.082   1.663   6.543
  527TIP3    H223141   0.147   1.762   6.631
  528TIP3   OH223142   0.831   0.286   6.610
  528TIP3    H123143   0.866   0.228   6.678
  528TIP3    H223144   0.845   0.371   6.654
  529TIP3   OH223145   1.034   1.797   6.448
  529TIP3    H123146   1.127   1.820   6.431
  529TIP3    H223147   1.012   1.741   6.373
  530TIP3   OH223148   1.702   1.746   6.722
  530TIP3    H123149   1.685   1.667   6.666
  530TIP3    H223150   1.696   1.818   6.656
  531TIP3   OH223151   0.255   0.146   7.881
  531TIP3    H123152   0.225   0.068   7.929
  531TIP3    H223153   0.347   0.146   7.918
  532TIP3   OH223154   0.438   0.102   8.042
  532TIP3    H123155   0.533   0.082   8.027
  532TIP3    H223156   0.425   0.017   8.088
  533TIP3   OH223157   0.371   1.788   6.344
  533TIP3    H123158   0.302   1.779   6.410
  533TIP3    H223159   0.410   1.698   6.337
  534TIP3   OH223160   1.300   7.351   8.060
  534TIP3    H123161   1.306   7.292   8.139
  534TIP3    H223162   1.387   7.328   8.025
  535TIP3   OH223163   1.626   1.617   7.934
  535TIP3    H123164   1.548   1.604   7.877
  535TIP3    H223165   1.620   1.712   7.952
  536TIP3   OH223166   3.073   1.005   6.929
  536TIP3    H123167   3.071   1.103   6.927
  536TIP3    H223168   3.000   0.981   6.870
  537TIP3   OH223169   2.958   0.931   7.279
  537TIP3    H123170   2.956   0.866   7.350
  537TIP3    H223171   2.923   0.881   7.203
  538TIP3   OH223172   2.193   0.899   7.435
  538TIP3    H123173   2.201   0.830   7.505
  538TIP3    H223174   2.268   0.956   7.457
  539TIP3   OH223175   3.326   1.226   7.106
  539TIP3    H123176   3.285   1.154   7.155
  539TIP3    H223177   3.329   1.297   7.173
  540TIP3   OH223178   2.285   1.342   7.286
  540TIP3    H123179   2.254   1.257   7.252
  540TIP3    H223180   2.381   1.325   7.290
  541TIP3   OH223181   1.946   0.705   6.839
  541TIP3    H123182   1.903   0.791   6.825
  541TIP3    H223183   1.899   0.645   6.777
  542TIP3   OH223184   2.023   0.925   7.048
  542TIP3    H123185   2.047   0.840   7.091
  542TIP3    H223186   2.090   0.931   6.978
  543TIP3   OH223187   3.039   1.742   7.131
  543TIP3    H123188   3.103   1.672   7.103
  543TIP3    H223189   3.017   1.709   7.219
  544TIP3   OH223190   2.795   1.172   7.325
  544TIP3    H123191   2.829   1.109   7.259
  544TIP3    H223192   2.876   1.187   7.378
  545TIP3   OH223193   3.655   0.332   7.401
  545TIP3    H123194   3.672   0.396   7.475
  545TIP3    H223195   3.708   0.378   7.333
  546TIP3   OH223196   3.112   0.618   7.358
  546TIP3    H123197   3.127   0.521   7.358
  546TIP3    H223198   3.101   0.633   7.262
  547TIP3   OH223199   2.426   0.427   7.080
  547TIP3    H123200   2.432   0.511   7.030
  547TIP3    H223201   2.382   0.372   7.011
  548TIP3   OH223202   3.197   0.433   6.919
  548TIP3    H123203   3.264   0.405   6.984
  548TIP3    H223204   3.251   0.489   6.861
  549TIP3   OH223205   2.086   0.671   7.155
  549TIP3    H123206   2.152   0.613   7.197
  549TIP3    H223207   2.096   0.638   7.064
  550TIP3   OH223208   2.601   0.823   7.084
  550TIP3    H123209   2.668   0.766   7.124
  550TIP3    H223210   2.550   0.758   7.032
  551TIP3   OH223211   3.697   0.475   7.626
  551TIP3    H123212   3.638   0.553   7.616
  551TIP3    H223213   3.704   0.468   7.722
  552TIP3   OH223214   2.315   0.321   7.482
  552TIP3    H123215   2.283   0.375   7.407
  552TIP3    H223216   2.244   0.340   7.549
  553TIP3   OH223217   3.049   1.267   6.833
  553TIP3    H123218   3.009   1.234   6.753
  553TIP3    H223219   3.011   1.356   6.849
  554TIP3   OH223220   2.566   1.082   7.508
  554TIP3    H123221   2.495   1.146   7.528
  554TIP3    H223222   2.636   1.141   7.478
  555TIP3   OH223223   3.380   0.367   7.115
  555TIP3    H123224   3.353   0.294   7.171
  555TIP3    H223225   3.444   0.414   7.170
  556TIP3   OH223226   2.271   0.506   7.285
  556TIP3    H123227   2.335   0.572   7.318
  556TIP3    H223228   2.321   0.463   7.211
  557TIP3   OH223229   2.410   1.281   7.589
  557TIP3    H123230   2.405   1.372   7.555
  557TIP3    H223231   2.322   1.274   7.634
  558TIP3   OH223232   2.014   1.244   6.668
  558TIP3    H123233   1.991   1.274   6.579
  558TIP3    H223234   2.026   1.327   6.717
  559TIP3   OH223235   3.379   1.410   7.344
  559TIP3    H123236   3.283   1.421   7.356
  559TIP3    H223237   3.406   1.502   7.324
  560TIP3   OH223238   3.408   0.250   7.483
  560TIP3    H123239   3.331   0.309   7.471
  560TIP3    H223240   3.476   0.294   7.427
  561TIP3   OH223241   2.707   0.051   7.214
  561TIP3    H123242   2.703  -0.045   7.228
  561TIP3    H223243   2.626   0.078   7.262
  562TIP3   OH223244   3.204   1.588   7.004
  562TIP3    H123245   3.250   1.517   6.956
  562TIP3    H223246   3.248   1.668   6.966
  563TIP3   OH223247   3.323   1.381   6.852
  563TIP3    H123248   3.298   1.307   6.796
  563TIP3    H223249   3.330   1.334   6.938
  564TIP3   OH223250   3.486   1.239   7.706
  564TIP3    H123251   3.502   1.175   7.633
  564TIP3    H223252   3.508   1.324   7.662
  565TIP3   OH223253   2.941   0.934   6.684
  565TIP3    H123254   2.866   0.981   6.647
  565TIP3    H223255   3.008   0.938   6.613
  566TIP3   OH223256   2.947   0.786   6.386
  566TIP3    H123257   3.015   0.776   6.452
  566TIP3    H223258   2.965   0.715   6.322
  567TIP3   OH223259   3.677   0.871   7.509
  567TIP3    H123260   3.610   0.943   7.513
  567TIP3    H223261   3.725   0.895   7.428
  568TIP3   OH223262   3.281   0.948   6.772
  568TIP3    H123263   3.208   0.974   6.833
  568TIP3    H223264   3.328   0.884   6.827
  569TIP3   OH223265   3.275   0.766   7.685
  569TIP3    H123266   3.276   0.849   7.735
  569TIP3    H223267   3.212   0.795   7.615
  570TIP3   OH223268   2.443   1.016   6.963
  570TIP3    H123269   2.412   0.979   6.879
  570TIP3    H223270   2.505   0.947   6.996
  571TIP3   OH223271   2.575   1.356   7.233
  571TIP3    H123272   2.574   1.303   7.153
  571TIP3    H223273   2.654   1.319   7.278
  572TIP3   OH223274   2.478   0.892   7.332
  572TIP3    H123275   2.533   0.901   7.252
  572TIP3    H223276   2.516   0.959   7.392
  573TIP3   OH223277   3.118   1.448   7.401
  573TIP3    H123278   3.089   1.511   7.468
  573TIP3    H223279   3.092   1.362   7.443
  574TIP3   OH223280   2.571   1.334   7.800
  574TIP3    H123281   2.532   1.410   7.848
  574TIP3    H223282   2.504   1.315   7.730
  575TIP3   OH223283   3.168   0.871   6.541
  575TIP3    H123284   3.224   0.887   6.621
  575TIP3    H223285   3.213   0.920   6.471
  576TIP3   OH223286   2.266   0.950   7.716
  576TIP3    H123287   2.270   1.017   7.787
  576TIP3    H223288   2.172   0.959   7.694
  577TIP3   OH223289   2.944   1.543   6.883
  577TIP3    H123290   2.984   1.571   6.967
  577TIP3    H223291   2.885   1.618   6.866
  578TIP3   OH223292   2.396   1.538   7.875
  578TIP3    H123293   2.391   1.527   7.778
  578TIP3    H223294   2.303   1.525   7.901
  579TIP3   OH223295   3.658   1.479   6.389
  579TIP3    H123296   3.663   1.575   6.373
  579TIP3    H223297   3.743   1.453   6.352
  580TIP3   OH223298   1.950   1.162   7.615
  580TIP3    H123299   1.905   1.154   7.529
  580TIP3    H223300   1.957   1.067   7.637
  581TIP3   OH223301   1.926   1.435   7.292
  581TIP3    H123302   2.022   1.423   7.291
  581TIP3    H223303   1.917   1.517   7.344
  582TIP3   OH223304   3.749   1.506   7.859
  582TIP3    H123305   3.738   1.409   7.860
  582TIP3    H223306   3.663   1.530   7.903
  583TIP3   OH223307   2.845   1.460   7.748
  583TIP3    H123308   2.851   1.543   7.800
  583TIP3    H223309   2.758   1.424   7.774
  584TIP3   OH223310   2.899   1.832   6.724
  584TIP3    H123311   2.871   1.828   6.632
  584TIP3    H223312   2.887   1.927   6.745
  585TIP3   OH223313   2.250   1.724   6.914
  585TIP3    H123314   2.268   1.679   7.000
  585TIP3    H223315   2.168   1.680   6.886
  586TIP3   OH223316   3.191   1.752   6.428
  586TIP3    H123317   3.236   1.683   6.376
  586TIP3    H223318   3.199   1.730   6.521
  587TIP3   OH223319   3.164   1.741   6.702
  587TIP3    H123320   3.070   1.760   6.725
  587TIP3    H223321   3.189   1.675   6.767
  588TIP3   OH223322   3.464   0.651   7.909
  588TIP3    H123323   3.417   0.697   7.837
  588TIP3    H223324   3.463   0.559   7.878
  589TIP3   OH223325   2.178   1.293   7.710
  589TIP3    H123326   2.200   1.256   7.798
  589TIP3    H223327   2.091   1.253   7.688
  590TIP3   OH223328   2.444   0.137   7.308
  590TIP3    H123329   2.355   0.131   7.268
  590TIP3    H223330   2.433   0.224   7.351
  591TIP3   OH223331   2.908   0.109   7.646
  591TIP3    H123332   2.950   0.068   7.721
  591TIP3    H223333   2.813   0.098   7.661
  592TIP3   OH223334   3.240   0.487   7.731
  592TIP3    H123335   3.182   0.472   7.810
  592TIP3    H223336   3.223   0.579   7.706
  593TIP3   OH223337   2.456   0.638   7.430
  593TIP3    H123338   2.381   0.636   7.492
  593TIP3    H223339   2.451   0.729   7.393
  594TIP3   OH223340   2.455   0.652   6.916
  594TIP3    H123341   2.361   0.626   6.904
  594TIP3    H223342   2.491   0.620   6.830
  595TIP3   OH223343   3.002   0.698   6.792
  595TIP3    H123344   2.964   0.782   6.760
  595TIP3    H223345   3.074   0.684   6.729
  596TIP3   OH223346   2.912   0.723   7.938
  596TIP3    H123347   2.858   0.645   7.967
  596TIP3    H223348   2.995   0.706   7.985
  597TIP3   OH223349   3.107   0.649   7.078
  597TIP3    H123350   3.080   0.705   7.003
  597TIP3    H223351   3.117   0.564   7.031
  598TIP3   OH223352   2.218   0.664   7.599
  598TIP3    H123353   2.226   0.704   7.687
  598TIP3    H223354   2.173   0.581   7.618
  599TIP3   OH223355   1.882   0.372   6.995
  599TIP3    H123356   1.952   0.375   7.063
  599TIP3    H223357   1.931   0.343   6.916
  600TIP3   OH223358   1.967   0.442   6.478
  600TIP3    H123359   2.053   0.490   6.480
  600TIP3    H223360   1.943   0.490   6.561
  601TIP3   OH223361   3.028   0.807   7.534
  601TIP3    H123362   3.065   0.739   7.475
  601TIP3    H223363   2.981   0.754   7.601
  602TIP3   OH223364   2.707   0.404   7.016
  602TIP3    H123365   2.614   0.405   7.047
  602TIP3    H223366   2.757   0.389   7.098
  603TIP3   OH223367   2.201   0.570   6.936
  603TIP3    H123368   2.119   0.582   6.879
  603TIP3    H223369   2.221   0.493   6.876
  604TIP3   OH223370   2.550   0.573   6.675
  604TIP3    H123371   2.646   0.571   6.679
  604TIP3    H223372   2.529   0.626   6.595
  605TIP3   OH223373   3.149   0.323   7.342
  605TIP3    H123374   3.079   0.335   7.410
  605TIP3    H223375   3.098   0.302   7.263
  606TIP3   OH223376   3.467   1.894   7.977
  606TIP3    H123377   3.496   1.930   7.891
  606TIP3    H223378   3.541   1.924   8.033
  607TIP3   OH223379   2.237   1.140   7.931
  607TIP3    H123380   2.307   1.164   7.994
  607TIP3    H223381   2.158   1.148   7.988
  608TIP3   OH223382   2.837   0.680   7.206
  608TIP3    H123383   2.896   0.625   7.153
  608TIP3    H223384   2.822   0.626   7.285
  609TIP3   OH223385   2.346   0.292   6.857
  609TIP3    H123386   2.305   0.205   6.844
  609TIP3    H223387   2.412   0.293   6.786
  610TIP3   OH223388   2.701   0.518   7.447
  610TIP3    H123389   2.616   0.566   7.457
  610TIP3    H223390   2.755   0.549   7.521
  611TIP3   OH223391   3.476   1.055   7.498
  611TIP3    H123392   3.534   1.103   7.435
  611TIP3    H223393   3.391   1.061   7.451
  612TIP3   OH223394   3.144   0.421   6.435
  612TIP3    H123395   3.050   0.427   6.422
  612TIP3    H223396   3.174   0.506   6.468
  613TIP3   OH223397   2.912   1.161   7.744
  613TIP3    H123398   2.870   1.119   7.820
  613TIP3    H223399   2.882   1.253   7.749
  614TIP3   OH223400   3.219   0.611   6.603
  614TIP3    H123401   3.310   0.595   6.636
  614TIP3    H223402   3.226   0.692   6.550
  615TIP3   OH223403   2.270   1.075   7.197
  615TIP3    H123404   2.339   1.067   7.128
  615TIP3    H223405   2.276   0.989   7.243
  616TIP3   OH223406   1.968   0.916   7.724
  616TIP3    H123407   1.986   0.871   7.809
  616TIP3    H223408   1.907   0.854   7.680
  617TIP3   OH223409   2.669   0.871   7.941
  617TIP3    H123410   2.638   0.841   7.855
  617TIP3    H223411   2.761   0.838   7.941
  618TIP3   OH223412   3.137   1.401   7.738
  618TIP3    H123413   3.046   1.423   7.711
  618TIP3    H223414   3.134   1.436   7.829
  619TIP3   OH223415   3.705   1.208   7.856
  619TIP3    H123416   3.616   1.232   7.818
  619TIP3    H223417   3.760   1.204   7.775
  620TIP3   OH223418   3.528   1.506   6.615
  620TIP3    H123419   3.499   1.422   6.653
  620TIP3    H223420   3.565   1.485   6.526
  621TIP3   OH223421   3.255   0.988   7.325
  621TIP3    H123422   3.161   0.966   7.315
  621TIP3    H223423   3.298   0.911   7.283
  622TIP3   OH223424   2.506   1.419   6.933
  622TIP3    H123425   2.556   1.500   6.913
  622TIP3    H223426   2.418   1.444   6.903
  623TIP3   OH223427   2.653   1.189   6.894
  623TIP3    H123428   2.617   1.279   6.895
  623TIP3    H223429   2.577   1.139   6.931
  624TIP3   OH223430   2.694   1.605   7.528
  624TIP3    H123431   2.739   1.686   7.500
  624TIP3    H223432   2.755   1.571   7.596
  625TIP3   OH223433   2.517   1.681   6.851
  625TIP3    H123434   2.422   1.702   6.852
  625TIP3    H223435   2.553   1.769   6.872
  626TIP3   OH223436   3.046   1.206   7.491
  626TIP3    H123437   3.013   1.186   7.580
  626TIP3    H223438   3.110   1.134   7.474
  627TIP3   OH223439   3.327   1.664   7.740
  627TIP3    H123440   3.259   1.614   7.691
  627TIP3    H223441   3.346   1.733   7.674
  628TIP3   OH223442   2.133   0.387   7.681
  628TIP3    H123443   2.042   0.423   7.676
  628TIP3    H223444   2.120   0.301   7.723
  629TIP3   OH223445   3.355   1.166   6.629
  629TIP3    H123446   3.335   1.087   6.682
  629TIP3    H223447   3.450   1.176   6.641
  630TIP3   OH223448   2.095   1.568   7.521
  630TIP3    H123449   2.124   1.475   7.522
  630TIP3    H223450   2.121   1.596   7.610
  631TIP3   OH223451   3.008   0.365   7.573
  631TIP3    H123452   3.078   0.373   7.640
  631TIP3    H223453   2.970   0.277   7.591
  632TIP3   OH223454   3.085   0.325   6.684
  632TIP3    H123455   3.106   0.370   6.600
  632TIP3    H223456   3.141   0.370   6.748
  633TIP3   OH223457   2.807   0.496   6.769
  633TIP3    H123458   2.883   0.557   6.770
  633TIP3    H223459   2.779   0.487   6.862
  634TIP3   OH223460   2.862   0.601   7.684
  634TIP3    H123461   2.868   0.656   7.764
  634TIP3    H223462   2.926   0.530   7.694
  635TIP3   OH223463   2.893   0.205   6.861
  635TIP3    H123464   2.857   0.274   6.919
  635TIP3    H223465   2.957   0.257   6.808
  636TIP3   OH223466   3.476   0.386   7.768
  636TIP3    H123467   3.384   0.421   7.757
  636TIP3    H223468   3.508   0.391   7.676
  637TIP3   OH223469   3.339   0.766   7.170
  637TIP3    H123470   3.256   0.722   7.142
  637TIP3    H223471   3.386   0.697   7.222
  638TIP3   OH223472   3.445   1.692   7.337
  638TIP3    H123473   3.436   1.761   7.268
  638TIP3    H223474   3.541   1.698   7.355
  639TIP3   OH223475   2.171   0.121   7.222
  639TIP3    H123476   2.175   0.112   7.123
  639TIP3    H223477   2.156   0.029   7.244
  640TIP3   OH223478   2.089   1.498   6.833
  640TIP3    H123479   2.003   1.543   6.827
  640TIP3    H223480   2.138   1.544   6.763
  641TIP3   OH223481   2.010   1.762   7.960
  641TIP3    H123482   2.070   1.742   8.035
  641TIP3    H223483   1.969   1.676   7.943
  642TIP3   OH223484   2.479   1.650   8.122
  642TIP3    H123485   2.556   1.604   8.155
  642TIP3    H223486   2.477   1.626   8.028
  643TIP3   OH223487   2.892   1.600   6.267
  643TIP3    H123488   2.819   1.541   6.284
  643TIP3    H223489   2.966   1.551   6.230
  644TIP3   OH223490   3.129   1.492   7.995
  644TIP3    H123491   3.096   1.405   8.021
  644TIP3    H223492   3.207   1.507   8.052
  645TIP3   OH223493   2.002   1.138   8.059
  645TIP3    H123494   2.019   1.047   8.027
  645TIP3    H223495   1.928   1.165   8.001
  646TIP3   OH223496   2.680   1.138   7.994
  646TIP3    H123497   2.638   1.169   7.911
  646TIP3    H223498   2.680   1.040   7.985
  647TIP3   OH223499   3.243   1.125   7.745
  647TIP3    H123500   3.321   1.183   7.729
  647TIP3    H223501   3.173   1.191   7.739
  648TIP3   OH223502   2.092   0.861   7.998
  648TIP3    H123503   2.135   0.776   7.990
  648TIP3    H223504   2.071   0.863   8.094
  649TIP3   OH223505   2.484   0.756   7.733
  649TIP3    H123506   2.424   0.828   7.760
  649TIP3    H223507   2.523   0.793   7.652
  650TIP3   OH223508   2.996   1.017   8.082
  650TIP3    H123509   3.082   0.998   8.044
  650TIP3    H223510   2.970   0.933   8.125
  651TIP3   OH223511   2.524   0.495   7.839
  651TIP3    H123512   2.536   0.423   7.775
  651TIP3    H223513   2.518   0.576   7.784
  652TIP3   OH223514   2.564   0.334   7.592
  652TIP3    H123515   2.616   0.382   7.523
  652TIP3    H223516   2.475   0.323   7.551
  653TIP3   OH223517   2.719   0.881   7.618
  653TIP3    H123518   2.794   0.864   7.561
  653TIP3    H223519   2.682   0.964   7.585
  654TIP3   OH223520   3.159   0.657   8.115
  654TIP3    H123521   3.180   0.562   8.106
  654TIP3    H223522   3.247   0.697   8.116
  655TIP3   OH223523   3.293   0.942   7.938
  655TIP3    H123524   3.268   1.006   7.867
  655TIP3    H223525   3.387   0.930   7.911
  656TIP3   OH223526   2.371   0.619   8.031
  656TIP3    H123527   2.293   0.562   8.015
  656TIP3    H223528   2.435   0.582   7.968
  657TIP3   OH223529   2.628   0.095   7.661
  657TIP3    H123530   2.624   0.188   7.629
  657TIP3    H223531   2.571   0.053   7.595
  658TIP3   OH223532   2.768   0.512   7.995
  658TIP3    H123533   2.741   0.481   8.083
  658TIP3    H223534   2.691   0.489   7.941
  659TIP3   OH223535   3.042   0.425   7.905
  659TIP3    H123536   2.946   0.427   7.917
  659TIP3    H223537   3.071   0.361   7.973
  660TIP3   OH223538   3.203   0.295   8.099
  660TIP3    H123539   3.192   0.196   8.098
  660TIP3    H223540   3.170   0.318   8.188
  661TIP3   OH223541   2.177   0.412   8.004
  661TIP3    H123542   2.205   0.337   7.948
  661TIP3    H223543   2.172   0.368   8.092
  662TIP3   OH223544   2.663   7.315   7.906
  662TIP3    H123545   2.732   7.248   7.910
  662TIP3    H223546   2.653   7.337   7.811
  663TIP3   OH223547   2.702   0.182   8.109
  663TIP3    H123548   2.685   0.126   8.030
  663TIP3    H223549   2.640   0.256   8.103
  664TIP3   OH223550   2.011   1.327   6.378
  664TIP3    H123551   2.105   1.339   6.395
  664TIP3    H223552   2.011   1.263   6.306
  665TIP3   OH223553   1.881   1.866   6.877
  665TIP3    H123554   1.811   1.816   6.829
  665TIP3    H223555   1.909   1.799   6.942
  666TIP3   OH223556   1.963   1.677   7.063
  666TIP3    H123557   1.928   1.589   7.082
  666TIP3    H223558   1.986   1.710   7.152
  667TIP3   OH223559   3.717   1.757   7.357
  667TIP3    H123560   3.720   1.773   7.452
  667TIP3    H223561   3.788   1.815   7.326
  668TIP3   OH223562   3.675   1.716   7.652
  668TIP3    H123563   3.627   1.639   7.613
  668TIP3    H223564   3.725   1.671   7.722
  669TIP3   OH223565   3.518   1.288   8.117
  669TIP3    H123566   3.432   1.288   8.159
  669TIP3    H223567   3.558   1.368   8.158
  670TIP3   OH223568   3.690   0.928   6.847
  670TIP3    H123569   3.613   0.880   6.885
  670TIP3    H223570   3.745   0.943   6.926
  671TIP3   OH223571   3.662   1.199   7.348
  671TIP3    H123572   3.744   1.161   7.311
  671TIP3    H223573   3.678   1.294   7.333
  672TIP3   OH223574   3.518   1.489   7.576
  672TIP3    H123575   3.449   1.523   7.635
  672TIP3    H223576   3.463   1.448   7.505
  673TIP3   OH223577   3.468   0.776   6.906
  673TIP3    H123578   3.453   0.680   6.905
  673TIP3    H223579   3.434   0.799   6.994
  674TIP3   OH223580   1.969   0.985   7.312
  674TIP3    H123581   1.988   0.976   7.216
  674TIP3    H223582   2.058   0.967   7.347
  675TIP3   OH223583   3.553   0.972   7.880
  675TIP3    H123584   3.616   0.897   7.887
  675TIP3    H223585   3.614   1.049   7.874
  676TIP3   OH223586   3.704   0.763   7.939
  676TIP3    H123587   3.616   0.723   7.922
  676TIP3    H223588   3.762   0.685   7.933
  677TIP3   OH223589   3.434   0.535   6.756
  677TIP3    H123590   3.464   0.442   6.765
  677TIP3    H223591   3.512   0.574   6.715
  678TIP3   OH223592   3.499   0.588   7.297
  678TIP3    H123593   3.595   0.614   7.295
  678TIP3    H223594   3.480   0.605   7.390
  679TIP3   OH223595   3.505   0.662   7.574
  679TIP3    H123596   3.417   0.690   7.607
  679TIP3    H223597   3.549   0.748   7.553
  680TIP3   OH223598   1.930   0.516   7.926
  680TIP3    H123599   2.024   0.496   7.948
  680TIP3    H223600   1.886   0.433   7.956
  681TIP3   OH223601   3.740   0.069   8.113
  681TIP3    H123602   3.765   0.002   8.048
  681TIP3    H223603   3.742   0.150   8.058
  682TIP3   OH223604   3.502   0.263   6.756
  682TIP3    H123605   3.520   0.219   6.841
  682TIP3    H223606   3.439   0.200   6.712
  683TIP3   OH223607   2.047   0.349   7.213
  683TIP3    H123608   2.093   0.265   7.237
  683TIP3    H223609   2.106   0.415   7.250
  684TIP3   OH223610   1.879   0.643   7.316
  684TIP3    H123611   1.936   0.619   7.239
  684TIP3    H223612   1.925   0.724   7.343
  685TIP3   OH223613   3.685   0.273   7.944
  685TIP3    H123614   3.592   0.304   7.942
  685TIP3    H223615   3.690   0.221   7.863
  686TIP3   OH223616   1.896   0.236   6.708
  686TIP3    H123617   1.816   0.288   6.712
  686TIP3    H223618   1.956   0.305   6.669
  687TIP3   OH223619   3.391   1.764   6.918
  687TIP3    H123620   3.459   1.734   6.856
  687TIP3    H223621   3.442   1.815   6.983
  688TIP3   OH223622   1.912   0.144   7.556
  688TIP3    H123623   1.843   0.118   7.619
  688TIP3    H223624   1.864   0.203   7.496
  689TIP3   OH223625   2.134   1.458   7.971
  689TIP3    H123626   2.050   1.478   7.928
  689TIP3    H223627   2.107   1.450   8.063
  690TIP3   OH223628   2.424   1.556   7.598
  690TIP3    H123629   2.390   1.642   7.570
  690TIP3    H223630   2.517   1.565   7.567
  691TIP3   OH223631   2.856   1.698   7.889
  691TIP3    H123632   2.871   1.663   7.980
  691TIP3    H223633   2.946   1.728   7.865
  692TIP3   OH223634   3.086   1.825   7.819
  692TIP3    H123635   3.159   1.766   7.795
  692TIP3    H223636   3.123   1.868   7.899
  693TIP3   OH223637   3.592   0.092   7.721
  693TIP3    H123638   3.500   0.119   7.706
  693TIP3    H223639   3.607  -0.001   7.691
  694TIP3   OH223640   2.167   1.880   7.598
  694TIP3    H123641   2.094   1.929   7.558
  694TIP3    H223642   2.135   1.859   7.687
  695TIP3   OH223643   2.414   1.838   7.504
  695TIP3    H123644   2.325   1.852   7.544
  695TIP3    H223645   2.408   1.898   7.427
  696TIP3   OH223646   2.885   1.827   7.422
  696TIP3    H123647   2.838   1.883   7.357
  696TIP3    H223648   2.898   1.891   7.495
  697TIP3   OH223649   3.114   1.710   7.524
  697TIP3    H123650   3.028   1.737   7.488
  697TIP3    H223651   3.161   1.795   7.514
  698TIP3   OH223652   3.373   1.868   7.547
  698TIP3    H123653   3.365   1.963   7.524
  698TIP3    H223654   3.393   1.830   7.459
  699TIP3   OH223655   2.112   1.745   7.292
  699TIP3    H123656   2.104   1.699   7.378
  699TIP3    H223657   2.194   1.707   7.253
  700TIP3   OH223658   2.319   1.616   7.159
  700TIP3    H123659   2.304   1.522   7.180
  700TIP3    H223660   2.406   1.631   7.202
  701TIP3   OH223661   2.580   1.665   7.245
  701TIP3    H123662   2.596   1.573   7.217
  701TIP3    H223663   2.585   1.658   7.342
  702TIP3   OH223664   2.916   0.235   7.157
  702TIP3    H123665   2.856   0.164   7.185
  702TIP3    H223666   2.982   0.185   7.106
  703TIP3   OH223667   3.441   0.042   7.175
  703TIP3    H123668   3.501   0.091   7.114
  703TIP3    H223669   3.354   0.069   7.143
  704TIP3   OH223670   3.610   0.159   6.995
  704TIP3    H123671   3.674   0.102   6.951
  704TIP3    H223672   3.657   0.244   7.005
  705TIP3   OH223673   2.156   0.094   6.948
  705TIP3    H123674   2.082   0.072   6.889
  705TIP3    H223675   2.209   0.013   6.944
  706TIP3   OH223676   2.036   0.070   6.511
  706TIP3    H123677   2.091   0.135   6.466
  706TIP3    H223678   1.980   0.124   6.571
  707TIP3   OH223679   2.616   0.076   6.922
  707TIP3    H123680   2.701   0.123   6.915
  707TIP3    H223681   2.607   0.063   7.017
  708TIP3   OH223682   3.158   0.121   7.100
  708TIP3    H123683   3.172   0.117   7.005
  708TIP3    H223684   3.145   0.023   7.110
  709TIP3   OH223685   3.308   0.091   6.662
  709TIP3    H123686   3.236   0.148   6.631
  709TIP3    H223687   3.263   0.005   6.663
  710TIP3   OH223688   2.027   1.663   6.620
  710TIP3    H123689   1.968   1.661   6.542
  710TIP3    H223690   2.035   1.758   6.632
  711TIP3   OH223691   2.726   0.288   6.609
  711TIP3    H123692   2.752   0.227   6.679
  711TIP3    H223693   2.729   0.375   6.653
  712TIP3   OH223694   3.594   1.744   6.719
  712TIP3    H123695   3.567   1.667   6.664
  712TIP3    H223696   3.581   1.818   6.655
  713TIP3   OH223697   2.143   0.143   7.878
  713TIP3    H123698   2.110   0.069   7.931
  713TIP3    H223699   2.233   0.145   7.919
  714TIP3   OH223700   2.326   0.104   8.042
  714TIP3    H123701   2.420   0.082   8.028
  714TIP3    H223702   2.309   0.019   8.088
  715TIP3   OH223703   3.188   7.351   8.065
  715TIP3    H123704   3.190   7.289   8.140
  715TIP3    H223705   3.273   7.327   8.028
  716TIP3   OH223706   3.513   1.618   7.934
  716TIP3    H123707   3.434   1.605   7.877
  716TIP3    H223708   3.502   1.713   7.953
  717TIP3   OH223709   4.959   1.003   6.929
  717TIP3    H123710   4.961   1.101   6.925
  717TIP3    H223711   4.884   0.984   6.874
  718TIP3   OH223712   4.845   0.930   7.277
  718TIP3    H123713   4.840   0.867   7.350
  718TIP3    H223714   4.806   0.882   7.203
  719TIP3   OH223715   4.078   0.898   7.435
  719TIP3    H123716   4.087   0.830   7.505
  719TIP3    H223717   4.153   0.956   7.456
  720TIP3   OH223718   5.212   1.226   7.107
  720TIP3    H123719   5.170   1.154   7.156
  720TIP3    H223720   5.214   1.297   7.173
  721TIP3   OH223721   4.171   1.343   7.285
  721TIP3    H123722   4.139   1.257   7.252
  721TIP3    H223723   4.267   1.325   7.290
  722TIP3   OH223724   3.838   0.703   6.830
  722TIP3    H123725   3.791   0.789   6.828
  722TIP3    H223726   3.779   0.648   6.778
  723TIP3   OH223727   3.905   0.921   7.042
  723TIP3    H123728   3.932   0.841   7.092
  723TIP3    H223729   3.979   0.933   6.982
  724TIP3   OH223730   4.924   1.742   7.131
  724TIP3    H123731   4.989   1.672   7.102
  724TIP3    H223732   4.903   1.709   7.218
  725TIP3   OH223733   4.681   1.171   7.325
  725TIP3    H123734   4.715   1.109   7.259
  725TIP3    H223735   4.761   1.187   7.378
  726TIP3   OH223736   5.537   0.340   7.397
  726TIP3    H123737   5.559   0.393   7.477
  726TIP3    H223738   5.598   0.378   7.333
  727TIP3   OH223739   5.005   0.618   7.355
  727TIP3    H123740   5.010   0.520   7.359
  727TIP3    H223741   4.983   0.634   7.261
  728TIP3   OH223742   4.309   0.428   7.079
  728TIP3    H123743   4.319   0.512   7.030
  728TIP3    H223744   4.268   0.371   7.011
  729TIP3   OH223745   5.085   0.443   6.926
  729TIP3    H123746   5.150   0.389   6.975
  729TIP3    H223747   5.137   0.484   6.854
  730TIP3   OH223748   3.971   0.669   7.154
  730TIP3    H123749   4.039   0.613   7.198
  730TIP3    H223750   3.982   0.636   7.063
  731TIP3   OH223751   4.489   0.824   7.081
  731TIP3    H123752   4.553   0.765   7.125
  731TIP3    H223753   4.434   0.758   7.033
  732TIP3   OH223754   5.586   0.478   7.626
  732TIP3    H123755   5.523   0.552   7.617
  732TIP3    H223756   5.588   0.467   7.722
  733TIP3   OH223757   4.200   0.322   7.482
  733TIP3    H123758   4.169   0.375   7.407
  733TIP3    H223759   4.130   0.340   7.549
  734TIP3   OH223760   4.930   1.266   6.837
  734TIP3    H123761   4.900   1.242   6.749
  734TIP3    H223762   4.899   1.359   6.846
  735TIP3   OH223763   4.451   1.082   7.507
  735TIP3    H123764   4.380   1.146   7.529
  735TIP3    H223765   4.522   1.141   7.479
  736TIP3   OH223766   5.274   0.336   7.117
  736TIP3    H123767   5.235   0.276   7.183
  736TIP3    H223768   5.335   0.384   7.176
  737TIP3   OH223769   4.156   0.507   7.284
  737TIP3    H123770   4.221   0.572   7.318
  737TIP3    H223771   4.208   0.462   7.212
  738TIP3   OH223772   4.296   1.281   7.590
  738TIP3    H123773   4.291   1.372   7.555
  738TIP3    H223774   4.207   1.274   7.634
  739TIP3   OH223775   5.265   1.410   7.344
  739TIP3    H123776   5.168   1.421   7.356
  739TIP3    H223777   5.292   1.502   7.324
  740TIP3   OH223778   5.300   0.237   7.485
  740TIP3    H123779   5.226   0.298   7.476
  740TIP3    H223780   5.372   0.278   7.433
  741TIP3   OH223781   4.592   0.051   7.214
  741TIP3    H123782   4.589  -0.045   7.228
  741TIP3    H223783   4.512   0.078   7.262
  742TIP3   OH223784   5.092   1.588   7.004
  742TIP3    H123785   5.134   1.516   6.952
  742TIP3    H223786   5.132   1.667   6.964
  743TIP3   OH223787   5.212   1.382   6.857
  743TIP3    H123788   5.186   1.313   6.793
  743TIP3    H223789   5.215   1.331   6.940
  744TIP3   OH223790   5.374   1.240   7.704
  744TIP3    H123791   5.388   1.175   7.632
  744TIP3    H223792   5.394   1.325   7.661
  745TIP3   OH223793   5.562   0.871   7.509
  745TIP3    H123794   5.496   0.943   7.513
  745TIP3    H223795   5.611   0.894   7.428
  746TIP3   OH223796   5.160   0.767   7.685
  746TIP3    H123797   5.161   0.849   7.737
  746TIP3    H223798   5.097   0.796   7.615
  747TIP3   OH223799   4.327   1.017   6.964
  747TIP3    H123800   4.298   0.976   6.880
  747TIP3    H223801   4.390   0.949   6.998
  748TIP3   OH223802   4.461   1.355   7.233
  748TIP3    H123803   4.460   1.303   7.152
  748TIP3    H223804   4.540   1.319   7.278
  749TIP3   OH223805   4.362   0.891   7.330
  749TIP3    H123806   4.418   0.902   7.250
  749TIP3    H223807   4.401   0.958   7.391
  750TIP3   OH223808   5.003   1.448   7.401
  750TIP3    H123809   4.974   1.511   7.467
  750TIP3    H223810   4.978   1.362   7.443
  751TIP3   OH223811   4.457   1.334   7.800
  751TIP3    H123812   4.417   1.408   7.849
  751TIP3    H223813   4.390   1.314   7.730
  752TIP3   OH223814   4.151   0.950   7.716
  752TIP3    H123815   4.156   1.017   7.787
  752TIP3    H223816   4.057   0.960   7.694
  753TIP3   OH223817   4.827   1.541   6.886
  753TIP3    H123818   4.871   1.573   6.966
  753TIP3    H223819   4.770   1.616   6.862
  754TIP3   OH223820   4.282   1.538   7.875
  754TIP3    H123821   4.276   1.527   7.778
  754TIP3    H223822   4.188   1.525   7.901
  755TIP3   OH223823   4.231   0.918   6.722
  755TIP3    H123824   4.201   0.998   6.677
  755TIP3    H223825   4.162   0.853   6.705
  756TIP3   OH223826   3.835   1.161   7.615
  756TIP3    H123827   3.790   1.153   7.528
  756TIP3    H223828   3.842   1.067   7.637
  757TIP3   OH223829   3.811   1.437   7.293
  757TIP3    H123830   3.906   1.424   7.290
  757TIP3    H223831   3.803   1.517   7.345
  758TIP3   OH223832   5.634   1.506   7.859
  758TIP3    H123833   5.623   1.409   7.860
  758TIP3    H223834   5.549   1.530   7.903
  759TIP3   OH223835   4.731   1.460   7.749
  759TIP3    H123836   4.737   1.543   7.801
  759TIP3    H223837   4.643   1.424   7.774
  760TIP3   OH223838   4.775   1.836   6.728
  760TIP3    H123839   4.765   1.829   6.632
  760TIP3    H223840   4.777   1.932   6.745
  761TIP3   OH223841   4.134   1.724   6.909
  761TIP3    H123842   4.155   1.683   6.997
  761TIP3    H223843   4.051   1.677   6.892
  762TIP3   OH223844   5.047   1.753   6.710
  762TIP3    H123845   4.951   1.755   6.724
  762TIP3    H223846   5.074   1.674   6.759
  763TIP3   OH223847   5.349   0.651   7.908
  763TIP3    H123848   5.302   0.697   7.836
  763TIP3    H223849   5.348   0.559   7.878
  764TIP3   OH223850   4.063   1.293   7.709
  764TIP3    H123851   4.086   1.256   7.798
  764TIP3    H223852   3.977   1.253   7.688
  765TIP3   OH223853   4.329   0.137   7.308
  765TIP3    H123854   4.240   0.131   7.268
  765TIP3    H223855   4.319   0.223   7.352
  766TIP3   OH223856   4.794   0.109   7.645
  766TIP3    H123857   4.836   0.068   7.721
  766TIP3    H223858   4.698   0.098   7.661
  767TIP3   OH223859   5.124   0.487   7.729
  767TIP3    H123860   5.068   0.472   7.809
  767TIP3    H223861   5.108   0.580   7.706
  768TIP3   OH223862   4.753   0.365   6.373
  768TIP3    H123863   4.734   0.358   6.468
  768TIP3    H223864   4.735   0.275   6.346
  769TIP3   OH223865   4.342   0.638   7.429
  769TIP3    H123866   4.268   0.636   7.493
  769TIP3    H223867   4.337   0.729   7.393
  770TIP3   OH223868   4.336   0.650   6.917
  770TIP3    H123869   4.243   0.623   6.902
  770TIP3    H223870   4.376   0.621   6.833
  771TIP3   OH223871   4.894   0.703   6.792
  771TIP3    H123872   4.847   0.780   6.760
  771TIP3    H223873   4.959   0.682   6.722
  772TIP3   OH223874   4.796   0.721   7.937
  772TIP3    H123875   4.743   0.644   7.968
  772TIP3    H223876   4.879   0.708   7.985
  773TIP3   OH223877   5.003   0.648   7.074
  773TIP3    H123878   4.964   0.705   7.004
  773TIP3    H223879   4.995   0.562   7.028
  774TIP3   OH223880   4.104   0.664   7.599
  774TIP3    H123881   4.111   0.704   7.687
  774TIP3    H223882   4.059   0.580   7.618
  775TIP3   OH223883   3.771   0.377   6.993
  775TIP3    H123884   3.837   0.372   7.066
  775TIP3    H223885   3.816   0.338   6.916
  776TIP3   OH223886   4.912   0.808   7.534
  776TIP3    H123887   4.950   0.740   7.476
  776TIP3    H223888   4.867   0.754   7.602
  777TIP3   OH223889   4.593   0.403   7.015
  777TIP3    H123890   4.501   0.404   7.046
  777TIP3    H223891   4.642   0.390   7.098
  778TIP3   OH223892   4.074   0.563   6.902
  778TIP3    H123893   3.985   0.573   6.863
  778TIP3    H223894   4.104   0.480   6.863
  779TIP3   OH223895   4.435   0.568   6.671
  779TIP3    H123896   4.532   0.572   6.682
  779TIP3    H223897   4.417   0.630   6.599
  780TIP3   OH223898   5.034   0.331   7.337
  780TIP3    H123899   4.967   0.334   7.410
  780TIP3    H223900   4.981   0.298   7.263
  781TIP3   OH223901   4.314   0.687   6.427
  781TIP3    H123902   4.259   0.647   6.358
  781TIP3    H223903   4.395   0.701   6.377
  782TIP3   OH223904   5.354   1.893   7.977
  782TIP3    H123905   5.381   1.930   7.891
  782TIP3    H223906   5.427   1.924   8.033
  783TIP3   OH223907   4.123   1.138   7.931
  783TIP3    H123908   4.193   1.164   7.994
  783TIP3    H223909   4.044   1.149   7.988
  784TIP3   OH223910   4.725   0.681   7.205
  784TIP3    H123911   4.780   0.623   7.153
  784TIP3    H223912   4.705   0.627   7.284
  785TIP3   OH223913   4.221   0.297   6.851
  785TIP3    H123914   4.192   0.204   6.851
  785TIP3    H223915   4.300   0.290   6.796
  786TIP3   OH223916   4.586   0.518   7.446
  786TIP3    H123917   4.502   0.566   7.458
  786TIP3    H223918   4.641   0.549   7.521
  787TIP3   OH223919   5.362   1.055   7.498
  787TIP3    H123920   5.419   1.103   7.435
  787TIP3    H223921   5.276   1.061   7.451
  788TIP3   OH223922   4.793   1.161   7.741
  788TIP3    H123923   4.758   1.120   7.820
  788TIP3    H223924   4.769   1.254   7.752
  789TIP3   OH223925   5.098   0.616   6.612
  789TIP3    H123926   5.190   0.592   6.633
  789TIP3    H223927   5.112   0.681   6.541
  790TIP3   OH223928   4.156   1.074   7.197
  790TIP3    H123929   4.225   1.067   7.129
  790TIP3    H223930   4.162   0.988   7.243
  791TIP3   OH223931   4.851   1.279   6.525
  791TIP3    H123932   4.822   1.368   6.555
  791TIP3    H223933   4.773   1.226   6.542
  792TIP3   OH223934   3.854   0.915   7.726
  792TIP3    H123935   3.872   0.870   7.810
  792TIP3    H223936   3.793   0.854   7.680
  793TIP3   OH223937   4.555   0.871   7.942
  793TIP3    H123938   4.524   0.841   7.855
  793TIP3    H223939   4.648   0.840   7.941
  794TIP3   OH223940   5.023   1.404   7.736
  794TIP3    H123941   4.931   1.423   7.713
  794TIP3    H223942   5.020   1.433   7.829
  795TIP3   OH223943   5.590   1.209   7.856
  795TIP3    H123944   5.501   1.231   7.820
  795TIP3    H223945   5.644   1.204   7.775
  796TIP3   OH223946   5.140   0.987   7.325
  796TIP3    H123947   5.045   0.967   7.315
  796TIP3    H223948   5.183   0.911   7.282
  797TIP3   OH223949   4.391   1.419   6.936
  797TIP3    H123950   4.442   1.499   6.913
  797TIP3    H223951   4.305   1.445   6.903
  798TIP3   OH223952   4.535   1.187   6.892
  798TIP3    H123953   4.504   1.279   6.897
  798TIP3    H223954   4.460   1.139   6.932
  799TIP3   OH223955   4.579   1.605   7.528
  799TIP3    H123956   4.625   1.686   7.500
  799TIP3    H223957   4.640   1.571   7.596
  800TIP3   OH223958   4.400   1.684   6.846
  800TIP3    H123959   4.306   1.701   6.856
  800TIP3    H223960   4.440   1.768   6.873
  801TIP3   OH223961   4.932   1.206   7.491
  801TIP3    H123962   4.899   1.186   7.581
  801TIP3    H223963   4.996   1.135   7.474
  802TIP3   OH223964   5.213   1.664   7.740
  802TIP3    H123965   5.144   1.614   7.691
  802TIP3    H223966   5.232   1.733   7.674
  803TIP3   OH223967   4.019   0.388   7.682
  803TIP3    H123968   3.929   0.424   7.678
  803TIP3    H223969   4.007   0.301   7.722
  804TIP3   OH223970   5.241   1.173   6.631
  804TIP3    H123971   5.227   1.097   6.684
  804TIP3    H223972   5.338   1.182   6.639
  805TIP3   OH223973   3.981   1.568   7.521
  805TIP3    H123974   4.010   1.476   7.522
  805TIP3    H223975   4.007   1.596   7.610
  806TIP3   OH223976   4.893   0.365   7.573
  806TIP3    H123977   4.965   0.372   7.638
  806TIP3    H223978   4.856   0.277   7.591
  807TIP3   OH223979   4.968   0.330   6.683
  807TIP3    H123980   4.990   0.373   6.599
  807TIP3    H223981   5.028   0.370   6.746
  808TIP3   OH223982   4.738   1.542   6.565
  808TIP3    H123983   4.655   1.594   6.570
  808TIP3    H223984   4.791   1.595   6.505
  809TIP3   OH223985   4.687   0.499   6.765
  809TIP3    H123986   4.768   0.553   6.767
  809TIP3    H223987   4.664   0.486   6.860
  810TIP3   OH223988   4.746   0.601   7.684
  810TIP3    H123989   4.753   0.656   7.764
  810TIP3    H223990   4.811   0.531   7.694
  811TIP3   OH223991   4.777   0.204   6.860
  811TIP3    H123992   4.741   0.272   6.919
  811TIP3    H223993   4.841   0.258   6.808
  812TIP3   OH223994   4.343   0.312   6.526
  812TIP3    H123995   4.332   0.403   6.559
  812TIP3    H223996   4.436   0.296   6.549
  813TIP3   OH223997   5.364   0.388   7.769
  813TIP3    H123998   5.271   0.419   7.757
  813TIP3    H223999   5.393   0.386   7.676
  814TIP3   OH224000   5.228   0.762   7.164
  814TIP3    H124001   5.136   0.730   7.149
  814TIP3    H224002   5.270   0.705   7.232
  815TIP3   OH224003   5.331   1.692   7.337
  815TIP3    H124004   5.321   1.760   7.268
  815TIP3    H224005   5.427   1.698   7.355
  816TIP3   OH224006   4.055   0.121   7.222
  816TIP3    H124007   4.061   0.111   7.124
  816TIP3    H224008   4.043   0.028   7.244
  817TIP3   OH224009   3.974   1.501   6.828
  817TIP3    H124010   3.887   1.542   6.828
  817TIP3    H224011   4.027   1.545   6.763
  818TIP3   OH224012   3.896   1.762   7.960
  818TIP3    H124013   3.956   1.742   8.035
  818TIP3    H224014   3.855   1.676   7.943
  819TIP3   OH224015   4.364   1.651   8.122
  819TIP3    H124016   4.441   1.604   8.154
  819TIP3    H224017   4.362   1.625   8.027
  820TIP3   OH224018   5.014   1.492   7.995
  820TIP3    H124019   4.983   1.403   8.022
  820TIP3    H224020   5.092   1.504   8.052
  821TIP3   OH224021   3.887   1.137   8.060
  821TIP3    H124022   3.905   1.047   8.026
  821TIP3    H224023   3.814   1.165   8.001
  822TIP3   OH224024   4.560   1.137   7.996
  822TIP3    H124025   4.525   1.168   7.911
  822TIP3    H224026   4.568   1.039   7.986
  823TIP3   OH224027   4.862   1.279   6.240
  823TIP3    H124028   4.838   1.297   6.333
  823TIP3    H224029   4.840   1.187   6.225
  824TIP3   OH224030   5.129   1.124   7.738
  824TIP3    H124031   5.207   1.183   7.731
  824TIP3    H224032   5.059   1.190   7.742
  825TIP3   OH224033   3.978   0.861   7.998
  825TIP3    H124034   4.020   0.775   7.988
  825TIP3    H224035   3.956   0.863   8.093
  826TIP3   OH224036   4.443   0.972   6.501
  826TIP3    H124037   4.397   0.924   6.571
  826TIP3    H224038   4.469   0.903   6.437
  827TIP3   OH224039   4.369   0.756   7.733
  827TIP3    H124040   4.310   0.828   7.759
  827TIP3    H224041   4.408   0.793   7.652
  828TIP3   OH224042   4.550   0.803   6.322
  828TIP3    H124043   4.533   0.774   6.231
  828TIP3    H224044   4.646   0.801   6.328
  829TIP3   OH224045   4.876   1.013   8.073
  829TIP3    H124046   4.971   1.011   8.055
  829TIP3    H224047   4.860   0.935   8.128
  830TIP3   OH224048   4.409   0.495   7.838
  830TIP3    H124049   4.422   0.422   7.775
  830TIP3    H224050   4.405   0.575   7.783
  831TIP3   OH224051   4.449   0.334   7.592
  831TIP3    H124052   4.501   0.381   7.522
  831TIP3    H224053   4.360   0.323   7.551
  832TIP3   OH224054   4.603   0.880   7.618
  832TIP3    H124055   4.679   0.864   7.561
  832TIP3    H224056   4.567   0.965   7.586
  833TIP3   OH224057   5.044   0.655   8.115
  833TIP3    H124058   5.066   0.561   8.107
  833TIP3    H224059   5.131   0.698   8.116
  834TIP3   OH224060   5.178   0.936   7.933
  834TIP3    H124061   5.152   1.007   7.870
  834TIP3    H224062   5.273   0.932   7.911
  835TIP3   OH224063   4.256   0.618   8.034
  835TIP3    H124064   4.178   0.562   8.013
  835TIP3    H224065   4.320   0.584   7.969
  836TIP3   OH224066   4.514   0.095   7.661
  836TIP3    H124067   4.510   0.188   7.629
  836TIP3    H224068   4.457   0.053   7.595
  837TIP3   OH224069   4.654   0.512   7.996
  837TIP3    H124070   4.626   0.481   8.084
  837TIP3    H224071   4.577   0.488   7.941
  838TIP3   OH224072   4.928   0.424   7.904
  838TIP3    H124073   4.831   0.427   7.917
  838TIP3    H224074   4.956   0.361   7.973
  839TIP3   OH224075   5.085   0.295   8.098
  839TIP3    H124076   5.078   0.196   8.099
  839TIP3    H224077   5.058   0.317   8.190
  840TIP3   OH224078   4.064   0.412   8.005
  840TIP3    H124079   4.090   0.337   7.947
  840TIP3    H224080   4.057   0.366   8.091
  841TIP3   OH224081   4.549   7.315   7.906
  841TIP3    H124082   4.618   7.248   7.910
  841TIP3    H224083   4.539   7.337   7.811
  842TIP3   OH224084   4.588   0.182   8.110
  842TIP3    H124085   4.571   0.126   8.030
  842TIP3    H224086   4.527   0.256   8.102
  843TIP3   OH224087   3.771   1.864   6.874
  843TIP3    H124088   3.695   1.817   6.829
  843TIP3    H224089   3.792   1.799   6.944
  844TIP3   OH224090   3.850   1.676   7.061
  844TIP3    H124091   3.813   1.589   7.083
  844TIP3    H224092   3.871   1.710   7.151
  845TIP3   OH224093   5.603   1.757   7.357
  845TIP3    H124094   5.605   1.773   7.453
  845TIP3    H224095   5.673   1.815   7.326
  846TIP3   OH224096   5.560   1.716   7.651
  846TIP3    H124097   5.513   1.639   7.613
  846TIP3    H224098   5.610   1.672   7.722
  847TIP3   OH224099   5.405   1.287   8.118
  847TIP3    H124100   5.316   1.286   8.156
  847TIP3    H224101   5.442   1.368   8.160
  848TIP3   OH224102   5.533   1.120   6.665
  848TIP3    H124103   5.621   1.158   6.677
  848TIP3    H224104   5.539   1.046   6.729
  849TIP3   OH224105   5.574   0.924   6.850
  849TIP3    H124106   5.498   0.879   6.890
  849TIP3    H224107   5.633   0.943   6.925
  850TIP3   OH224108   5.548   1.199   7.348
  850TIP3    H124109   5.630   1.161   7.311
  850TIP3    H224110   5.562   1.294   7.332
  851TIP3   OH224111   5.404   1.489   7.576
  851TIP3    H124112   5.334   1.523   7.635
  851TIP3    H224113   5.349   1.449   7.505
  852TIP3   OH224114   5.358   0.775   6.909
  852TIP3    H124115   5.338   0.682   6.898
  852TIP3    H224116   5.320   0.803   6.994
  853TIP3   OH224117   3.855   0.985   7.312
  853TIP3    H124118   3.872   0.977   7.216
  853TIP3    H224119   3.944   0.968   7.348
  854TIP3   OH224120   5.440   0.973   7.877
  854TIP3    H124121   5.501   0.897   7.888
  854TIP3    H224122   5.500   1.051   7.875
  855TIP3   OH224123   5.589   0.762   7.941
  855TIP3    H124124   5.502   0.721   7.924
  855TIP3    H224125   5.647   0.684   7.933
  856TIP3   OH224126   5.357   0.383   6.259
  856TIP3    H124127   5.418   0.345   6.322
  856TIP3    H224128   5.269   0.343   6.273
  857TIP3   OH224129   5.325   0.533   6.765
  857TIP3    H124130   5.352   0.438   6.759
  857TIP3    H224131   5.395   0.574   6.712
  858TIP3   OH224132   5.382   0.589   7.293
  858TIP3    H124133   5.480   0.612   7.295
  858TIP3    H224134   5.366   0.601   7.389
  859TIP3   OH224135   5.389   0.664   7.568
  859TIP3    H124136   5.304   0.692   7.610
  859TIP3    H224137   5.436   0.749   7.554
  860TIP3   OH224138   3.816   0.516   7.926
  860TIP3    H124139   3.909   0.495   7.946
  860TIP3    H224140   3.772   0.433   7.955
  861TIP3   OH224141   5.626   0.068   8.108
  861TIP3    H124142   5.651   0.002   8.043
  861TIP3    H224143   5.627   0.151   8.057
  862TIP3   OH224144   5.386   0.266   6.762
  862TIP3    H124145   5.407   0.215   6.842
  862TIP3    H224146   5.324   0.203   6.714
  863TIP3   OH224147   3.931   0.347   7.212
  863TIP3    H124148   3.979   0.265   7.237
  863TIP3    H224149   3.989   0.414   7.251
  864TIP3   OH224150   3.765   0.644   7.317
  864TIP3    H124151   3.821   0.619   7.241
  864TIP3    H224152   3.811   0.725   7.344
  865TIP3   OH224153   5.571   0.274   7.944
  865TIP3    H124154   5.477   0.303   7.940
  865TIP3    H224155   5.575   0.221   7.862
  866TIP3   OH224156   3.804   0.274   6.734
  866TIP3    H124157   3.709   0.288   6.713
  866TIP3    H224158   3.844   0.312   6.654
  867TIP3   OH224159   5.276   1.765   6.921
  867TIP3    H124160   5.343   1.735   6.857
  867TIP3    H224161   5.328   1.816   6.984
  868TIP3   OH224162   3.791   0.136   7.549
  868TIP3    H124163   3.735   0.124   7.628
  868TIP3    H224164   3.754   0.209   7.497
  869TIP3   OH224165   4.020   1.456   7.971
  869TIP3    H124166   3.936   1.477   7.928
  869TIP3    H224167   3.993   1.450   8.064
  870TIP3   OH224168   4.310   1.556   7.598
  870TIP3    H124169   4.276   1.642   7.570
  870TIP3    H224170   4.403   1.565   7.567
  871TIP3   OH224171   4.742   1.698   7.889
  871TIP3    H124172   4.756   1.663   7.980
  871TIP3    H224173   4.832   1.728   7.865
  872TIP3   OH224174   4.971   1.825   7.819
  872TIP3    H124175   5.044   1.766   7.795
  872TIP3    H224176   5.009   1.868   7.899
  873TIP3   OH224177   5.474   0.090   7.719
  873TIP3    H124178   5.388   0.119   7.684
  873TIP3    H224179   5.489   0.003   7.675
  874TIP3   OH224180   4.053   1.880   7.598
  874TIP3    H124181   3.979   1.929   7.558
  874TIP3    H224182   4.021   1.860   7.687
  875TIP3   OH224183   4.299   1.838   7.505
  875TIP3    H124184   4.210   1.851   7.544
  875TIP3    H224185   4.294   1.896   7.427
  876TIP3   OH224186   4.770   1.829   7.421
  876TIP3    H124187   4.724   1.884   7.357
  876TIP3    H224188   4.784   1.892   7.495
  877TIP3   OH224189   4.999   1.710   7.523
  877TIP3    H124190   4.913   1.737   7.488
  877TIP3    H224191   5.047   1.795   7.514
  878TIP3   OH224192   5.258   1.867   7.547
  878TIP3    H124193   5.251   1.963   7.524
  878TIP3    H224194   5.279   1.830   7.459
  879TIP3   OH224195   3.998   1.745   7.292
  879TIP3    H124196   3.990   1.699   7.378
  879TIP3    H224197   4.079   1.707   7.253
  880TIP3   OH224198   4.205   1.616   7.156
  880TIP3    H124199   4.189   1.523   7.179
  880TIP3    H224200   4.291   1.631   7.202
  881TIP3   OH224201   4.466   1.664   7.246
  881TIP3    H124202   4.482   1.572   7.217
  881TIP3    H224203   4.470   1.655   7.342
  882TIP3   OH224204   4.804   0.236   7.157
  882TIP3    H124205   4.743   0.166   7.185
  882TIP3    H224206   4.867   0.183   7.105
  883TIP3   OH224207   5.326   0.038   7.170
  883TIP3    H124208   5.386   0.092   7.115
  883TIP3    H224209   5.239   0.068   7.144
  884TIP3   OH224210   5.497   0.159   6.992
  884TIP3    H124211   5.559   0.100   6.950
  884TIP3    H224212   5.544   0.244   7.005
  885TIP3   OH224213   4.046   0.095   6.942
  885TIP3    H124214   3.968   0.070   6.892
  885TIP3    H224215   4.096   0.011   6.948
  886TIP3   OH224216   4.501   0.080   6.920
  886TIP3    H124217   4.588   0.124   6.917
  886TIP3    H224218   4.491   0.061   7.014
  887TIP3   OH224219   5.042   0.123   7.098
  887TIP3    H124220   5.056   0.115   7.003
  887TIP3    H224221   5.032   0.025   7.112
  888TIP3   OH224222   5.193   0.093   6.661
  888TIP3    H124223   5.119   0.148   6.628
  888TIP3    H224224   5.151   0.006   6.665
  889TIP3   OH224225   4.603   0.284   6.610
  889TIP3    H124226   4.637   0.227   6.681
  889TIP3    H224227   4.615   0.370   6.655
  890TIP3   OH224228   4.806   1.789   6.449
  890TIP3    H124229   4.895   1.821   6.433
  890TIP3    H224230   4.776   1.744   6.369
  891TIP3   OH224231   5.476   1.743   6.718
  891TIP3    H124232   5.450   1.668   6.660
  891TIP3    H224233   5.464   1.817   6.657
  892TIP3   OH224234   4.028   0.144   7.879
  892TIP3    H124235   3.996   0.069   7.930
  892TIP3    H224236   4.119   0.145   7.918
  893TIP3   OH224237   4.212   0.104   8.041
  893TIP3    H124238   4.306   0.083   8.028
  893TIP3    H224239   4.196   0.019   8.087
  894TIP3   OH224240   5.071   7.351   8.061
  894TIP3    H124241   5.076   7.292   8.139
  894TIP3    H224242   5.159   7.328   8.028
  895TIP3   OH224243   5.398   1.618   7.934
  895TIP3    H124244   5.319   1.604   7.878
  895TIP3    H224245   5.388   1.713   7.952
  896TIP3   OH224246   6.838   1.004   6.938
  896TIP3    H124247   6.846   1.101   6.924
  896TIP3    H224248   6.773   0.983   6.871
  897TIP3   OH224249   6.728   0.932   7.279
  897TIP3    H124250   6.727   0.867   7.350
  897TIP3    H224251   6.696   0.880   7.202
  898TIP3   OH224252   5.964   0.898   7.434
  898TIP3    H124253   5.972   0.830   7.504
  898TIP3    H224254   6.039   0.956   7.456
  899TIP3   OH224255   7.101   1.225   7.108
  899TIP3    H124256   7.058   1.153   7.156
  899TIP3    H224257   7.099   1.296   7.174
  900TIP3   OH224258   6.057   1.343   7.285
  900TIP3    H124259   6.026   1.257   7.253
  900TIP3    H224260   6.152   1.325   7.290
  901TIP3   OH224261   5.723   0.698   6.831
  901TIP3    H124262   5.683   0.788   6.828
  901TIP3    H224263   5.663   0.649   6.775
  902TIP3   OH224264   5.791   0.922   7.044
  902TIP3    H124265   5.817   0.841   7.092
  902TIP3    H224266   5.864   0.934   6.982
  903TIP3   OH224267   6.810   1.741   7.130
  903TIP3    H124268   6.874   1.672   7.102
  903TIP3    H224269   6.787   1.709   7.217
  904TIP3   OH224270   6.567   1.172   7.325
  904TIP3    H124271   6.600   1.108   7.260
  904TIP3    H224272   6.647   1.187   7.378
  905TIP3   OH224273   6.884   0.619   7.357
  905TIP3    H124274   6.899   0.522   7.356
  905TIP3    H224275   6.874   0.634   7.261
  906TIP3   OH224276   6.198   0.427   7.077
  906TIP3    H124277   6.204   0.514   7.033
  906TIP3    H224278   6.151   0.372   7.012
  907TIP3   OH224279   6.970   0.440   6.921
  907TIP3    H124280   7.036   0.406   6.985
  907TIP3    H224281   7.026   0.489   6.861
  908TIP3   OH224282   5.857   0.668   7.153
  908TIP3    H124283   5.924   0.613   7.199
  908TIP3    H224284   5.868   0.637   7.062
  909TIP3   OH224285   6.375   0.824   7.082
  909TIP3    H124286   6.439   0.765   7.125
  909TIP3    H224287   6.320   0.758   7.036
  910TIP3   OH224288   6.086   0.322   7.482
  910TIP3    H124289   6.054   0.375   7.407
  910TIP3    H224290   6.015   0.340   7.549
  911TIP3   OH224291   6.814   1.264   6.838
  911TIP3    H124292   6.787   1.236   6.749
  911TIP3    H224293   6.783   1.357   6.845
  912TIP3   OH224294   6.337   1.081   7.508
  912TIP3    H124295   6.266   1.146   7.528
  912TIP3    H224296   6.407   1.141   7.479
  913TIP3   OH224297   7.121   0.363   7.126
  913TIP3    H124298   7.121   0.284   7.180
  913TIP3    H224299   7.197   0.411   7.166
  914TIP3   OH224300   6.041   0.507   7.284
  914TIP3    H124301   6.106   0.572   7.319
  914TIP3    H224302   6.094   0.462   7.214
  915TIP3   OH224303   6.181   1.281   7.590
  915TIP3    H124304   6.177   1.372   7.555
  915TIP3    H224305   6.093   1.274   7.634
  916TIP3   OH224306   5.792   1.248   6.664
  916TIP3    H124307   5.757   1.277   6.579
  916TIP3    H224308   5.794   1.328   6.720
  917TIP3   OH224309   7.131   1.403   7.353
  917TIP3    H124310   7.035   1.423   7.358
  917TIP3    H224311   7.169   1.488   7.325
  918TIP3   OH224312   7.161   0.252   7.459
  918TIP3    H124313   7.093   0.320   7.469
  918TIP3    H224314   7.240   0.298   7.427
  919TIP3   OH224315   6.478   0.051   7.214
  919TIP3    H124316   6.474  -0.045   7.229
  919TIP3    H224317   6.399   0.079   7.262
  920TIP3   OH224318   6.969   1.581   7.006
  920TIP3    H124319   7.019   1.514   6.955
  920TIP3    H224320   7.012   1.662   6.969
  921TIP3   OH224321   7.093   1.383   6.856
  921TIP3    H124322   7.073   1.309   6.796
  921TIP3    H224323   7.103   1.330   6.938
  922TIP3   OH224324   7.234   1.254   7.716
  922TIP3    H124325   7.261   1.184   7.652
  922TIP3    H224326   7.275   1.329   7.670
  923TIP3   OH224327   7.043   0.948   6.769
  923TIP3    H124328   6.979   0.977   6.835
  923TIP3    H224329   7.099   0.888   6.822
  924TIP3   OH224330   7.047   0.768   7.682
  924TIP3    H124331   7.044   0.848   7.737
  924TIP3    H224332   6.983   0.796   7.614
  925TIP3   OH224333   6.214   1.016   6.964
  925TIP3    H124334   6.182   0.977   6.880
  925TIP3    H224335   6.276   0.948   6.998
  926TIP3   OH224336   6.347   1.356   7.232
  926TIP3    H124337   6.346   1.301   7.152
  926TIP3    H224338   6.425   1.320   7.278
  927TIP3   OH224339   6.248   0.891   7.330
  927TIP3    H124340   6.304   0.902   7.251
  927TIP3    H224341   6.286   0.958   7.392
  928TIP3   OH224342   6.882   1.449   7.400
  928TIP3    H124343   6.861   1.512   7.469
  928TIP3    H224344   6.863   1.362   7.443
  929TIP3   OH224345   6.343   1.334   7.800
  929TIP3    H124346   6.302   1.409   7.849
  929TIP3    H224347   6.275   1.314   7.730
  930TIP3   OH224348   6.037   0.950   7.716
  930TIP3    H124349   6.042   1.017   7.787
  930TIP3    H224350   5.943   0.959   7.694
  931TIP3   OH224351   6.713   1.544   6.885
  931TIP3    H124352   6.756   1.572   6.967
  931TIP3    H224353   6.655   1.618   6.866
  932TIP3   OH224354   6.167   1.538   7.873
  932TIP3    H124355   6.161   1.527   7.777
  932TIP3    H224356   6.074   1.525   7.902
  933TIP3   OH224357   6.114   0.919   6.724
  933TIP3    H124358   6.085   0.998   6.675
  933TIP3    H224359   6.043   0.857   6.704
  934TIP3   OH224360   5.721   1.161   7.615
  934TIP3    H124361   5.676   1.153   7.529
  934TIP3    H224362   5.728   1.067   7.637
  935TIP3   OH224363   5.697   1.435   7.293
  935TIP3    H124364   5.793   1.423   7.291
  935TIP3    H224365   5.688   1.517   7.344
  936TIP3   OH224366   6.616   1.460   7.749
  936TIP3    H124367   6.622   1.544   7.800
  936TIP3    H224368   6.529   1.424   7.774
  937TIP3   OH224369   6.662   1.834   6.729
  937TIP3    H124370   6.653   1.831   6.633
  937TIP3    H224371   6.664   1.930   6.745
  938TIP3   OH224372   6.023   1.723   6.912
  938TIP3    H124373   6.039   1.680   6.999
  938TIP3    H224374   5.939   1.680   6.888
  939TIP3   OH224375   6.931   1.750   6.707
  939TIP3    H124376   6.835   1.756   6.720
  939TIP3    H224377   6.956   1.675   6.763
  940TIP3   OH224378   7.188   0.670   7.912
  940TIP3    H124379   7.183   0.705   7.823
  940TIP3    H224380   7.239   0.586   7.895
  941TIP3   OH224381   5.949   1.293   7.710
  941TIP3    H124382   5.971   1.256   7.798
  941TIP3    H224383   5.862   1.253   7.688
  942TIP3   OH224384   6.213   0.136   7.308
  942TIP3    H124385   6.125   0.134   7.267
  942TIP3    H224386   6.206   0.223   7.352
  943TIP3   OH224387   6.679   0.109   7.646
  943TIP3    H124388   6.721   0.068   7.721
  943TIP3    H224389   6.584   0.098   7.661
  944TIP3   OH224390   7.004   0.484   7.726
  944TIP3    H124391   6.953   0.473   7.810
  944TIP3    H224392   6.996   0.579   7.709
  945TIP3   OH224393   6.227   0.637   7.429
  945TIP3    H124394   6.153   0.636   7.493
  945TIP3    H224395   6.223   0.729   7.393
  946TIP3   OH224396   6.222   0.647   6.918
  946TIP3    H124397   6.128   0.627   6.904
  946TIP3    H224398   6.261   0.623   6.833
  947TIP3   OH224399   6.770   0.697   6.784
  947TIP3    H124400   6.737   0.783   6.756
  947TIP3    H224401   6.847   0.684   6.727
  948TIP3   OH224402   6.683   0.721   7.937
  948TIP3    H124403   6.630   0.643   7.968
  948TIP3    H224404   6.766   0.708   7.985
  949TIP3   OH224405   6.876   0.650   7.077
  949TIP3    H124406   6.854   0.705   7.000
  949TIP3    H224407   6.889   0.564   7.033
  950TIP3   OH224408   5.989   0.664   7.598
  950TIP3    H124409   5.997   0.704   7.687
  950TIP3    H224410   5.945   0.580   7.619
  951TIP3   OH224411   5.656   0.377   6.994
  951TIP3    H124412   5.723   0.372   7.067
  951TIP3    H224413   5.703   0.337   6.921
  952TIP3   OH224414   6.798   0.807   7.533
  952TIP3    H124415   6.836   0.739   7.474
  952TIP3    H224416   6.752   0.754   7.601
  953TIP3   OH224417   6.476   0.402   7.014
  953TIP3    H124418   6.384   0.406   7.051
  953TIP3    H224419   6.529   0.390   7.095
  954TIP3   OH224420   5.961   0.562   6.900
  954TIP3    H124421   5.869   0.576   6.868
  954TIP3    H224422   5.987   0.476   6.867
  955TIP3   OH224423   6.323   0.571   6.668
  955TIP3    H124424   6.419   0.585   6.688
  955TIP3    H224425   6.299   0.640   6.602
  956TIP3   OH224426   6.913   0.327   7.342
  956TIP3    H124427   6.846   0.335   7.412
  956TIP3    H224428   6.865   0.302   7.262
  957TIP3   OH224429   6.195   0.677   6.427
  957TIP3    H124430   6.132   0.648   6.358
  957TIP3    H224431   6.274   0.700   6.381
  958TIP3   OH224432   7.230   1.898   7.978
  958TIP3    H124433   7.263   1.930   7.892
  958TIP3    H224434   7.306   1.924   8.032
  959TIP3   OH224435   6.008   1.139   7.931
  959TIP3    H124436   6.078   1.164   7.994
  959TIP3    H224437   5.929   1.149   7.988
  960TIP3   OH224438   6.608   0.680   7.204
  960TIP3    H124439   6.668   0.625   7.154
  960TIP3    H224440   6.592   0.627   7.284
  961TIP3   OH224441   6.104   0.298   6.844
  961TIP3    H124442   6.076   0.205   6.856
  961TIP3    H224443   6.188   0.284   6.804
  962TIP3   OH224444   6.472   0.518   7.447
  962TIP3    H124445   6.388   0.566   7.458
  962TIP3    H224446   6.527   0.549   7.521
  963TIP3   OH224447   6.521   1.147   6.617
  963TIP3    H124448   6.453   1.085   6.584
  963TIP3    H224449   6.510   1.147   6.712
  964TIP3   OH224450   7.218   1.055   7.497
  964TIP3    H124451   7.291   1.074   7.433
  964TIP3    H224452   7.142   1.059   7.437
  965TIP3   OH224453   6.680   1.161   7.741
  965TIP3    H124454   6.644   1.120   7.820
  965TIP3    H224455   6.657   1.254   7.751
  966TIP3   OH224456   6.985   0.610   6.596
  966TIP3    H124457   7.072   0.597   6.638
  966TIP3    H224458   6.996   0.691   6.546
  967TIP3   OH224459   6.041   1.075   7.197
  967TIP3    H124460   6.110   1.067   7.128
  967TIP3    H224461   6.047   0.989   7.243
  968TIP3   OH224462   5.740   0.915   7.724
  968TIP3    H124463   5.758   0.871   7.809
  968TIP3    H224464   5.678   0.854   7.680
  969TIP3   OH224465   6.441   0.871   7.942
  969TIP3    H124466   6.410   0.841   7.855
  969TIP3    H224467   6.534   0.840   7.941
  970TIP3   OH224468   6.909   1.403   7.736
  970TIP3    H124469   6.817   1.422   7.712
  970TIP3    H224470   6.906   1.433   7.829
  971TIP3   OH224471   7.021   0.985   7.326
  971TIP3    H124472   6.927   0.963   7.313
  971TIP3    H224473   7.068   0.911   7.284
  972TIP3   OH224474   6.278   1.420   6.932
  972TIP3    H124475   6.328   1.501   6.916
  972TIP3    H224476   6.188   1.445   6.905
  973TIP3   OH224477   6.421   1.188   6.892
  973TIP3    H124478   6.389   1.280   6.898
  973TIP3    H224479   6.347   1.139   6.932
  974TIP3   OH224480   6.465   1.605   7.528
  974TIP3    H124481   6.510   1.686   7.500
  974TIP3    H224482   6.526   1.572   7.597
  975TIP3   OH224483   6.289   1.683   6.843
  975TIP3    H124484   6.193   1.698   6.857
  975TIP3    H224485   6.324   1.768   6.876
  976TIP3   OH224486   6.820   1.206   7.491
  976TIP3    H124487   6.784   1.186   7.580
  976TIP3    H224488   6.882   1.134   7.474
  977TIP3   OH224489   7.098   1.662   7.739
  977TIP3    H124490   7.027   1.614   7.691
  977TIP3    H224491   7.120   1.733   7.675
  978TIP3   OH224492   5.904   0.387   7.681
  978TIP3    H124493   5.813   0.423   7.676
  978TIP3    H224494   5.891   0.300   7.722
  979TIP3   OH224495   5.866   1.568   7.521
  979TIP3    H124496   5.896   1.475   7.522
  979TIP3    H224497   5.892   1.596   7.610
  980TIP3   OH224498   6.000   1.098   6.545
  980TIP3    H124499   5.924   1.133   6.595
  980TIP3    H224500   6.046   1.176   6.515
  981TIP3   OH224501   6.776   0.365   7.574
  981TIP3    H124502   6.851   0.371   7.635
  981TIP3    H224503   6.741   0.276   7.592
  982TIP3   OH224504   6.854   0.330   6.685
  982TIP3    H124505   6.877   0.372   6.600
  982TIP3    H224506   6.915   0.370   6.748
  983TIP3   OH224507   6.568   0.497   6.764
  983TIP3    H124508   6.651   0.552   6.764
  983TIP3    H224509   6.553   0.488   6.861
  984TIP3   OH224510   6.633   0.601   7.684
  984TIP3    H124511   6.641   0.657   7.763
  984TIP3    H224512   6.698   0.530   7.693
  985TIP3   OH224513   6.655   0.208   6.851
  985TIP3    H124514   6.633   0.272   6.922
  985TIP3    H224515   6.730   0.256   6.808
  986TIP3   OH224516   7.239   0.370   7.755
  986TIP3    H124517   7.153   0.418   7.752
  986TIP3    H224518   7.277   0.389   7.668
  987TIP3   OH224519   7.110   0.766   7.176
  987TIP3    H124520   7.029   0.723   7.143
  987TIP3    H224521   7.153   0.694   7.223
  988TIP3   OH224522   7.222   1.695   7.337
  988TIP3    H124523   7.206   1.762   7.268
  988TIP3    H224524   7.316   1.704   7.353
  989TIP3   OH224525   5.938   0.122   7.219
  989TIP3    H124526   5.948   0.113   7.122
  989TIP3    H224527   5.929   0.031   7.246
  990TIP3   OH224528   5.859   1.496   6.827
  990TIP3    H124529   5.775   1.543   6.830
  990TIP3    H224530   5.911   1.546   6.764
  991TIP3   OH224531   5.782   1.762   7.960
  991TIP3    H124532   5.842   1.742   8.035
  991TIP3    H224533   5.740   1.676   7.943
  992TIP3   OH224534   6.251   1.652   8.122
  992TIP3    H124535   6.327   1.600   8.151
  992TIP3    H224536   6.247   1.626   8.027
  993TIP3   OH224537   6.904   1.491   7.995
  993TIP3    H124538   6.871   1.404   8.022
  993TIP3    H224539   6.981   1.502   8.054
  994TIP3   OH224540   5.773   1.137   8.058
  994TIP3    H124541   5.791   1.047   8.026
  994TIP3    H224542   5.700   1.165   8.001
  995TIP3   OH224543   6.213   1.173   6.268
  995TIP3    H124544   6.225   1.096   6.324
  995TIP3    H224545   6.282   1.167   6.201
  996TIP3   OH224546   6.445   1.137   7.996
  996TIP3    H124547   6.411   1.168   7.911
  996TIP3    H224548   6.453   1.039   7.985
  997TIP3   OH224549   7.012   1.121   7.737
  997TIP3    H124550   7.091   1.181   7.731
  997TIP3    H224551   6.944   1.189   7.742
  998TIP3   OH224552   5.865   0.862   7.998
  998TIP3    H124553   5.906   0.775   7.989
  998TIP3    H224554   5.842   0.863   8.093
  999TIP3   OH224555   6.321   0.974   6.498
  999TIP3    H124556   6.281   0.925   6.571
  999TIP3    H224557   6.363   0.909   6.442
 1000TIP3   OH224558   6.255   0.756   7.733
 1000TIP3    H124559   6.195   0.828   7.760
 1000TIP3    H224560   6.294   0.793   7.652
 1001TIP3   OH224561   6.762   1.014   8.075
 1001TIP3    H124562   6.856   1.011   8.056
 1001TIP3    H224563   6.747   0.934   8.127
 1002TIP3   OH224564   6.295   0.495   7.838
 1002TIP3    H124565   6.307   0.422   7.775
 1002TIP3    H224566   6.291   0.575   7.783
 1003TIP3   OH224567   6.335   0.334   7.591
 1003TIP3    H124568   6.387   0.381   7.522
 1003TIP3    H224569   6.246   0.323   7.550
 1004TIP3   OH224570   6.489   0.880   7.618
 1004TIP3    H124571   6.565   0.864   7.561
 1004TIP3    H224572   6.454   0.964   7.586
 1005TIP3   OH224573   6.934   0.658   8.115
 1005TIP3    H124574   6.956   0.564   8.108
 1005TIP3    H224575   7.022   0.699   8.111
 1006TIP3   OH224576   7.067   0.940   7.933
 1006TIP3    H124577   7.036   1.008   7.869
 1006TIP3    H224578   7.159   0.928   7.910
 1007TIP3   OH224579   6.142   0.618   8.034
 1007TIP3    H124580   6.064   0.563   8.013
 1007TIP3    H224581   6.206   0.584   7.968
 1008TIP3   OH224582   6.398   0.095   7.661
 1008TIP3    H124583   6.395   0.188   7.629
 1008TIP3    H224584   6.342   0.053   7.594
 1009TIP3   OH224585   6.540   0.512   7.996
 1009TIP3    H124586   6.512   0.482   8.084
 1009TIP3    H224587   6.462   0.489   7.941
 1010TIP3   OH224588   6.810   0.424   7.904
 1010TIP3    H124589   6.714   0.426   7.919
 1010TIP3    H224590   6.843   0.361   7.972
 1011TIP3   OH224591   6.979   0.293   8.101
 1011TIP3    H124592   6.960   0.196   8.098
 1011TIP3    H224593   6.942   0.318   8.188
 1012TIP3   OH224594   5.949   0.412   8.006
 1012TIP3    H124595   5.975   0.338   7.948
 1012TIP3    H224596   5.943   0.367   8.093
 1013TIP3   OH224597   6.434   7.315   7.906
 1013TIP3    H124598   6.503   7.248   7.910
 1013TIP3    H224599   6.424   7.337   7.811
 1014TIP3   OH224600   6.473   0.182   8.110
 1014TIP3    H124601   6.457   0.126   8.030
 1014TIP3    H224602   6.412   0.256   8.102
 1015TIP3   OH224603   5.653   1.865   6.877
 1015TIP3    H124604   5.581   1.816   6.831
 1015TIP3    H224605   5.680   1.800   6.944
 1016TIP3   OH224606   5.734   1.677   7.063
 1016TIP3    H124607   5.700   1.589   7.084
 1016TIP3    H224608   5.758   1.710   7.151
 1017TIP3   OH224609   7.282   1.483   7.581
 1017TIP3    H124610   7.215   1.526   7.637
 1017TIP3    H224611   7.229   1.446   7.508
 1018TIP3   OH224612   7.190   0.784   6.913
 1018TIP3    H124613   7.214   0.692   6.916
 1018TIP3    H224614   7.200   0.809   7.007
 1019TIP3   OH224615   5.740   0.985   7.312
 1019TIP3    H124616   5.758   0.976   7.216
 1019TIP3    H224617   5.829   0.968   7.348
 1020TIP3   OH224618   7.205   0.527   6.740
 1020TIP3    H124619   7.235   0.443   6.776
 1020TIP3    H224620   7.287   0.567   6.709
 1021TIP3   OH224621  -0.054   0.508   7.293
 1021TIP3    H124622   0.036   0.543   7.284
 1021TIP3    H224623  -0.073   0.569   7.366
 1022TIP3   OH224624   7.278   0.666   7.598
 1022TIP3    H124625   7.185   0.694   7.610
 1022TIP3    H224626   7.315   0.737   7.543
 1023TIP3   OH224627   5.701   0.516   7.926
 1023TIP3    H124628   5.795   0.495   7.946
 1023TIP3    H224629   5.657   0.433   7.955
 1024TIP3   OH224630   7.177   0.218   6.816
 1024TIP3    H124631   7.271   0.217   6.842
 1024TIP3    H224632   7.190   0.192   6.724
 1025TIP3   OH224633   5.820   0.348   7.207
 1025TIP3    H124634   5.864   0.265   7.239
 1025TIP3    H224635   5.874   0.414   7.253
 1026TIP3   OH224636   5.647   0.645   7.314
 1026TIP3    H124637   5.708   0.619   7.242
 1026TIP3    H224638   5.696   0.724   7.344
 1027TIP3   OH224639   7.142   1.746   6.929
 1027TIP3    H124640   7.208   1.714   6.865
 1027TIP3    H224641   7.195   1.806   6.984
 1028TIP3   OH224642   5.682   0.141   7.553
 1028TIP3    H124643   5.616   0.120   7.621
 1028TIP3    H224644   5.634   0.205   7.497
 1029TIP3   OH224645   5.905   1.457   7.971
 1029TIP3    H124646   5.821   1.478   7.928
 1029TIP3    H224647   5.878   1.449   8.063
 1030TIP3   OH224648   6.195   1.556   7.598
 1030TIP3    H124649   6.162   1.642   7.570
 1030TIP3    H224650   6.288   1.565   7.567
 1031TIP3   OH224651   6.628   1.698   7.889
 1031TIP3    H124652   6.642   1.663   7.980
 1031TIP3    H224653   6.718   1.728   7.865
 1032TIP3   OH224654   6.859   1.825   7.820
 1032TIP3    H124655   6.932   1.767   7.795
 1032TIP3    H224656   6.897   1.869   7.898
 1033TIP3   OH224657   5.938   1.880   7.598
 1033TIP3    H124658   5.865   1.929   7.558
 1033TIP3    H224659   5.906   1.860   7.687
 1034TIP3   OH224660   6.185   1.838   7.505
 1034TIP3    H124661   6.096   1.852   7.544
 1034TIP3    H224662   6.179   1.896   7.427
 1035TIP3   OH224663   6.653   1.828   7.422
 1035TIP3    H124664   6.609   1.884   7.356
 1035TIP3    H224665   6.669   1.891   7.495
 1036TIP3   OH224666   6.885   1.710   7.524
 1036TIP3    H124667   6.799   1.736   7.488
 1036TIP3    H224668   6.930   1.796   7.516
 1037TIP3   OH224669   7.130   1.867   7.546
 1037TIP3    H124670   7.129   1.962   7.524
 1037TIP3    H224671   7.164   1.830   7.462
 1038TIP3   OH224672   5.883   1.745   7.291
 1038TIP3    H124673   5.876   1.699   7.378
 1038TIP3    H224674   5.965   1.707   7.253
 1039TIP3   OH224675   6.092   1.615   7.156
 1039TIP3    H124676   6.075   1.522   7.180
 1039TIP3    H224677   6.177   1.631   7.202
 1040TIP3   OH224678   6.349   1.665   7.245
 1040TIP3    H124679   6.367   1.573   7.218
 1040TIP3    H224680   6.356   1.658   7.341
 1041TIP3   OH224681   6.685   0.235   7.156
 1041TIP3    H124682   6.627   0.164   7.185
 1041TIP3    H224683   6.754   0.185   7.106
 1042TIP3   OH224684   7.211   0.038   7.172
 1042TIP3    H124685   7.271   0.093   7.121
 1042TIP3    H224686   7.124   0.070   7.148
 1043TIP3   OH224687   5.932   0.095   6.942
 1043TIP3    H124688   5.853   0.068   6.893
 1043TIP3    H224689   5.982   0.011   6.947
 1044TIP3   OH224690   6.386   0.086   6.919
 1044TIP3    H124691   6.476   0.123   6.920
 1044TIP3    H224692   6.377   0.061   7.012
 1045TIP3   OH224693   6.923   0.121   7.099
 1045TIP3    H124694   6.942   0.118   7.005
 1045TIP3    H224695   6.916   0.022   7.110
 1046TIP3   OH224696   5.801   1.664   6.613
 1046TIP3    H124697   5.728   1.661   6.550
 1046TIP3    H224698   5.802   1.756   6.642
 1047TIP3   OH224699   6.512   0.279   6.605
 1047TIP3    H124700   6.541   0.221   6.678
 1047TIP3    H224701   6.535   0.365   6.646
 1048TIP3   OH224702   5.914   0.143   7.879
 1048TIP3    H124703   5.881   0.069   7.931
 1048TIP3    H224704   6.004   0.145   7.919
 1049TIP3   OH224705   6.097   0.104   8.041
 1049TIP3    H124706   6.191   0.082   8.028
 1049TIP3    H224707   6.080   0.019   8.088
 1050TIP3   OH224708   6.966   7.350   8.065
 1050TIP3    H124709   6.962   7.289   8.140
 1050TIP3    H224710   7.049   7.326   8.023
 1051TIP3   OH224711   7.264   1.606   7.945
 1051TIP3    H124712   7.198   1.600   7.873
 1051TIP3    H224713   7.266   1.705   7.952
 1052TIP3   OH224714   1.187   2.891   6.927
 1052TIP3    H124715   1.187   2.990   6.927
 1052TIP3    H224716   1.111   2.870   6.874
 1053TIP3   OH224717   1.072   2.817   7.277
 1053TIP3    H124718   1.071   2.753   7.349
 1053TIP3    H224719   1.037   2.766   7.202
 1054TIP3   OH224720   0.312   2.783   7.431
 1054TIP3    H124721   0.318   2.716   7.503
 1054TIP3    H224722   0.382   2.843   7.458
 1055TIP3   OH224723   1.441   3.112   7.107
 1055TIP3    H124724   1.400   3.040   7.156
 1055TIP3    H224725   1.443   3.183   7.174
 1056TIP3   OH224726   0.399   3.227   7.288
 1056TIP3    H124727   0.368   3.142   7.252
 1056TIP3    H224728   0.495   3.210   7.289
 1057TIP3   OH224729   0.092   2.586   6.792
 1057TIP3    H124730   0.044   2.664   6.828
 1057TIP3    H224731   0.013   2.533   6.789
 1058TIP3   OH224732   0.132   2.801   7.042
 1058TIP3    H124733   0.161   2.726   7.095
 1058TIP3    H224734   0.206   2.818   6.982
 1059TIP3   OH224735   1.153   3.627   7.131
 1059TIP3    H124736   1.217   3.558   7.103
 1059TIP3    H224737   1.132   3.595   7.218
 1060TIP3   OH224738   0.909   3.057   7.325
 1060TIP3    H124739   0.943   2.994   7.259
 1060TIP3    H224740   0.990   3.072   7.378
 1061TIP3   OH224741   1.770   2.222   7.399
 1061TIP3    H124742   1.786   2.282   7.475
 1061TIP3    H224743   1.826   2.265   7.333
 1062TIP3   OH224744   1.226   2.504   7.357
 1062TIP3    H124745   1.243   2.408   7.357
 1062TIP3    H224746   1.216   2.518   7.261
 1063TIP3   OH224747   0.537   2.313   7.080
 1063TIP3    H124748   0.549   2.396   7.030
 1063TIP3    H224749   0.500   2.254   7.010
 1064TIP3   OH224750   1.312   2.321   6.916
 1064TIP3    H124751   1.377   2.290   6.983
 1064TIP3    H224752   1.367   2.377   6.861
 1065TIP3   OH224753   0.198   2.546   7.148
 1065TIP3    H124754   0.270   2.498   7.194
 1065TIP3    H224755   0.214   2.518   7.057
 1066TIP3   OH224756   0.717   2.709   7.084
 1066TIP3    H124757   0.783   2.651   7.125
 1066TIP3    H224758   0.664   2.643   7.034
 1067TIP3   OH224759   1.813   2.363   7.626
 1067TIP3    H124760   1.752   2.440   7.616
 1067TIP3    H224761   1.817   2.355   7.722
 1068TIP3   OH224762   0.432   2.202   7.483
 1068TIP3    H124763   0.401   2.259   7.409
 1068TIP3    H224764   0.363   2.225   7.551
 1069TIP3   OH224765   1.157   3.151   6.837
 1069TIP3    H124766   1.127   3.127   6.749
 1069TIP3    H224767   1.128   3.244   6.846
 1070TIP3   OH224768   0.682   2.967   7.508
 1070TIP3    H124769   0.610   3.030   7.528
 1070TIP3    H224770   0.752   3.027   7.478
 1071TIP3   OH224771   1.491   2.255   7.115
 1071TIP3    H124772   1.470   2.178   7.169
 1071TIP3    H224773   1.559   2.299   7.169
 1072TIP3   OH224774   0.383   2.387   7.286
 1072TIP3    H124775   0.445   2.456   7.319
 1072TIP3    H224776   0.438   2.348   7.212
 1073TIP3   OH224777   0.524   3.165   7.588
 1073TIP3    H124778   0.520   3.257   7.555
 1073TIP3    H224779   0.435   3.158   7.632
 1074TIP3   OH224780   0.131   3.133   6.664
 1074TIP3    H124781   0.105   3.164   6.576
 1074TIP3    H224782   0.139   3.214   6.718
 1075TIP3   OH224783   1.494   3.295   7.344
 1075TIP3    H124784   1.397   3.306   7.356
 1075TIP3    H224785   1.521   3.387   7.324
 1076TIP3   OH224786   1.526   2.124   7.483
 1076TIP3    H124787   1.453   2.187   7.475
 1076TIP3    H224788   1.597   2.166   7.431
 1077TIP3   OH224789   0.824   1.935   7.230
 1077TIP3    H124790   0.811   1.839   7.221
 1077TIP3    H224791   0.735   1.965   7.258
 1078TIP3   OH224792   1.319   3.474   7.003
 1078TIP3    H124793   1.363   3.402   6.952
 1078TIP3    H224794   1.361   3.553   6.964
 1079TIP3   OH224795   1.443   3.268   6.854
 1079TIP3    H124796   1.413   3.198   6.795
 1079TIP3    H224797   1.444   3.219   6.938
 1080TIP3   OH224798   1.603   3.126   7.704
 1080TIP3    H124799   1.617   3.061   7.632
 1080TIP3    H224800   1.623   3.210   7.660
 1081TIP3   OH224801   1.789   2.756   7.508
 1081TIP3    H124802   1.725   2.829   7.513
 1081TIP3    H224803   1.841   2.781   7.429
 1082TIP3   OH224804   1.394   2.835   6.770
 1082TIP3    H124805   1.325   2.861   6.835
 1082TIP3    H224806   1.444   2.771   6.823
 1083TIP3   OH224807   1.389   2.653   7.685
 1083TIP3    H124808   1.390   2.734   7.737
 1083TIP3    H224809   1.326   2.682   7.615
 1084TIP3   OH224810   0.559   2.902   6.964
 1084TIP3    H124811   0.524   2.861   6.882
 1084TIP3    H224812   0.620   2.833   6.999
 1085TIP3   OH224813   0.690   3.241   7.233
 1085TIP3    H124814   0.688   3.188   7.153
 1085TIP3    H224815   0.768   3.205   7.278
 1086TIP3   OH224816   0.594   2.776   7.330
 1086TIP3    H124817   0.648   2.788   7.250
 1086TIP3    H224818   0.629   2.844   7.392
 1087TIP3   OH224819   1.231   3.334   7.400
 1087TIP3    H124820   1.203   3.397   7.468
 1087TIP3    H224821   1.206   3.248   7.443
 1088TIP3   OH224822   0.686   3.219   7.800
 1088TIP3    H124823   0.646   3.294   7.848
 1088TIP3    H224824   0.619   3.200   7.730
 1089TIP3   OH224825   0.380   2.837   7.718
 1089TIP3    H124826   0.384   2.905   7.788
 1089TIP3    H224827   0.286   2.846   7.694
 1090TIP3   OH224828   1.054   3.427   6.885
 1090TIP3    H124829   1.098   3.457   6.966
 1090TIP3    H224830   1.000   3.503   6.863
 1091TIP3   OH224831   0.511   3.423   7.875
 1091TIP3    H124832   0.504   3.413   7.778
 1091TIP3    H224833   0.417   3.410   7.901
 1092TIP3   OH224834   1.655   1.928   6.524
 1092TIP3    H124835   1.562   1.942   6.554
 1092TIP3    H224836   1.674   2.015   6.488
 1093TIP3   OH224837   0.459   2.804   6.719
 1093TIP3    H124838   0.426   2.886   6.680
 1093TIP3    H224839   0.389   2.739   6.706
 1094TIP3   OH224840   0.122   3.034   7.589
 1094TIP3    H124841   0.044   3.046   7.531
 1094TIP3    H224842   0.084   2.956   7.636
 1095TIP3   OH224843   0.068   3.343   7.267
 1095TIP3    H124844   0.152   3.304   7.295
 1095TIP3    H224845   0.041   3.392   7.346
 1096TIP3   OH224846   1.863   3.391   7.859
 1096TIP3    H124847   1.852   3.295   7.860
 1096TIP3    H224848   1.778   3.416   7.903
 1097TIP3   OH224849   0.960   3.345   7.749
 1097TIP3    H124850   0.966   3.429   7.800
 1097TIP3    H224851   0.872   3.310   7.774
 1098TIP3   OH224852   1.003   3.721   6.727
 1098TIP3    H124853   0.993   3.713   6.630
 1098TIP3    H224854   1.006   3.817   6.743
 1099TIP3   OH224855   0.366   3.609   6.914
 1099TIP3    H124856   0.382   3.566   7.000
 1099TIP3    H224857   0.284   3.564   6.888
 1100TIP3   OH224858   1.308   3.642   6.427
 1100TIP3    H124859   1.352   3.566   6.381
 1100TIP3    H224860   1.312   3.614   6.520
 1101TIP3   OH224861   1.278   3.635   6.707
 1101TIP3    H124862   1.181   3.641   6.724
 1101TIP3    H224863   1.303   3.560   6.763
 1102TIP3   OH224864   1.578   2.538   7.908
 1102TIP3    H124865   1.531   2.584   7.836
 1102TIP3    H224866   1.577   2.446   7.878
 1103TIP3   OH224867   0.294   3.186   7.715
 1103TIP3    H124868   0.312   3.142   7.800
 1103TIP3    H224869   0.210   3.141   7.688
 1104TIP3   OH224870   0.560   2.026   7.305
 1104TIP3    H124871   0.470   2.015   7.267
 1104TIP3    H224872   0.548   2.110   7.353
 1105TIP3   OH224873   1.024   1.996   7.645
 1105TIP3    H124874   1.063   1.947   7.717
 1105TIP3    H224875   0.926   1.982   7.653
 1106TIP3   OH224876   1.352   2.376   7.729
 1106TIP3    H124877   1.298   2.358   7.809
 1106TIP3    H224878   1.337   2.470   7.707
 1107TIP3   OH224879   0.569   2.523   7.429
 1107TIP3    H124880   0.497   2.522   7.494
 1107TIP3    H224881   0.567   2.614   7.393
 1108TIP3   OH224882   0.566   2.536   6.917
 1108TIP3    H124883   0.473   2.510   6.901
 1108TIP3    H224884   0.606   2.504   6.833
 1109TIP3   OH224885   1.115   2.585   6.788
 1109TIP3    H124886   1.078   2.669   6.761
 1109TIP3    H224887   1.189   2.568   6.728
 1110TIP3   OH224888   1.024   2.607   7.937
 1110TIP3    H124889   0.971   2.530   7.968
 1110TIP3    H224890   1.108   2.596   7.985
 1111TIP3   OH224891   1.221   2.534   7.077
 1111TIP3    H124892   1.195   2.590   7.002
 1111TIP3    H224893   1.232   2.448   7.032
 1112TIP3   OH224894   0.335   2.548   7.599
 1112TIP3    H124895   0.336   2.590   7.687
 1112TIP3    H224896   0.286   2.466   7.618
 1113TIP3   OH224897   0.034   2.290   6.978
 1113TIP3    H124898   0.068   2.257   7.063
 1113TIP3    H224899   0.050   2.215   6.920
 1114TIP3   OH224900   0.120   2.345   6.520
 1114TIP3    H124901   0.177   2.405   6.471
 1114TIP3    H224902   0.054   2.402   6.560
 1115TIP3   OH224903   1.142   2.693   7.534
 1115TIP3    H124904   1.179   2.625   7.475
 1115TIP3    H224905   1.096   2.640   7.601
 1116TIP3   OH224906   0.822   2.292   7.018
 1116TIP3    H124907   0.728   2.290   7.046
 1116TIP3    H224908   0.870   2.273   7.100
 1117TIP3   OH224909   0.302   2.445   6.904
 1117TIP3    H124910   0.216   2.461   6.863
 1117TIP3    H224911   0.330   2.361   6.862
 1118TIP3   OH224912   0.665   2.455   6.674
 1118TIP3    H124913   0.762   2.458   6.684
 1118TIP3    H224914   0.642   2.514   6.600
 1119TIP3   OH224915   1.262   2.214   7.341
 1119TIP3    H124916   1.193   2.219   7.411
 1119TIP3    H224917   1.212   2.189   7.262
 1120TIP3   OH224918   0.541   2.577   6.422
 1120TIP3    H124919   0.483   2.536   6.359
 1120TIP3    H224920   0.623   2.584   6.374
 1121TIP3   OH224921   1.582   3.778   7.977
 1121TIP3    H124922   1.610   3.815   7.891
 1121TIP3    H224923   1.655   3.809   8.033
 1122TIP3   OH224924   0.349   3.023   7.932
 1122TIP3    H124925   0.421   3.048   7.993
 1122TIP3    H224926   0.273   3.036   7.990
 1123TIP3   OH224927   0.950   2.566   7.205
 1123TIP3    H124928   1.010   2.511   7.153
 1123TIP3    H224929   0.936   2.512   7.284
 1124TIP3   OH224930   0.450   2.181   6.850
 1124TIP3    H124931   0.421   2.089   6.847
 1124TIP3    H224932   0.530   2.175   6.796
 1125TIP3   OH224933   0.814   2.400   7.447
 1125TIP3    H124934   0.731   2.451   7.457
 1125TIP3    H224935   0.869   2.434   7.521
 1126TIP3   OH224936   1.589   2.942   7.498
 1126TIP3    H124937   1.647   2.989   7.435
 1126TIP3    H224938   1.504   2.947   7.450
 1127TIP3   OH224939   1.257   2.304   6.439
 1127TIP3    H124940   1.164   2.318   6.419
 1127TIP3    H224941   1.290   2.390   6.470
 1128TIP3   OH224942   1.022   3.047   7.741
 1128TIP3    H124943   0.987   3.005   7.820
 1128TIP3    H224944   0.997   3.140   7.752
 1129TIP3   OH224945   1.329   2.499   6.609
 1129TIP3    H124946   1.420   2.478   6.640
 1129TIP3    H224947   1.343   2.568   6.545
 1130TIP3   OH224948   0.383   2.960   7.196
 1130TIP3    H124949   0.452   2.953   7.128
 1130TIP3    H224950   0.393   2.876   7.244
 1131TIP3   OH224951   1.083   3.164   6.531
 1131TIP3    H124952   1.049   3.254   6.553
 1131TIP3    H224953   1.006   3.109   6.543
 1132TIP3   OH224954   0.080   2.799   7.724
 1132TIP3    H124955   0.106   2.755   7.807
 1132TIP3    H224956   0.021   2.736   7.681
 1133TIP3   OH224957   0.784   2.756   7.942
 1133TIP3    H124958   0.753   2.727   7.855
 1133TIP3    H224959   0.877   2.726   7.941
 1134TIP3   OH224960   1.252   3.290   7.736
 1134TIP3    H124961   1.160   3.308   7.713
 1134TIP3    H224962   1.249   3.319   7.829
 1135TIP3   OH224963   1.819   3.094   7.856
 1135TIP3    H124964   1.730   3.117   7.819
 1135TIP3    H224965   1.873   3.090   7.775
 1136TIP3   OH224966   1.649   3.392   6.615
 1136TIP3    H124967   1.612   3.310   6.650
 1136TIP3    H224968   1.678   3.370   6.525
 1137TIP3   OH224969   1.368   2.873   7.326
 1137TIP3    H124970   1.274   2.852   7.315
 1137TIP3    H224971   1.412   2.797   7.283
 1138TIP3   OH224972   0.621   3.305   6.934
 1138TIP3    H124973   0.670   3.387   6.916
 1138TIP3    H224974   0.533   3.330   6.902
 1139TIP3   OH224975   0.198   2.788   6.404
 1139TIP3    H124976   0.255   2.860   6.429
 1139TIP3    H224977   0.108   2.820   6.416
 1140TIP3   OH224978   0.763   3.072   6.889
 1140TIP3    H124979   0.733   3.165   6.896
 1140TIP3    H224980   0.690   3.025   6.933
 1141TIP3   OH224981   0.809   3.490   7.528
 1141TIP3    H124982   0.853   3.572   7.500
 1141TIP3    H224983   0.870   3.457   7.596
 1142TIP3   OH224984   0.631   3.568   6.853
 1142TIP3    H124985   0.535   3.586   6.851
 1142TIP3    H224986   0.667   3.656   6.872
 1143TIP3   OH224987   1.161   3.091   7.491
 1143TIP3    H124988   1.127   3.072   7.581
 1143TIP3    H224989   1.225   3.020   7.474
 1144TIP3   OH224990   1.441   3.549   7.740
 1144TIP3    H124991   1.373   3.499   7.691
 1144TIP3    H224992   1.460   3.619   7.674
 1145TIP3   OH224993   0.248   2.275   7.674
 1145TIP3    H124994   0.159   2.312   7.682
 1145TIP3    H224995   0.237   2.192   7.723
 1146TIP3   OH224996   1.472   3.058   6.624
 1146TIP3    H124997   1.451   2.981   6.681
 1146TIP3    H224998   1.568   3.067   6.640
 1147TIP3   OH224999   0.225   3.458   7.517
 1147TIP3    H125000   0.237   3.362   7.522
 1147TIP3    H225001   0.235   3.481   7.610
 1148TIP3   OH225002   1.120   2.251   7.576
 1148TIP3    H125003   1.194   2.258   7.637
 1148TIP3    H225004   1.083   2.163   7.593
 1149TIP3   OH225005   1.195   2.213   6.683
 1149TIP3    H125006   1.220   2.257   6.599
 1149TIP3    H225007   1.254   2.253   6.747
 1150TIP3   OH225008   0.961   3.422   6.562
 1150TIP3    H125009   0.884   3.479   6.573
 1150TIP3    H225010   1.017   3.477   6.505
 1151TIP3   OH225011   0.917   2.390   6.765
 1151TIP3    H125012   1.000   2.440   6.771
 1151TIP3    H225013   0.892   2.371   6.858
 1152TIP3   OH225014   0.973   2.484   7.686
 1152TIP3    H125015   0.982   2.543   7.763
 1152TIP3    H225016   1.041   2.417   7.694
 1153TIP3   OH225017   1.006   2.092   6.858
 1153TIP3    H125018   0.972   2.159   6.919
 1153TIP3    H225019   1.073   2.145   6.809
 1154TIP3   OH225020   1.590   2.272   7.770
 1154TIP3    H125021   1.499   2.306   7.755
 1154TIP3    H225022   1.622   2.272   7.678
 1155TIP3   OH225023   1.453   2.653   7.173
 1155TIP3    H125024   1.372   2.608   7.143
 1155TIP3    H225025   1.500   2.583   7.223
 1156TIP3   OH225026   1.560   3.578   7.337
 1156TIP3    H125027   1.550   3.646   7.268
 1156TIP3    H225028   1.656   3.583   7.355
 1157TIP3   OH225029   0.312   1.989   7.215
 1157TIP3    H125030   0.290   1.993   7.119
 1157TIP3    H225031   0.266   1.907   7.242
 1158TIP3   OH225032   0.205   3.387   6.835
 1158TIP3    H125033   0.117   3.426   6.827
 1158TIP3    H225034   0.255   3.429   6.764
 1159TIP3   OH225035   0.155   3.650   7.959
 1159TIP3    H125036   0.195   3.627   8.044
 1159TIP3    H225037   0.102   3.570   7.943
 1160TIP3   OH225038   0.592   3.537   8.122
 1160TIP3    H125039   0.670   3.489   8.154
 1160TIP3    H225040   0.591   3.511   8.027
 1161TIP3   OH225041   1.242   3.378   7.995
 1161TIP3    H125042   1.212   3.289   8.022
 1161TIP3    H225043   1.321   3.390   8.052
 1162TIP3   OH225044   1.466   3.469   6.287
 1162TIP3    H125045   1.493   3.386   6.327
 1162TIP3    H225046   1.537   3.489   6.225
 1163TIP3   OH225047   0.111   3.023   8.060
 1163TIP3    H125048   0.136   2.935   8.024
 1163TIP3    H225049   0.043   3.052   7.998
 1164TIP3   OH225050   0.788   3.022   7.996
 1164TIP3    H125051   0.754   3.054   7.911
 1164TIP3    H225052   0.796   2.925   7.985
 1165TIP3   OH225053   1.096   3.164   6.241
 1165TIP3    H125054   1.063   3.186   6.330
 1165TIP3    H225055   1.072   3.073   6.224
 1166TIP3   OH225056   1.358   3.009   7.738
 1166TIP3    H125057   1.436   3.068   7.731
 1166TIP3    H225058   1.287   3.076   7.742
 1167TIP3   OH225059   0.202   2.747   7.997
 1167TIP3    H125060   0.249   2.662   7.988
 1167TIP3    H225061   0.185   2.748   8.092
 1168TIP3   OH225062   0.598   2.642   7.734
 1168TIP3    H125063   0.537   2.713   7.760
 1168TIP3    H225064   0.637   2.679   7.652
 1169TIP3   OH225065   1.105   2.899   8.073
 1169TIP3    H125066   1.200   2.898   8.056
 1169TIP3    H225067   1.089   2.821   8.128
 1170TIP3   OH225068   0.640   2.381   7.838
 1170TIP3    H125069   0.648   2.309   7.773
 1170TIP3    H225070   0.632   2.462   7.784
 1171TIP3   OH225071   0.679   2.218   7.594
 1171TIP3    H125072   0.730   2.264   7.524
 1171TIP3    H225073   0.589   2.210   7.553
 1172TIP3   OH225074   0.833   2.766   7.619
 1172TIP3    H125075   0.908   2.750   7.561
 1172TIP3    H225076   0.797   2.850   7.585
 1173TIP3   OH225077   1.272   2.540   8.114
 1173TIP3    H125078   1.296   2.447   8.108
 1173TIP3    H225079   1.358   2.584   8.116
 1174TIP3   OH225080   1.407   2.822   7.933
 1174TIP3    H125081   1.381   2.893   7.870
 1174TIP3    H225082   1.503   2.817   7.911
 1175TIP3   OH225083   0.483   2.504   8.034
 1175TIP3    H125084   0.406   2.447   8.014
 1175TIP3    H225085   0.547   2.469   7.969
 1176TIP3   OH225086   0.758   1.962   7.636
 1176TIP3    H125087   0.740   2.058   7.623
 1176TIP3    H225088   0.684   1.925   7.584
 1177TIP3   OH225089   0.887   2.388   7.996
 1177TIP3    H125090   0.852   2.375   8.086
 1177TIP3    H225091   0.806   2.378   7.941
 1178TIP3   OH225092   1.154   2.298   7.898
 1178TIP3    H125093   1.060   2.319   7.917
 1178TIP3    H225094   1.186   2.252   7.977
 1179TIP3   OH225095   1.298   2.168   8.092
 1179TIP3    H125096   1.318   2.074   8.104
 1179TIP3    H225097   1.291   2.203   8.186
 1180TIP3   OH225098   0.308   2.296   8.010
 1180TIP3    H125099   0.318   2.222   7.947
 1180TIP3    H225100   0.286   2.251   8.094
 1181TIP3   OH225101   0.786   1.904   7.903
 1181TIP3    H125102   0.844   1.827   7.897
 1181TIP3    H225103   0.765   1.917   7.808
 1182TIP3   OH225104   0.820   2.062   8.109
 1182TIP3    H125105   0.792   2.011   8.030
 1182TIP3    H225106   0.758   2.137   8.106
 1183TIP3   OH225107   0.767   3.761   6.435
 1183TIP3    H125108   0.864   3.765   6.439
 1183TIP3    H225109   0.742   3.813   6.360
 1184TIP3   OH225110   0.123   3.194   6.386
 1184TIP3    H125111   0.211   3.237   6.393
 1184TIP3    H225112   0.129   3.151   6.301
 1185TIP3   OH225113   7.336   3.768   6.863
 1185TIP3    H125114   7.248   3.742   6.827
 1185TIP3    H225115   7.346   3.701   6.934
 1186TIP3   OH225116   0.081   3.565   7.059
 1186TIP3    H125117   0.044   3.477   7.083
 1186TIP3    H225118   0.104   3.595   7.150
 1187TIP3   OH225119   1.831   3.642   7.357
 1187TIP3    H125120   1.834   3.659   7.453
 1187TIP3    H225121   1.902   3.700   7.326
 1188TIP3   OH225122   1.789   3.602   7.652
 1188TIP3    H125123   1.742   3.525   7.613
 1188TIP3    H225124   1.839   3.557   7.722
 1189TIP3   OH225125   1.634   3.173   8.118
 1189TIP3    H125126   1.545   3.171   8.156
 1189TIP3    H225127   1.671   3.254   8.160
 1190TIP3   OH225128   1.767   3.003   6.657
 1190TIP3    H125129   1.848   3.049   6.683
 1190TIP3    H225130   1.764   2.934   6.726
 1191TIP3   OH225131   1.803   2.814   6.848
 1191TIP3    H125132   1.727   2.765   6.887
 1191TIP3    H225133   1.861   2.828   6.926
 1192TIP3   OH225134   1.776   3.085   7.348
 1192TIP3    H125135   1.858   3.046   7.311
 1192TIP3    H225136   1.791   3.180   7.331
 1193TIP3   OH225137   1.632   3.375   7.575
 1193TIP3    H125138   1.563   3.409   7.635
 1193TIP3    H225139   1.577   3.334   7.505
 1194TIP3   OH225140   1.580   2.662   6.904
 1194TIP3    H125141   1.567   2.566   6.904
 1194TIP3    H225142   1.550   2.684   6.995
 1195TIP3   OH225143   0.085   2.869   7.305
 1195TIP3    H125144   0.105   2.864   7.209
 1195TIP3    H225145   0.173   2.858   7.347
 1196TIP3   OH225146   1.669   2.858   7.877
 1196TIP3    H125147   1.731   2.782   7.887
 1196TIP3    H225148   1.729   2.935   7.875
 1197TIP3   OH225149   1.818   2.647   7.941
 1197TIP3    H125150   1.731   2.607   7.924
 1197TIP3    H225151   1.876   2.570   7.933
 1198TIP3   OH225152   1.549   2.419   6.755
 1198TIP3    H125153   1.580   2.326   6.764
 1198TIP3    H225154   1.628   2.460   6.714
 1199TIP3   OH225155   1.614   2.474   7.297
 1199TIP3    H125156   1.710   2.498   7.295
 1199TIP3    H225157   1.594   2.489   7.391
 1200TIP3   OH225158   1.619   2.547   7.574
 1200TIP3    H125159   1.532   2.576   7.608
 1200TIP3    H225160   1.663   2.633   7.553
 1201TIP3   OH225161   0.072   2.386   7.926
 1201TIP3    H125162   0.160   2.370   7.960
 1201TIP3    H225163   0.014   2.319   7.970
 1202TIP3   OH225164   1.848   1.952   8.108
 1202TIP3    H125165   1.883   1.885   8.048
 1202TIP3    H225166   1.858   2.034   8.057
 1203TIP3   OH225167   1.616   2.147   6.756
 1203TIP3    H125168   1.637   2.104   6.842
 1203TIP3    H225169   1.553   2.084   6.714
 1204TIP3   OH225170   0.169   2.226   7.208
 1204TIP3    H125171   0.215   2.146   7.242
 1204TIP3    H225172   0.219   2.296   7.253
 1205TIP3   OH225173   0.051   2.603   7.352
 1205TIP3    H125174   0.052   2.560   7.264
 1205TIP3    H225175   0.058   2.694   7.325
 1206TIP3   OH225176   1.800   2.163   7.945
 1206TIP3    H125177   1.705   2.189   7.941
 1206TIP3    H225178   1.803   2.108   7.865
 1207TIP3   OH225179   0.075   2.152   6.679
 1207TIP3    H125180  -0.018   2.171   6.698
 1207TIP3    H225181   0.099   2.229   6.625
 1208TIP3   OH225182   1.505   3.651   6.918
 1208TIP3    H125183   1.573   3.622   6.855
 1208TIP3    H225184   1.556   3.701   6.983
 1209TIP3   OH225185   7.355   2.018   7.574
 1209TIP3    H125186   7.276   1.997   7.626
 1209TIP3    H225187   7.307   2.070   7.508
 1210TIP3   OH225188   0.246   3.345   7.971
 1210TIP3    H125189   0.160   3.362   7.930
 1210TIP3    H225190   0.221   3.335   8.064
 1211TIP3   OH225191   0.542   3.443   7.600
 1211TIP3    H125192   0.502   3.527   7.570
 1211TIP3    H225193   0.633   3.452   7.566
 1212TIP3   OH225194   0.971   3.584   7.889
 1212TIP3    H125195   0.985   3.549   7.980
 1212TIP3    H225196   1.061   3.614   7.865
 1213TIP3   OH225197   1.200   3.711   7.819
 1213TIP3    H125198   1.273   3.651   7.795
 1213TIP3    H225199   1.238   3.754   7.899
 1214TIP3   OH225200   1.702   1.971   7.730
 1214TIP3    H125201   1.620   2.002   7.687
 1214TIP3    H225202   1.719   1.890   7.677
 1215TIP3   OH225203   0.284   3.766   7.600
 1215TIP3    H125204   0.209   3.814   7.560
 1215TIP3    H225205   0.249   3.746   7.688
 1216TIP3   OH225206   0.529   3.724   7.504
 1216TIP3    H125207   0.440   3.737   7.543
 1216TIP3    H225208   0.523   3.783   7.426
 1217TIP3   OH225209   0.999   3.714   7.421
 1217TIP3    H125210   0.952   3.770   7.357
 1217TIP3    H225211   1.012   3.778   7.495
 1218TIP3   OH225212   1.228   3.596   7.523
 1218TIP3    H125213   1.142   3.623   7.488
 1218TIP3    H225214   1.276   3.681   7.514
 1219TIP3   OH225215   1.487   3.753   7.547
 1219TIP3    H125216   1.480   3.849   7.524
 1219TIP3    H225217   1.508   3.715   7.459
 1220TIP3   OH225218   0.221   3.630   7.291
 1220TIP3    H125219   0.222   3.585   7.378
 1220TIP3    H225220   0.303   3.593   7.252
 1221TIP3   OH225221   0.431   3.502   7.160
 1221TIP3    H125222   0.416   3.408   7.181
 1221TIP3    H225223   0.519   3.517   7.201
 1222TIP3   OH225224   0.693   3.550   7.245
 1222TIP3    H125225   0.711   3.458   7.218
 1222TIP3    H225226   0.700   3.544   7.342
 1223TIP3   OH225227   1.041   2.117   7.159
 1223TIP3    H125228   0.973   2.053   7.185
 1223TIP3    H225229   1.095   2.063   7.100
 1224TIP3   OH225230   1.554   1.920   7.165
 1224TIP3    H125231   1.615   1.979   7.115
 1224TIP3    H225232   1.465   1.955   7.142
 1225TIP3   OH225233   1.720   2.043   6.993
 1225TIP3    H125234   1.790   1.986   6.952
 1225TIP3    H225235   1.771   2.127   7.008
 1226TIP3   OH225236   0.276   1.978   6.947
 1226TIP3    H125237   0.198   1.955   6.891
 1226TIP3    H225238   0.327   1.895   6.936
 1227TIP3   OH225239   0.161   1.953   6.520
 1227TIP3    H125240   0.201   2.016   6.460
 1227TIP3    H225241   0.098   2.007   6.570
 1228TIP3   OH225242   0.723   1.974   6.923
 1228TIP3    H125243   0.815   2.003   6.913
 1228TIP3    H225244   0.722   1.945   7.014
 1229TIP3   OH225245   1.296   1.973   7.084
 1229TIP3    H125246   1.291   1.983   6.988
 1229TIP3    H225247   1.258   1.882   7.098
 1230TIP3   OH225248   1.424   1.977   6.651
 1230TIP3    H125249   1.348   2.035   6.635
 1230TIP3    H225250   1.380   1.891   6.672
 1231TIP3   OH225251   0.845   2.173   6.606
 1231TIP3    H125252   0.863   2.112   6.679
 1231TIP3    H225253   0.843   2.257   6.654
 1232TIP3   OH225254   1.032   3.678   6.450
 1232TIP3    H125255   1.125   3.699   6.432
 1232TIP3    H225256   1.010   3.630   6.369
 1233TIP3   OH225257   1.702   3.632   6.721
 1233TIP3    H125258   1.683   3.552   6.665
 1233TIP3    H225259   1.699   3.702   6.656
 1234TIP3   OH225260   0.262   2.033   7.892
 1234TIP3    H125261   0.228   1.949   7.929
 1234TIP3    H225262   0.354   2.027   7.924
 1235TIP3   OH225263   0.466   1.969   8.052
 1235TIP3    H125264   0.554   1.933   8.028
 1235TIP3    H225265   0.426   1.890   8.094
 1236TIP3   OH225266   1.304   1.898   8.066
 1236TIP3    H125267   1.319   1.853   8.153
 1236TIP3    H225268   1.398   1.896   8.034
 1237TIP3   OH225269   1.627   3.503   7.934
 1237TIP3    H125270   1.548   3.489   7.878
 1237TIP3    H225271   1.617   3.599   7.952
 1238TIP3   OH225272   3.070   2.892   6.930
 1238TIP3    H125273   3.072   2.989   6.924
 1238TIP3    H225274   3.001   2.869   6.867
 1239TIP3   OH225275   2.957   2.817   7.280
 1239TIP3    H125276   2.956   2.751   7.350
 1239TIP3    H225277   2.924   2.767   7.203
 1240TIP3   OH225278   2.159   2.806   7.433
 1240TIP3    H125279   2.183   2.730   7.491
 1240TIP3    H225280   2.250   2.840   7.446
 1241TIP3   OH225281   3.326   3.112   7.107
 1241TIP3    H125282   3.285   3.040   7.156
 1241TIP3    H225283   3.329   3.183   7.173
 1242TIP3   OH225284   2.286   3.230   7.282
 1242TIP3    H125285   2.254   3.142   7.253
 1242TIP3    H225286   2.381   3.209   7.291
 1243TIP3   OH225287   1.953   2.588   6.826
 1243TIP3    H125288   1.906   2.674   6.828
 1243TIP3    H225289   1.893   2.532   6.777
 1244TIP3   OH225290   2.019   2.805   7.043
 1244TIP3    H125291   2.048   2.726   7.094
 1244TIP3    H225292   2.093   2.819   6.983
 1245TIP3   OH225293   3.040   3.630   7.136
 1245TIP3    H125294   3.102   3.560   7.101
 1245TIP3    H225295   3.017   3.589   7.218
 1246TIP3   OH225296   2.798   3.061   7.323
 1246TIP3    H125297   2.828   2.993   7.261
 1246TIP3    H225298   2.876   3.072   7.378
 1247TIP3   OH225299   3.655   2.222   7.400
 1247TIP3    H125300   3.672   2.282   7.476
 1247TIP3    H225301   3.711   2.266   7.334
 1248TIP3   OH225302   3.110   2.504   7.358
 1248TIP3    H125303   3.128   2.408   7.358
 1248TIP3    H225304   3.101   2.518   7.262
 1249TIP3   OH225305   2.423   2.312   7.079
 1249TIP3    H125306   2.434   2.397   7.032
 1249TIP3    H225307   2.384   2.255   7.008
 1250TIP3   OH225308   3.198   2.320   6.916
 1250TIP3    H125309   3.264   2.291   6.983
 1250TIP3    H225310   3.252   2.378   6.860
 1251TIP3   OH225311   2.084   2.553   7.153
 1251TIP3    H125312   2.153   2.500   7.199
 1251TIP3    H225313   2.098   2.522   7.062
 1252TIP3   OH225314   2.609   2.708   7.076
 1252TIP3    H125315   2.669   2.650   7.126
 1252TIP3    H225316   2.549   2.642   7.035
 1253TIP3   OH225317   3.703   2.366   7.627
 1253TIP3    H125318   3.639   2.439   7.615
 1253TIP3    H225319   3.701   2.353   7.722
 1254TIP3   OH225320   2.312   2.202   7.483
 1254TIP3    H125321   2.286   2.261   7.409
 1254TIP3    H225322   2.246   2.227   7.551
 1255TIP3   OH225323   3.044   3.151   6.839
 1255TIP3    H125324   3.016   3.123   6.750
 1255TIP3    H225325   3.012   3.245   6.842
 1256TIP3   OH225326   2.573   2.970   7.513
 1256TIP3    H125327   2.494   3.028   7.527
 1256TIP3    H225328   2.637   3.031   7.476
 1257TIP3   OH225329   3.378   2.255   7.115
 1257TIP3    H125330   3.356   2.178   7.169
 1257TIP3    H225331   3.444   2.300   7.171
 1258TIP3   OH225332   2.268   2.388   7.283
 1258TIP3    H125333   2.332   2.455   7.317
 1258TIP3    H225334   2.323   2.347   7.212
 1259TIP3   OH225335   2.410   3.168   7.590
 1259TIP3    H125336   2.404   3.258   7.555
 1259TIP3    H225337   2.321   3.158   7.633
 1260TIP3   OH225338   3.379   3.295   7.344
 1260TIP3    H125339   3.283   3.306   7.356
 1260TIP3    H225340   3.406   3.387   7.324
 1261TIP3   OH225341   3.410   2.125   7.483
 1261TIP3    H125342   3.337   2.188   7.475
 1261TIP3    H225343   3.482   2.166   7.431
 1262TIP3   OH225344   2.708   1.936   7.231
 1262TIP3    H125345   2.694   1.840   7.223
 1262TIP3    H225346   2.620   1.968   7.260
 1263TIP3   OH225347   3.204   3.475   7.004
 1263TIP3    H125348   3.247   3.402   6.954
 1263TIP3    H225349   3.247   3.553   6.963
 1264TIP3   OH225350   3.327   3.266   6.853
 1264TIP3    H125351   3.295   3.197   6.793
 1264TIP3    H225352   3.329   3.217   6.938
 1265TIP3   OH225353   3.488   3.126   7.704
 1265TIP3    H125354   3.503   3.061   7.632
 1265TIP3    H225355   3.508   3.211   7.661
 1266TIP3   OH225356   2.939   2.817   6.681
 1266TIP3    H125357   2.868   2.873   6.645
 1266TIP3    H225358   3.008   2.825   6.613
 1267TIP3   OH225359   2.941   2.657   6.391
 1267TIP3    H125360   3.018   2.670   6.449
 1267TIP3    H225361   2.976   2.603   6.321
 1268TIP3   OH225362   3.677   2.757   7.510
 1268TIP3    H125363   3.611   2.829   7.513
 1268TIP3    H225364   3.725   2.780   7.428
 1269TIP3   OH225365   3.283   2.833   6.772
 1269TIP3    H125366   3.210   2.860   6.833
 1269TIP3    H225367   3.331   2.769   6.829
 1270TIP3   OH225368   3.273   2.652   7.686
 1270TIP3    H125369   3.277   2.735   7.737
 1270TIP3    H225370   3.214   2.683   7.614
 1271TIP3   OH225371   2.442   2.901   6.966
 1271TIP3    H125372   2.412   2.862   6.880
 1271TIP3    H225373   2.505   2.833   6.999
 1272TIP3   OH225374   2.577   3.242   7.232
 1272TIP3    H125375   2.575   3.188   7.152
 1272TIP3    H225376   2.654   3.205   7.278
 1273TIP3   OH225377   2.484   2.800   7.293
 1273TIP3    H125378   2.559   2.797   7.235
 1273TIP3    H225379   2.512   2.836   7.381
 1274TIP3   OH225380   3.119   3.334   7.401
 1274TIP3    H125381   3.090   3.396   7.469
 1274TIP3    H225382   3.093   3.248   7.442
 1275TIP3   OH225383   2.572   3.220   7.800
 1275TIP3    H125384   2.531   3.294   7.849
 1275TIP3    H225385   2.505   3.199   7.731
 1276TIP3   OH225386   3.173   2.749   6.537
 1276TIP3    H125387   3.220   2.775   6.620
 1276TIP3    H225388   3.206   2.813   6.473
 1277TIP3   OH225389   2.255   2.840   7.743
 1277TIP3    H125390   2.263   2.917   7.799
 1277TIP3    H225391   2.172   2.849   7.694
 1278TIP3   OH225392   2.941   3.428   6.885
 1278TIP3    H125393   2.985   3.457   6.966
 1278TIP3    H225394   2.885   3.504   6.864
 1279TIP3   OH225395   2.396   3.423   7.875
 1279TIP3    H125396   2.391   3.413   7.778
 1279TIP3    H225397   2.303   3.409   7.901
 1280TIP3   OH225398   3.540   1.928   6.534
 1280TIP3    H125399   3.445   1.943   6.553
 1280TIP3    H225400   3.562   2.009   6.483
 1281TIP3   OH225401   2.343   2.808   6.721
 1281TIP3    H125402   2.311   2.886   6.677
 1281TIP3    H225403   2.275   2.740   6.705
 1282TIP3   OH225404   1.946   3.048   7.616
 1282TIP3    H125405   1.906   3.038   7.528
 1282TIP3    H225406   1.959   2.953   7.636
 1283TIP3   OH225407   1.924   3.323   7.294
 1283TIP3    H125408   2.020   3.309   7.290
 1283TIP3    H225409   1.917   3.404   7.345
 1284TIP3   OH225410   3.749   3.391   7.859
 1284TIP3    H125411   3.738   3.295   7.860
 1284TIP3    H225412   3.663   3.416   7.903
 1285TIP3   OH225413   2.845   3.345   7.748
 1285TIP3    H125414   2.851   3.429   7.800
 1285TIP3    H225415   2.758   3.310   7.774
 1286TIP3   OH225416   2.889   3.720   6.728
 1286TIP3    H125417   2.882   3.711   6.631
 1286TIP3    H225418   2.890   3.817   6.742
 1287TIP3   OH225419   2.254   3.607   6.911
 1287TIP3    H125420   2.268   3.566   6.999
 1287TIP3    H225421   2.169   3.565   6.887
 1288TIP3   OH225422   3.186   3.636   6.427
 1288TIP3    H125423   3.242   3.569   6.382
 1288TIP3    H225424   3.202   3.616   6.521
 1289TIP3   OH225425   3.163   3.634   6.706
 1289TIP3    H125426   3.067   3.641   6.724
 1289TIP3    H225427   3.188   3.559   6.762
 1290TIP3   OH225428   3.463   2.538   7.908
 1290TIP3    H125429   3.416   2.584   7.836
 1290TIP3    H225430   3.463   2.446   7.878
 1291TIP3   OH225431   2.176   3.183   7.711
 1291TIP3    H125432   2.201   3.141   7.796
 1291TIP3    H225433   2.092   3.138   7.687
 1292TIP3   OH225434   2.445   2.026   7.306
 1292TIP3    H125435   2.355   2.014   7.268
 1292TIP3    H225436   2.433   2.110   7.353
 1293TIP3   OH225437   2.910   1.993   7.641
 1293TIP3    H125438   2.949   1.951   7.720
 1293TIP3    H225439   2.813   1.981   7.655
 1294TIP3   OH225440   3.237   2.377   7.729
 1294TIP3    H125441   3.185   2.357   7.810
 1294TIP3    H225442   3.223   2.470   7.708
 1295TIP3   OH225443   2.469   2.490   7.403
 1295TIP3    H125444   2.403   2.505   7.474
 1295TIP3    H225445   2.465   2.588   7.385
 1296TIP3   OH225446   2.451   2.536   6.916
 1296TIP3    H125447   2.358   2.510   6.902
 1296TIP3    H225448   2.491   2.504   6.832
 1297TIP3   OH225449   3.002   2.584   6.791
 1297TIP3    H125450   2.963   2.669   6.759
 1297TIP3    H225451   3.073   2.570   6.727
 1298TIP3   OH225452   2.909   2.604   7.934
 1298TIP3    H125453   2.861   2.527   7.975
 1298TIP3    H225454   2.993   2.597   7.984
 1299TIP3   OH225455   3.106   2.533   7.077
 1299TIP3    H125456   3.080   2.590   7.002
 1299TIP3    H225457   3.117   2.448   7.029
 1300TIP3   OH225458   2.174   2.538   7.614
 1300TIP3    H125459   2.220   2.580   7.689
 1300TIP3    H225460   2.169   2.444   7.633
 1301TIP3   OH225461   1.884   2.260   6.995
 1301TIP3    H125462   1.951   2.255   7.067
 1301TIP3    H225463   1.930   2.222   6.917
 1302TIP3   OH225464   3.023   2.693   7.533
 1302TIP3    H125465   3.066   2.627   7.474
 1302TIP3    H225466   2.986   2.636   7.601
 1303TIP3   OH225467   2.707   2.293   7.020
 1303TIP3    H125468   2.612   2.290   7.047
 1303TIP3    H225469   2.756   2.274   7.101
 1304TIP3   OH225470   2.188   2.444   6.905
 1304TIP3    H125471   2.100   2.461   6.865
 1304TIP3    H225472   2.218   2.363   6.860
 1305TIP3   OH225473   2.550   2.456   6.674
 1305TIP3    H125474   2.648   2.455   6.684
 1305TIP3    H225475   2.531   2.514   6.599
 1306TIP3   OH225476   3.148   2.214   7.342
 1306TIP3    H125477   3.079   2.219   7.411
 1306TIP3    H225478   3.098   2.189   7.263
 1307TIP3   OH225479   2.424   2.573   6.423
 1307TIP3    H125480   2.367   2.532   6.357
 1307TIP3    H225481   2.506   2.586   6.376
 1308TIP3   OH225482   3.468   3.779   7.977
 1308TIP3    H125483   3.496   3.815   7.891
 1308TIP3    H225484   3.541   3.809   8.034
 1309TIP3   OH225485   2.235   3.030   7.932
 1309TIP3    H125486   2.308   3.049   7.994
 1309TIP3    H225487   2.157   3.035   7.991
 1310TIP3   OH225488   2.836   2.566   7.207
 1310TIP3    H125489   2.895   2.512   7.152
 1310TIP3    H225490   2.820   2.510   7.284
 1311TIP3   OH225491   2.336   2.181   6.850
 1311TIP3    H125492   2.307   2.088   6.848
 1311TIP3    H225493   2.416   2.174   6.795
 1312TIP3   OH225494   2.706   2.397   7.448
 1312TIP3    H125495   2.620   2.446   7.451
 1312TIP3    H225496   2.757   2.434   7.520
 1313TIP3   OH225497   2.757   3.018   6.617
 1313TIP3    H125498   2.677   2.974   6.584
 1313TIP3    H225499   2.736   3.035   6.710
 1314TIP3   OH225500   3.477   2.941   7.497
 1314TIP3    H125501   3.534   2.988   7.434
 1314TIP3    H225502   3.391   2.947   7.451
 1315TIP3   OH225503   2.905   3.045   7.741
 1315TIP3    H125504   2.873   3.008   7.823
 1315TIP3    H225505   2.884   3.139   7.750
 1316TIP3   OH225506   3.218   2.487   6.598
 1316TIP3    H125507   3.306   2.480   6.640
 1316TIP3    H225508   3.220   2.573   6.552
 1317TIP3   OH225509   2.268   2.960   7.196
 1317TIP3    H125510   2.340   2.951   7.131
 1317TIP3    H225511   2.277   2.876   7.244
 1318TIP3   OH225512   2.968   3.166   6.528
 1318TIP3    H125513   2.934   3.253   6.556
 1318TIP3    H225514   2.893   3.106   6.541
 1319TIP3   OH225515   1.962   2.805   7.727
 1319TIP3    H125516   1.989   2.756   7.807
 1319TIP3    H225517   1.908   2.739   7.679
 1320TIP3   OH225518   2.671   2.756   7.947
 1320TIP3    H125519   2.628   2.737   7.861
 1320TIP3    H225520   2.765   2.733   7.947
 1321TIP3   OH225521   3.138   3.290   7.736
 1321TIP3    H125522   3.045   3.308   7.713
 1321TIP3    H225523   3.135   3.319   7.829
 1322TIP3   OH225524   3.704   3.094   7.856
 1322TIP3    H125525   3.615   3.117   7.820
 1322TIP3    H225526   3.759   3.090   7.775
 1323TIP3   OH225527   3.255   2.873   7.327
 1323TIP3    H125528   3.160   2.852   7.315
 1323TIP3    H225529   3.298   2.797   7.283
 1324TIP3   OH225530   2.506   3.305   6.937
 1324TIP3    H125531   2.556   3.385   6.915
 1324TIP3    H225532   2.418   3.329   6.903
 1325TIP3   OH225533   2.649   3.072   6.890
 1325TIP3    H125534   2.618   3.164   6.896
 1325TIP3    H225535   2.575   3.024   6.932
 1326TIP3   OH225536   2.694   3.490   7.528
 1326TIP3    H125537   2.739   3.571   7.501
 1326TIP3    H225538   2.754   3.456   7.597
 1327TIP3   OH225539   2.519   3.570   6.846
 1327TIP3    H125540   2.422   3.584   6.854
 1327TIP3    H225541   2.553   3.656   6.878
 1328TIP3   OH225542   3.047   3.092   7.489
 1328TIP3    H125543   3.014   3.074   7.580
 1328TIP3    H225544   3.110   3.020   7.474
 1329TIP3   OH225545   3.327   3.549   7.740
 1329TIP3    H125546   3.259   3.499   7.691
 1329TIP3    H225547   3.347   3.619   7.674
 1330TIP3   OH225548   2.133   2.271   7.680
 1330TIP3    H125549   2.043   2.310   7.676
 1330TIP3    H225550   2.120   2.187   7.726
 1331TIP3   OH225551   3.356   3.057   6.623
 1331TIP3    H125552   3.331   2.982   6.679
 1331TIP3    H225553   3.449   3.070   6.644
 1332TIP3   OH225554   2.095   3.453   7.521
 1332TIP3    H125555   2.124   3.361   7.522
 1332TIP3    H225556   2.121   3.482   7.610
 1333TIP3   OH225557   3.004   2.253   7.577
 1333TIP3    H125558   3.079   2.256   7.638
 1333TIP3    H225559   2.969   2.163   7.593
 1334TIP3   OH225560   3.088   2.209   6.679
 1334TIP3    H125561   3.104   2.264   6.602
 1334TIP3    H225562   3.139   2.254   6.748
 1335TIP3   OH225563   2.848   3.422   6.561
 1335TIP3    H125564   2.767   3.476   6.574
 1335TIP3    H225565   2.904   3.478   6.506
 1336TIP3   OH225566   2.803   2.386   6.763
 1336TIP3    H125567   2.882   2.442   6.770
 1336TIP3    H225568   2.776   2.368   6.854
 1337TIP3   OH225569   2.873   2.478   7.678
 1337TIP3    H125570   2.894   2.528   7.757
 1337TIP3    H225571   2.935   2.402   7.685
 1338TIP3   OH225572   2.897   2.090   6.861
 1338TIP3    H125573   2.854   2.157   6.916
 1338TIP3    H225574   2.957   2.146   6.807
 1339TIP3   OH225575   2.590   3.534   6.566
 1339TIP3    H125576   2.601   3.615   6.515
 1339TIP3    H225577   2.562   3.562   6.655
 1340TIP3   OH225578   3.478   2.274   7.768
 1340TIP3    H125579   3.385   2.304   7.756
 1340TIP3    H225580   3.508   2.272   7.676
 1341TIP3   OH225581   3.339   2.652   7.170
 1341TIP3    H125582   3.256   2.608   7.142
 1341TIP3    H225583   3.386   2.583   7.222
 1342TIP3   OH225584   2.283   3.240   6.431
 1342TIP3    H125585   2.339   3.313   6.461
 1342TIP3    H225586   2.334   3.206   6.358
 1343TIP3   OH225587   3.444   3.579   7.338
 1343TIP3    H125588   3.436   3.646   7.267
 1343TIP3    H225589   3.540   3.583   7.355
 1344TIP3   OH225590   2.194   1.990   7.217
 1344TIP3    H125591   2.174   1.992   7.121
 1344TIP3    H225592   2.152   1.905   7.242
 1345TIP3   OH225593   2.090   3.385   6.831
 1345TIP3    H125594   2.003   3.426   6.826
 1345TIP3    H225595   2.138   3.431   6.761
 1346TIP3   OH225596   2.011   3.647   7.960
 1346TIP3    H125597   2.070   3.627   8.035
 1346TIP3    H225598   1.970   3.561   7.943
 1347TIP3   OH225599   2.479   3.537   8.121
 1347TIP3    H125600   2.556   3.489   8.154
 1347TIP3    H225601   2.477   3.511   8.027
 1348TIP3   OH225602   3.128   3.378   7.995
 1348TIP3    H125603   3.097   3.289   8.022
 1348TIP3    H225604   3.206   3.390   8.052
 1349TIP3   OH225605   3.345   3.465   6.278
 1349TIP3    H125606   3.377   3.391   6.331
 1349TIP3    H225607   3.423   3.495   6.232
 1350TIP3   OH225608   2.001   3.022   8.059
 1350TIP3    H125609   2.020   2.932   8.025
 1350TIP3    H225610   1.928   3.050   8.001
 1351TIP3   OH225611   2.675   3.022   7.995
 1351TIP3    H125612   2.638   3.054   7.910
 1351TIP3    H225613   2.680   2.924   7.985
 1352TIP3   OH225614   3.243   3.009   7.738
 1352TIP3    H125615   3.321   3.068   7.731
 1352TIP3    H225616   3.173   3.076   7.742
 1353TIP3   OH225617   2.090   2.747   8.000
 1353TIP3    H125618   2.135   2.663   7.987
 1353TIP3    H225619   2.070   2.748   8.095
 1354TIP3   OH225620   2.556   2.858   6.498
 1354TIP3    H125621   2.513   2.807   6.569
 1354TIP3    H225622   2.589   2.789   6.440
 1355TIP3   OH225623   2.516   2.649   7.766
 1355TIP3    H125624   2.431   2.702   7.766
 1355TIP3    H225625   2.516   2.670   7.667
 1356TIP3   OH225626   2.990   2.895   8.070
 1356TIP3    H125627   3.086   2.898   8.058
 1356TIP3    H225628   2.975   2.820   8.129
 1357TIP3   OH225629   2.534   2.381   7.838
 1357TIP3    H125630   2.533   2.307   7.774
 1357TIP3    H225631   2.513   2.459   7.783
 1358TIP3   OH225632   2.564   2.219   7.595
 1358TIP3    H125633   2.614   2.264   7.522
 1358TIP3    H225634   2.475   2.210   7.554
 1359TIP3   OH225635   2.727   2.770   7.620
 1359TIP3    H125636   2.793   2.755   7.552
 1359TIP3    H225637   2.678   2.848   7.584
 1360TIP3   OH225638   3.157   2.541   8.112
 1360TIP3    H125639   3.181   2.447   8.108
 1360TIP3    H225640   3.244   2.584   8.116
 1361TIP3   OH225641   3.293   2.822   7.933
 1361TIP3    H125642   3.268   2.894   7.871
 1361TIP3    H225643   3.388   2.818   7.911
 1362TIP3   OH225644   2.373   2.501   8.036
 1362TIP3    H125645   2.292   2.450   8.013
 1362TIP3    H225646   2.434   2.468   7.968
 1363TIP3   OH225647   2.643   1.960   7.635
 1363TIP3    H125648   2.626   2.056   7.623
 1363TIP3    H225649   2.568   1.924   7.584
 1364TIP3   OH225650   2.767   2.399   7.995
 1364TIP3    H125651   2.741   2.372   8.086
 1364TIP3    H225652   2.689   2.369   7.945
 1365TIP3   OH225653   3.041   2.310   7.904
 1365TIP3    H125654   2.945   2.311   7.918
 1365TIP3    H225655   3.071   2.246   7.971
 1366TIP3   OH225656   3.197   2.172   8.095
 1366TIP3    H125657   3.196   2.074   8.099
 1366TIP3    H225658   3.174   2.201   8.186
 1367TIP3   OH225659   2.179   2.298   8.006
 1367TIP3    H125660   2.203   2.224   7.948
 1367TIP3    H225661   2.171   2.254   8.093
 1368TIP3   OH225662   2.665   1.899   7.904
 1368TIP3    H125663   2.734   1.830   7.901
 1368TIP3    H225664   2.654   1.916   7.808
 1369TIP3   OH225665   2.700   2.061   8.113
 1369TIP3    H125666   2.684   2.011   8.029
 1369TIP3    H225667   2.641   2.137   8.104
 1370TIP3   OH225668   1.881   3.751   6.877
 1370TIP3    H125669   1.811   3.702   6.829
 1370TIP3    H225670   1.909   3.684   6.942
 1371TIP3   OH225671   1.963   3.561   7.063
 1371TIP3    H125672   1.928   3.474   7.082
 1371TIP3    H225673   1.986   3.595   7.151
 1372TIP3   OH225674   3.717   3.642   7.357
 1372TIP3    H125675   3.720   3.659   7.453
 1372TIP3    H225676   3.787   3.700   7.326
 1373TIP3   OH225677   3.675   3.602   7.652
 1373TIP3    H125678   3.627   3.525   7.613
 1373TIP3    H225679   3.725   3.556   7.722
 1374TIP3   OH225680   3.519   3.173   8.117
 1374TIP3    H125681   3.430   3.171   8.157
 1374TIP3    H225682   3.556   3.254   8.160
 1375TIP3   OH225683   3.663   3.084   7.348
 1375TIP3    H125684   3.744   3.047   7.311
 1375TIP3    H225685   3.677   3.180   7.330
 1376TIP3   OH225686   3.518   3.375   7.576
 1376TIP3    H125687   3.449   3.409   7.635
 1376TIP3    H225688   3.463   3.334   7.505
 1377TIP3   OH225689   3.467   2.661   6.904
 1377TIP3    H125690   3.451   2.566   6.907
 1377TIP3    H225691   3.437   2.686   6.994
 1378TIP3   OH225692   1.959   2.878   7.305
 1378TIP3    H125693   1.988   2.861   7.213
 1378TIP3    H225694   2.046   2.857   7.348
 1379TIP3   OH225695   3.554   2.859   7.877
 1379TIP3    H125696   3.615   2.783   7.888
 1379TIP3    H225697   3.614   2.936   7.875
 1380TIP3   OH225698   3.706   2.647   7.939
 1380TIP3    H125699   3.617   2.608   7.924
 1380TIP3    H225700   3.761   2.568   7.934
 1381TIP3   OH225701   3.436   2.418   6.753
 1381TIP3    H125702   3.463   2.324   6.765
 1381TIP3    H225703   3.513   2.459   6.714
 1382TIP3   OH225704   3.499   2.474   7.297
 1382TIP3    H125705   3.594   2.498   7.294
 1382TIP3    H225706   3.480   2.489   7.390
 1383TIP3   OH225707   3.506   2.546   7.575
 1383TIP3    H125708   3.418   2.575   7.607
 1383TIP3    H225709   3.549   2.633   7.553
 1384TIP3   OH225710   1.931   2.399   7.927
 1384TIP3    H125711   2.025   2.381   7.946
 1384TIP3    H225712   1.886   2.318   7.957
 1385TIP3   OH225713   3.734   1.952   8.109
 1385TIP3    H125714   3.768   1.885   8.048
 1385TIP3    H225715   3.743   2.034   8.057
 1386TIP3   OH225716   3.501   2.149   6.756
 1386TIP3    H125717   3.520   2.103   6.841
 1386TIP3    H225718   3.440   2.086   6.712
 1387TIP3   OH225719   2.051   2.230   7.213
 1387TIP3    H125720   2.097   2.147   7.239
 1387TIP3    H225721   2.106   2.299   7.252
 1388TIP3   OH225722   1.878   2.530   7.315
 1388TIP3    H125723   1.937   2.505   7.241
 1388TIP3    H225724   1.926   2.609   7.345
 1389TIP3   OH225725   3.685   2.164   7.945
 1389TIP3    H125726   3.591   2.189   7.941
 1389TIP3    H225727   3.689   2.108   7.865
 1390TIP3   OH225728   3.687   2.152   6.418
 1390TIP3    H125729   3.721   2.083   6.358
 1390TIP3    H225730   3.753   2.219   6.406
 1391TIP3   OH225731   1.916   2.158   6.722
 1391TIP3    H125732   1.821   2.174   6.711
 1391TIP3    H225733   1.957   2.205   6.649
 1392TIP3   OH225734   3.390   3.650   6.920
 1392TIP3    H125735   3.457   3.621   6.856
 1392TIP3    H225736   3.443   3.701   6.982
 1393TIP3   OH225737   1.910   2.020   7.553
 1393TIP3    H125738   1.843   2.002   7.622
 1393TIP3    H225739   1.865   2.089   7.499
 1394TIP3   OH225740   2.134   3.343   7.971
 1394TIP3    H125741   2.050   3.360   7.926
 1394TIP3    H225742   2.107   3.336   8.063
 1395TIP3   OH225743   2.424   3.441   7.598
 1395TIP3    H125744   2.390   3.527   7.570
 1395TIP3    H225745   2.517   3.450   7.568
 1396TIP3   OH225746   2.856   3.584   7.889
 1396TIP3    H125747   2.871   3.549   7.980
 1396TIP3    H225748   2.946   3.614   7.865
 1397TIP3   OH225749   3.086   3.712   7.816
 1397TIP3    H125750   3.158   3.651   7.796
 1397TIP3    H225751   3.122   3.754   7.897
 1398TIP3   OH225752   3.587   1.972   7.730
 1398TIP3    H125753   3.504   2.002   7.688
 1398TIP3    H225754   3.604   1.890   7.677
 1399TIP3   OH225755   2.167   3.765   7.598
 1399TIP3    H125756   2.094   3.815   7.558
 1399TIP3    H225757   2.135   3.746   7.687
 1400TIP3   OH225758   2.413   3.723   7.505
 1400TIP3    H125759   2.324   3.737   7.545
 1400TIP3    H225760   2.406   3.782   7.427
 1401TIP3   OH225761   2.892   3.719   7.416
 1401TIP3    H125762   2.823   3.761   7.362
 1401TIP3    H225763   2.893   3.771   7.501
 1402TIP3   OH225764   3.114   3.596   7.522
 1402TIP3    H125765   3.027   3.621   7.489
 1402TIP3    H225766   3.163   3.680   7.517
 1403TIP3   OH225767   3.368   3.753   7.545
 1403TIP3    H125768   3.369   3.850   7.524
 1403TIP3    H225769   3.395   3.715   7.459
 1404TIP3   OH225770   2.112   3.630   7.292
 1404TIP3    H125771   2.105   3.584   7.378
 1404TIP3    H225772   2.194   3.593   7.252
 1405TIP3   OH225773   2.320   3.501   7.157
 1405TIP3    H125774   2.303   3.408   7.179
 1405TIP3    H225775   2.406   3.516   7.203
 1406TIP3   OH225776   2.583   3.551   7.245
 1406TIP3    H125777   2.595   3.458   7.217
 1406TIP3    H225778   2.582   3.540   7.342
 1407TIP3   OH225779   2.926   2.115   7.159
 1407TIP3    H125780   2.858   2.051   7.184
 1407TIP3    H225781   2.981   2.062   7.099
 1408TIP3   OH225782   3.439   1.919   7.165
 1408TIP3    H125783   3.500   1.979   7.115
 1408TIP3    H225784   3.351   1.956   7.143
 1409TIP3   OH225785   3.607   2.044   6.995
 1409TIP3    H125786   3.674   1.985   6.952
 1409TIP3    H225787   3.654   2.128   7.008
 1410TIP3   OH225788   2.162   1.979   6.942
 1410TIP3    H125789   2.082   1.956   6.891
 1410TIP3    H225790   2.209   1.894   6.938
 1411TIP3   OH225791   2.031   1.953   6.511
 1411TIP3    H125792   2.090   2.016   6.464
 1411TIP3    H225793   1.983   2.009   6.573
 1412TIP3   OH225794   2.609   1.969   6.924
 1412TIP3    H125795   2.699   2.006   6.913
 1412TIP3    H225796   2.608   1.947   7.016
 1413TIP3   OH225797   3.181   1.972   7.084
 1413TIP3    H125798   3.176   1.983   6.988
 1413TIP3    H225799   3.143   1.882   7.098
 1414TIP3   OH225800   3.307   1.976   6.652
 1414TIP3    H125801   3.234   2.037   6.635
 1414TIP3    H225802   3.261   1.892   6.672
 1415TIP3   OH225803   2.032   3.553   6.616
 1415TIP3    H125804   1.966   3.547   6.545
 1415TIP3    H225805   2.031   3.647   6.635
 1416TIP3   OH225806   2.223   2.140   6.367
 1416TIP3    H125807   2.280   2.082   6.315
 1416TIP3    H225808   2.287   2.180   6.428
 1417TIP3   OH225809   2.915   3.673   6.448
 1417TIP3    H125810   3.007   3.704   6.434
 1417TIP3    H225811   2.899   3.628   6.365
 1418TIP3   OH225812   3.582   3.629   6.721
 1418TIP3    H125813   3.573   3.556   6.658
 1418TIP3    H225814   3.587   3.701   6.656
 1419TIP3   OH225815   2.151   2.031   7.889
 1419TIP3    H125816   2.113   1.951   7.931
 1419TIP3    H225817   2.243   2.028   7.924
 1420TIP3   OH225818   2.352   1.971   8.053
 1420TIP3    H125819   2.440   1.935   8.028
 1420TIP3    H225820   2.314   1.890   8.094
 1421TIP3   OH225821   3.192   1.899   8.067
 1421TIP3    H125822   3.202   1.851   8.152
 1421TIP3    H225823   3.284   1.896   8.032
 1422TIP3   OH225824   3.513   3.503   7.934
 1422TIP3    H125825   3.433   3.489   7.878
 1422TIP3    H225826   3.502   3.599   7.952
 1423TIP3   OH225827   4.957   2.892   6.930
 1423TIP3    H125828   4.959   2.990   6.925
 1423TIP3    H225829   4.884   2.870   6.872
 1424TIP3   OH225830   4.842   2.817   7.278
 1424TIP3    H125831   4.842   2.752   7.350
 1424TIP3    H225832   4.808   2.767   7.202
 1425TIP3   OH225833   4.079   2.783   7.435
 1425TIP3    H125834   4.087   2.717   7.505
 1425TIP3    H225835   4.153   2.843   7.455
 1426TIP3   OH225836   5.212   3.111   7.108
 1426TIP3    H125837   5.170   3.040   7.157
 1426TIP3    H225838   5.214   3.183   7.173
 1427TIP3   OH225839   4.171   3.228   7.286
 1427TIP3    H125840   4.140   3.142   7.252
 1427TIP3    H225841   4.267   3.210   7.290
 1428TIP3   OH225842   3.839   2.585   6.820
 1428TIP3    H125843   3.795   2.671   6.838
 1428TIP3    H225844   3.770   2.533   6.780
 1429TIP3   OH225845   3.905   2.804   7.040
 1429TIP3    H125846   3.934   2.728   7.094
 1429TIP3    H225847   3.980   2.821   6.983
 1430TIP3   OH225848   4.924   3.627   7.131
 1430TIP3    H125849   4.989   3.558   7.102
 1430TIP3    H225850   4.903   3.595   7.218
 1431TIP3   OH225851   4.681   3.057   7.325
 1431TIP3    H125852   4.714   2.994   7.259
 1431TIP3    H225853   4.761   3.072   7.378
 1432TIP3   OH225854   5.541   2.223   7.399
 1432TIP3    H125855   5.558   2.282   7.475
 1432TIP3    H225856   5.597   2.265   7.333
 1433TIP3   OH225857   4.997   2.504   7.357
 1433TIP3    H125858   5.014   2.408   7.357
 1433TIP3    H225859   4.987   2.518   7.261
 1434TIP3   OH225860   4.306   2.313   7.079
 1434TIP3    H125861   4.322   2.397   7.031
 1434TIP3    H225862   4.271   2.254   7.010
 1435TIP3   OH225863   5.083   2.323   6.917
 1435TIP3    H125864   5.149   2.290   6.982
 1435TIP3    H225865   5.140   2.377   6.859
 1436TIP3   OH225866   3.970   2.552   7.153
 1436TIP3    H125867   4.039   2.500   7.200
 1436TIP3    H225868   3.984   2.524   7.063
 1437TIP3   OH225869   4.488   2.709   7.082
 1437TIP3    H125870   4.554   2.651   7.124
 1437TIP3    H225871   4.435   2.643   7.034
 1438TIP3   OH225872   5.585   2.364   7.626
 1438TIP3    H125873   5.524   2.440   7.616
 1438TIP3    H225874   5.588   2.354   7.722
 1439TIP3   OH225875   4.201   2.206   7.485
 1439TIP3    H125876   4.171   2.258   7.408
 1439TIP3    H225877   4.129   2.224   7.550
 1440TIP3   OH225878   4.927   3.151   6.839
 1440TIP3    H125879   4.902   3.128   6.748
 1440TIP3    H225880   4.898   3.245   6.846
 1441TIP3   OH225881   4.451   2.966   7.508
 1441TIP3    H125882   4.380   3.031   7.529
 1441TIP3    H225883   4.521   3.026   7.479
 1442TIP3   OH225884   5.263   2.255   7.115
 1442TIP3    H125885   5.242   2.178   7.169
 1442TIP3    H225886   5.330   2.299   7.170
 1443TIP3   OH225887   4.155   2.389   7.286
 1443TIP3    H125888   4.219   2.457   7.317
 1443TIP3    H225889   4.209   2.347   7.215
 1444TIP3   OH225890   4.296   3.167   7.590
 1444TIP3    H125891   4.291   3.258   7.555
 1444TIP3    H225892   4.207   3.159   7.634
 1445TIP3   OH225893   3.897   3.132   6.669
 1445TIP3    H125894   3.879   3.164   6.580
 1445TIP3    H225895   3.911   3.215   6.717
 1446TIP3   OH225896   5.265   3.295   7.344
 1446TIP3    H125897   5.168   3.306   7.356
 1446TIP3    H225898   5.292   3.387   7.324
 1447TIP3   OH225899   5.297   2.124   7.483
 1447TIP3    H125900   5.224   2.187   7.475
 1447TIP3    H225901   5.368   2.166   7.431
 1448TIP3   OH225902   4.594   1.936   7.229
 1448TIP3    H125903   4.580   1.839   7.223
 1448TIP3    H225904   4.506   1.966   7.260
 1449TIP3   OH225905   5.090   3.473   7.003
 1449TIP3    H125906   5.134   3.401   6.953
 1449TIP3    H225907   5.133   3.553   6.966
 1450TIP3   OH225908   5.211   3.270   6.856
 1450TIP3    H125909   5.188   3.199   6.794
 1450TIP3    H225910   5.215   3.217   6.938
 1451TIP3   OH225911   5.374   3.126   7.704
 1451TIP3    H125912   5.388   3.061   7.632
 1451TIP3    H225913   5.394   3.210   7.661
 1452TIP3   OH225914   5.562   2.757   7.509
 1452TIP3    H125915   5.496   2.829   7.513
 1452TIP3    H225916   5.611   2.780   7.428
 1453TIP3   OH225917   5.163   2.833   6.771
 1453TIP3    H125918   5.096   2.862   6.835
 1453TIP3    H225919   5.217   2.770   6.823
 1454TIP3   OH225920   5.160   2.653   7.684
 1454TIP3    H125921   5.161   2.735   7.737
 1454TIP3    H225922   5.097   2.682   7.615
 1455TIP3   OH225923   4.328   2.901   6.964
 1455TIP3    H125924   4.295   2.862   6.880
 1455TIP3    H225925   4.390   2.833   6.998
 1456TIP3   OH225926   4.461   3.241   7.233
 1456TIP3    H125927   4.460   3.188   7.152
 1456TIP3    H225928   4.540   3.205   7.278
 1457TIP3   OH225929   4.363   2.775   7.332
 1457TIP3    H125930   4.417   2.787   7.252
 1457TIP3    H225931   4.401   2.844   7.391
 1458TIP3   OH225932   5.003   3.333   7.401
 1458TIP3    H125933   4.975   3.397   7.467
 1458TIP3    H225934   4.978   3.248   7.443
 1459TIP3   OH225935   4.457   3.219   7.803
 1459TIP3    H125936   4.416   3.297   7.846
 1459TIP3    H225937   4.391   3.200   7.731
 1460TIP3   OH225938   4.150   2.830   7.720
 1460TIP3    H125939   4.156   2.903   7.786
 1460TIP3    H225940   4.058   2.846   7.693
 1461TIP3   OH225941   4.828   3.428   6.885
 1461TIP3    H125942   4.870   3.458   6.967
 1461TIP3    H225943   4.770   3.503   6.865
 1462TIP3   OH225944   4.282   3.424   7.875
 1462TIP3    H125945   4.276   3.413   7.778
 1462TIP3    H225946   4.188   3.410   7.901
 1463TIP3   OH225947   4.229   2.807   6.725
 1463TIP3    H125948   4.202   2.884   6.673
 1463TIP3    H225949   4.163   2.741   6.705
 1464TIP3   OH225950   3.835   3.047   7.615
 1464TIP3    H125951   3.790   3.039   7.529
 1464TIP3    H225952   3.842   2.952   7.637
 1465TIP3   OH225953   3.811   3.321   7.293
 1465TIP3    H125954   3.907   3.309   7.291
 1465TIP3    H225955   3.803   3.402   7.344
 1466TIP3   OH225956   5.634   3.391   7.859
 1466TIP3    H125957   5.623   3.295   7.860
 1466TIP3    H225958   5.549   3.416   7.902
 1467TIP3   OH225959   4.732   3.343   7.752
 1467TIP3    H125960   4.737   3.430   7.799
 1467TIP3    H225961   4.642   3.312   7.771
 1468TIP3   OH225962   4.778   3.722   6.731
 1468TIP3    H125963   4.765   3.709   6.635
 1468TIP3    H225964   4.775   3.818   6.743
 1469TIP3   OH225965   4.137   3.608   6.912
 1469TIP3    H125966   4.153   3.566   6.998
 1469TIP3    H225967   4.053   3.567   6.886
 1470TIP3   OH225968   5.046   3.638   6.708
 1470TIP3    H125969   4.950   3.640   6.722
 1470TIP3    H225970   5.074   3.560   6.760
 1471TIP3   OH225971   5.349   2.538   7.908
 1471TIP3    H125972   5.302   2.583   7.836
 1471TIP3    H225973   5.348   2.446   7.878
 1472TIP3   OH225974   4.064   3.178   7.710
 1472TIP3    H125975   4.086   3.142   7.798
 1472TIP3    H225976   3.977   3.139   7.688
 1473TIP3   OH225977   4.331   2.026   7.306
 1473TIP3    H125978   4.241   2.013   7.269
 1473TIP3    H225979   4.319   2.109   7.353
 1474TIP3   OH225980   4.795   1.993   7.641
 1474TIP3    H125981   4.835   1.951   7.720
 1474TIP3    H225982   4.698   1.980   7.656
 1475TIP3   OH225983   5.125   2.377   7.730
 1475TIP3    H125984   5.069   2.356   7.809
 1475TIP3    H225985   5.107   2.470   7.707
 1476TIP3   OH225986   4.342   2.524   7.432
 1476TIP3    H125987   4.265   2.522   7.490
 1476TIP3    H225988   4.338   2.614   7.392
 1477TIP3   OH225989   4.336   2.534   6.918
 1477TIP3    H125990   4.243   2.510   6.903
 1477TIP3    H225991   4.378   2.507   6.834
 1478TIP3   OH225992   4.885   2.586   6.789
 1478TIP3    H125993   4.849   2.669   6.761
 1478TIP3    H225994   4.961   2.569   6.730
 1479TIP3   OH225995   4.795   2.606   7.937
 1479TIP3    H125996   4.744   2.528   7.969
 1479TIP3    H225997   4.879   2.594   7.985
 1480TIP3   OH225998   4.993   2.534   7.077
 1480TIP3    H125999   4.966   2.590   7.002
 1480TIP3    H226000   5.004   2.448   7.032
 1481TIP3   OH226001   4.113   2.542   7.605
 1481TIP3    H126002   4.096   2.601   7.680
 1481TIP3    H226003   4.053   2.467   7.614
 1482TIP3   OH226004   3.775   2.268   6.993
 1482TIP3    H126005   3.833   2.255   7.072
 1482TIP3    H226006   3.800   2.204   6.926
 1483TIP3   OH226007   4.912   2.693   7.534
 1483TIP3    H126008   4.951   2.625   7.475
 1483TIP3    H226009   4.867   2.640   7.601
 1484TIP3   OH226010   4.593   2.290   7.018
 1484TIP3    H126011   4.501   2.291   7.048
 1484TIP3    H226012   4.642   2.274   7.100
 1485TIP3   OH226013   4.069   2.441   6.907
 1485TIP3    H126014   3.988   2.472   6.860
 1485TIP3    H226015   4.116   2.371   6.859
 1486TIP3   OH226016   4.436   2.449   6.668
 1486TIP3    H126017   4.532   2.460   6.687
 1486TIP3    H226018   4.416   2.517   6.601
 1487TIP3   OH226019   5.034   2.214   7.341
 1487TIP3    H126020   4.965   2.219   7.411
 1487TIP3    H226021   4.983   2.189   7.262
 1488TIP3   OH226022   4.311   2.569   6.426
 1488TIP3    H126023   4.252   2.531   6.358
 1488TIP3    H226024   4.388   2.588   6.373
 1489TIP3   OH226025   5.353   3.778   7.976
 1489TIP3    H126026   5.381   3.815   7.890
 1489TIP3    H226027   5.424   3.810   8.033
 1490TIP3   OH226028   4.123   3.021   7.932
 1490TIP3    H126029   4.191   3.051   7.993
 1490TIP3    H226030   4.043   3.035   7.988
 1491TIP3   OH226031   4.722   2.566   7.205
 1491TIP3    H126032   4.782   2.511   7.153
 1491TIP3    H226033   4.707   2.513   7.284
 1492TIP3   OH226034   4.214   2.183   6.842
 1492TIP3    H126035   4.197   2.087   6.853
 1492TIP3    H226036   4.301   2.175   6.796
 1493TIP3   OH226037   4.585   2.398   7.449
 1493TIP3    H126038   4.503   2.452   7.456
 1493TIP3    H226039   4.642   2.434   7.519
 1494TIP3   OH226040   5.362   2.941   7.498
 1494TIP3    H126041   5.419   2.989   7.435
 1494TIP3    H226042   5.276   2.946   7.451
 1495TIP3   OH226043   5.028   2.308   6.425
 1495TIP3    H126044   4.933   2.320   6.429
 1495TIP3    H226045   5.065   2.387   6.471
 1496TIP3   OH226046   4.794   3.047   7.742
 1496TIP3    H126047   4.758   3.005   7.820
 1496TIP3    H226048   4.769   3.140   7.750
 1497TIP3   OH226049   5.099   2.499   6.603
 1497TIP3    H126050   5.190   2.479   6.637
 1497TIP3    H226051   5.119   2.576   6.549
 1498TIP3   OH226052   4.155   2.960   7.196
 1498TIP3    H126053   4.224   2.953   7.127
 1498TIP3    H226054   4.161   2.874   7.242
 1499TIP3   OH226055   4.859   3.167   6.534
 1499TIP3    H126056   4.822   3.255   6.551
 1499TIP3    H226057   4.779   3.116   6.530
 1500TIP3   OH226058   3.855   2.799   7.723
 1500TIP3    H126059   3.869   2.757   7.810
 1500TIP3    H226060   3.790   2.741   7.680
 1501TIP3   OH226061   4.556   2.756   7.943
 1501TIP3    H126062   4.527   2.730   7.855
 1501TIP3    H226063   4.649   2.726   7.942
 1502TIP3   OH226064   5.024   3.290   7.736
 1502TIP3    H126065   4.931   3.308   7.713
 1502TIP3    H226066   5.020   3.319   7.829
 1503TIP3   OH226067   5.591   2.509   6.578
 1503TIP3    H126068   5.536   2.475   6.506
 1503TIP3    H226069   5.596   2.601   6.549
 1504TIP3   OH226070   5.590   3.094   7.856
 1504TIP3    H126071   5.501   3.117   7.820
 1504TIP3    H226072   5.644   3.090   7.775
 1505TIP3   OH226073   5.141   2.873   7.326
 1505TIP3    H126074   5.046   2.852   7.315
 1505TIP3    H226075   5.183   2.797   7.283
 1506TIP3   OH226076   4.393   3.306   6.937
 1506TIP3    H126077   4.442   3.386   6.911
 1506TIP3    H226078   4.306   3.328   6.902
 1507TIP3   OH226079   4.538   3.073   6.896
 1507TIP3    H126080   4.504   3.165   6.896
 1507TIP3    H226081   4.461   3.024   6.932
 1508TIP3   OH226082   4.580   3.490   7.528
 1508TIP3    H126083   4.625   3.572   7.500
 1508TIP3    H226084   4.641   3.457   7.596
 1509TIP3   OH226085   4.401   3.570   6.852
 1509TIP3    H126086   4.305   3.587   6.854
 1509TIP3    H226087   4.438   3.656   6.877
 1510TIP3   OH226088   4.932   3.091   7.491
 1510TIP3    H126089   4.899   3.072   7.581
 1510TIP3    H226090   4.996   3.020   7.474
 1511TIP3   OH226091   5.213   3.549   7.740
 1511TIP3    H126092   5.144   3.499   7.691
 1511TIP3    H226093   5.232   3.619   7.674
 1512TIP3   OH226094   4.021   2.279   7.685
 1512TIP3    H126095   3.928   2.308   7.675
 1512TIP3    H226096   4.008   2.189   7.723
 1513TIP3   OH226097   5.242   3.063   6.630
 1513TIP3    H126098   5.222   2.979   6.676
 1513TIP3    H226099   5.339   3.067   6.639
 1514TIP3   OH226100   3.981   3.453   7.522
 1514TIP3    H126101   4.010   3.361   7.522
 1514TIP3    H226102   4.007   3.482   7.610
 1515TIP3   OH226103   4.893   2.252   7.574
 1515TIP3    H126104   4.964   2.257   7.638
 1515TIP3    H226105   4.854   2.164   7.594
 1516TIP3   OH226106   4.965   2.212   6.684
 1516TIP3    H126107   4.992   2.255   6.602
 1516TIP3    H226108   5.026   2.253   6.748
 1517TIP3   OH226109   4.687   2.391   6.764
 1517TIP3    H126110   4.770   2.441   6.771
 1517TIP3    H226111   4.662   2.371   6.856
 1518TIP3   OH226112   4.743   2.485   7.686
 1518TIP3    H126113   4.756   2.543   7.763
 1518TIP3    H226114   4.811   2.417   7.693
 1519TIP3   OH226115   4.777   2.092   6.859
 1519TIP3    H126116   4.742   2.157   6.922
 1519TIP3    H226117   4.844   2.146   6.810
 1520TIP3   OH226118   4.338   2.199   6.534
 1520TIP3    H126119   4.338   2.292   6.560
 1520TIP3    H226120   4.432   2.177   6.547
 1521TIP3   OH226121   5.363   2.274   7.768
 1521TIP3    H126122   5.270   2.305   7.756
 1521TIP3    H226123   5.393   2.272   7.676
 1522TIP3   OH226124   5.224   2.652   7.172
 1522TIP3    H126125   5.143   2.608   7.142
 1522TIP3    H226126   5.272   2.583   7.222
 1523TIP3   OH226127   5.331   3.578   7.337
 1523TIP3    H126128   5.321   3.646   7.268
 1523TIP3    H226129   5.427   3.583   7.354
 1524TIP3   OH226130   4.079   1.991   7.215
 1524TIP3    H126131   4.059   1.990   7.120
 1524TIP3    H226132   4.039   1.905   7.244
 1525TIP3   OH226133   3.974   3.383   6.826
 1525TIP3    H126134   3.890   3.431   6.829
 1525TIP3    H226135   4.027   3.431   6.761
 1526TIP3   OH226136   3.897   3.647   7.961
 1526TIP3    H126137   3.956   3.627   8.036
 1526TIP3    H226138   3.855   3.561   7.943
 1527TIP3   OH226139   4.364   3.535   8.122
 1527TIP3    H126140   4.442   3.491   8.154
 1527TIP3    H226141   4.361   3.513   8.027
 1528TIP3   OH226142   5.012   3.379   7.997
 1528TIP3    H126143   4.985   3.288   8.020
 1528TIP3    H226144   5.093   3.390   8.051
 1529TIP3   OH226145   3.887   3.024   8.059
 1529TIP3    H126146   3.904   2.934   8.027
 1529TIP3    H226147   3.814   3.051   8.001
 1530TIP3   OH226148   4.561   3.023   7.999
 1530TIP3    H126149   4.526   3.054   7.913
 1530TIP3    H226150   4.568   2.926   7.985
 1531TIP3   OH226151   5.129   3.009   7.738
 1531TIP3    H126152   5.207   3.068   7.731
 1531TIP3    H226153   5.058   3.076   7.742
 1532TIP3   OH226154   3.982   2.747   7.998
 1532TIP3    H126155   4.017   2.658   7.992
 1532TIP3    H226156   3.955   2.751   8.092
 1533TIP3   OH226157   4.365   2.644   7.732
 1533TIP3    H126158   4.315   2.723   7.758
 1533TIP3    H226159   4.411   2.680   7.653
 1534TIP3   OH226160   4.876   2.902   8.079
 1534TIP3    H126161   4.970   2.896   8.053
 1534TIP3    H226162   4.860   2.818   8.126
 1535TIP3   OH226163   4.405   2.381   7.834
 1535TIP3    H126164   4.427   2.305   7.775
 1535TIP3    H226165   4.425   2.459   7.780
 1536TIP3   OH226166   4.448   2.222   7.596
 1536TIP3    H126167   4.502   2.263   7.524
 1536TIP3    H226168   4.361   2.208   7.551
 1537TIP3   OH226169   4.602   2.765   7.617
 1537TIP3    H126170   4.680   2.750   7.561
 1537TIP3    H226171   4.569   2.850   7.585
 1538TIP3   OH226172   5.044   2.541   8.115
 1538TIP3    H126173   5.066   2.447   8.107
 1538TIP3    H226174   5.131   2.584   8.116
 1539TIP3   OH226175   5.178   2.822   7.933
 1539TIP3    H126176   5.152   2.893   7.870
 1539TIP3    H226177   5.273   2.817   7.911
 1540TIP3   OH226178   4.252   2.507   8.029
 1540TIP3    H126179   4.178   2.443   8.024
 1540TIP3    H226180   4.326   2.464   7.981
 1541TIP3   OH226181   4.528   1.961   7.635
 1541TIP3    H126182   4.513   2.057   7.624
 1541TIP3    H226183   4.453   1.925   7.584
 1542TIP3   OH226184   4.654   2.397   7.997
 1542TIP3    H126185   4.626   2.372   8.087
 1542TIP3    H226186   4.577   2.373   7.942
 1543TIP3   OH226187   4.928   2.308   7.903
 1543TIP3    H126188   4.832   2.314   7.916
 1543TIP3    H226189   4.955   2.245   7.972
 1544TIP3   OH226190   5.084   2.171   8.096
 1544TIP3    H126191   5.081   2.074   8.099
 1544TIP3    H226192   5.059   2.200   8.187
 1545TIP3   OH226193   4.070   2.300   8.004
 1545TIP3    H126194   4.087   2.221   7.949
 1545TIP3    H226195   4.056   2.256   8.092
 1546TIP3   OH226196   4.550   1.899   7.904
 1546TIP3    H126197   4.618   1.829   7.901
 1546TIP3    H226198   4.539   1.916   7.808
 1547TIP3   OH226199   4.586   2.060   8.113
 1547TIP3    H126200   4.569   2.011   8.029
 1547TIP3    H226201   4.528   2.138   8.104
 1548TIP3   OH226202   3.764   3.752   6.878
 1548TIP3    H126203   3.697   3.702   6.827
 1548TIP3    H226204   3.795   3.684   6.941
 1549TIP3   OH226205   3.849   3.562   7.062
 1549TIP3    H126206   3.814   3.474   7.083
 1549TIP3    H226207   3.871   3.596   7.151
 1550TIP3   OH226208   5.603   3.642   7.356
 1550TIP3    H126209   5.604   3.658   7.452
 1550TIP3    H226210   5.673   3.700   7.326
 1551TIP3   OH226211   5.560   3.602   7.651
 1551TIP3    H126212   5.513   3.525   7.613
 1551TIP3    H226213   5.610   3.557   7.722
 1552TIP3   OH226214   5.405   3.173   8.117
 1552TIP3    H126215   5.316   3.171   8.156
 1552TIP3    H226216   5.442   3.254   8.160
 1553TIP3   OH226217   5.535   3.007   6.665
 1553TIP3    H126218   5.623   3.045   6.678
 1553TIP3    H226219   5.538   2.932   6.727
 1554TIP3   OH226220   5.573   2.811   6.847
 1554TIP3    H126221   5.498   2.764   6.888
 1554TIP3    H226222   5.632   2.828   6.923
 1555TIP3   OH226223   5.548   3.084   7.348
 1555TIP3    H126224   5.630   3.047   7.311
 1555TIP3    H226225   5.562   3.180   7.332
 1556TIP3   OH226226   5.404   3.375   7.575
 1556TIP3    H126227   5.334   3.409   7.635
 1556TIP3    H226228   5.349   3.334   7.505
 1557TIP3   OH226229   5.352   2.662   6.905
 1557TIP3    H126230   5.339   2.566   6.903
 1557TIP3    H226231   5.320   2.685   6.994
 1558TIP3   OH226232   3.854   2.870   7.312
 1558TIP3    H126233   3.872   2.863   7.216
 1558TIP3    H226234   3.944   2.853   7.348
 1559TIP3   OH226235   5.439   2.859   7.877
 1559TIP3    H126236   5.501   2.783   7.888
 1559TIP3    H226237   5.500   2.936   7.875
 1560TIP3   OH226238   5.590   2.647   7.942
 1560TIP3    H126239   5.502   2.607   7.924
 1560TIP3    H226240   5.648   2.570   7.933
 1561TIP3   OH226241   5.322   2.419   6.755
 1561TIP3    H126242   5.352   2.326   6.764
 1561TIP3    H226243   5.399   2.460   6.712
 1562TIP3   OH226244   5.385   2.475   7.297
 1562TIP3    H126245   5.481   2.498   7.295
 1562TIP3    H226246   5.366   2.489   7.391
 1563TIP3   OH226247   5.391   2.547   7.575
 1563TIP3    H126248   5.303   2.576   7.608
 1563TIP3    H226249   5.435   2.633   7.553
 1564TIP3   OH226250   3.818   2.399   7.925
 1564TIP3    H126251   3.910   2.378   7.949
 1564TIP3    H226252   3.769   2.319   7.957
 1565TIP3   OH226253   5.620   1.952   8.108
 1565TIP3    H126254   5.654   1.885   8.047
 1565TIP3    H226255   5.630   2.034   8.056
 1566TIP3   OH226256   5.388   2.148   6.757
 1566TIP3    H126257   5.406   2.103   6.842
 1566TIP3    H226258   5.324   2.088   6.712
 1567TIP3   OH226259   3.939   2.229   7.206
 1567TIP3    H126260   3.981   2.147   7.240
 1567TIP3    H226261   3.989   2.298   7.254
 1568TIP3   OH226262   3.765   2.528   7.316
 1568TIP3    H126263   3.822   2.506   7.240
 1568TIP3    H226264   3.810   2.610   7.343
 1569TIP3   OH226265   5.571   2.163   7.945
 1569TIP3    H126266   5.477   2.189   7.941
 1569TIP3    H226267   5.574   2.108   7.865
 1570TIP3   OH226268   3.801   2.165   6.721
 1570TIP3    H126269   3.703   2.167   6.707
 1570TIP3    H226270   3.834   2.196   6.637
 1571TIP3   OH226271   5.275   3.651   6.920
 1571TIP3    H126272   5.343   3.620   6.857
 1571TIP3    H226273   5.327   3.701   6.984
 1572TIP3   OH226274   3.797   2.022   7.554
 1572TIP3    H126275   3.729   2.002   7.622
 1572TIP3    H226276   3.750   2.089   7.500
 1573TIP3   OH226277   4.020   3.342   7.971
 1573TIP3    H126278   3.936   3.363   7.928
 1573TIP3    H226279   3.993   3.336   8.063
 1574TIP3   OH226280   4.310   3.441   7.598
 1574TIP3    H126281   4.276   3.527   7.570
 1574TIP3    H226282   4.402   3.450   7.567
 1575TIP3   OH226283   4.742   3.585   7.888
 1575TIP3    H126284   4.757   3.550   7.979
 1575TIP3    H226285   4.832   3.614   7.864
 1576TIP3   OH226286   4.971   3.711   7.819
 1576TIP3    H126287   5.044   3.652   7.795
 1576TIP3    H226288   5.009   3.754   7.899
 1577TIP3   OH226289   5.472   1.972   7.730
 1577TIP3    H126290   5.390   2.002   7.688
 1577TIP3    H226291   5.490   1.890   7.677
 1578TIP3   OH226292   4.053   3.765   7.598
 1578TIP3    H126293   3.979   3.815   7.558
 1578TIP3    H226294   4.021   3.746   7.687
 1579TIP3   OH226295   4.300   3.723   7.505
 1579TIP3    H126296   4.210   3.737   7.544
 1579TIP3    H226297   4.294   3.782   7.427
 1580TIP3   OH226298   4.770   3.714   7.422
 1580TIP3    H126299   4.724   3.770   7.357
 1580TIP3    H226300   4.784   3.778   7.496
 1581TIP3   OH226301   4.999   3.596   7.523
 1581TIP3    H126302   4.913   3.623   7.488
 1581TIP3    H226303   5.047   3.680   7.514
 1582TIP3   OH226304   5.258   3.753   7.547
 1582TIP3    H126305   5.251   3.849   7.524
 1582TIP3    H226306   5.279   3.716   7.459
 1583TIP3   OH226307   3.997   3.630   7.292
 1583TIP3    H126308   3.990   3.584   7.378
 1583TIP3    H226309   4.079   3.593   7.253
 1584TIP3   OH226310   4.205   3.502   7.159
 1584TIP3    H126311   4.189   3.408   7.180
 1584TIP3    H226312   4.292   3.516   7.202
 1585TIP3   OH226313   4.466   3.550   7.246
 1585TIP3    H126314   4.482   3.458   7.217
 1585TIP3    H226315   4.469   3.542   7.342
 1586TIP3   OH226316   4.812   2.116   7.156
 1586TIP3    H126317   4.745   2.052   7.186
 1586TIP3    H226318   4.867   2.062   7.100
 1587TIP3   OH226319   5.325   1.920   7.166
 1587TIP3    H126320   5.387   1.979   7.115
 1587TIP3    H226321   5.237   1.956   7.141
 1588TIP3   OH226322   5.492   2.043   6.993
 1588TIP3    H126323   5.562   1.987   6.953
 1588TIP3    H226324   5.541   2.128   7.008
 1589TIP3   OH226325   4.048   1.982   6.937
 1589TIP3    H126326   3.966   1.952   6.893
 1589TIP3    H226327   4.095   1.896   6.942
 1590TIP3   OH226328   4.495   1.969   6.923
 1590TIP3    H126329   4.586   2.005   6.914
 1590TIP3    H226330   4.493   1.948   7.016
 1591TIP3   OH226331   5.066   1.972   7.085
 1591TIP3    H126332   5.062   1.982   6.989
 1591TIP3    H226333   5.029   1.881   7.097
 1592TIP3   OH226334   5.195   1.974   6.653
 1592TIP3    H126335   5.122   2.035   6.634
 1592TIP3    H226336   5.149   1.889   6.671
 1593TIP3   OH226337   4.112   2.143   6.377
 1593TIP3    H126338   4.156   2.093   6.307
 1593TIP3    H226339   4.185   2.183   6.425
 1594TIP3   OH226340   4.608   2.174   6.608
 1594TIP3    H126341   4.636   2.114   6.678
 1594TIP3    H226342   4.617   2.259   6.654
 1595TIP3   OH226343   4.807   3.676   6.451
 1595TIP3    H126344   4.892   3.711   6.428
 1595TIP3    H226345   4.773   3.628   6.371
 1596TIP3   OH226346   5.469   3.629   6.720
 1596TIP3    H126347   5.457   3.552   6.661
 1596TIP3    H226348   5.472   3.703   6.658
 1597TIP3   OH226349   4.038   2.032   7.889
 1597TIP3    H126350   3.999   1.953   7.930
 1597TIP3    H226351   4.129   2.026   7.926
 1598TIP3   OH226352   4.237   1.972   8.052
 1598TIP3    H126353   4.325   1.936   8.028
 1598TIP3    H226354   4.200   1.891   8.093
 1599TIP3   OH226355   5.078   1.899   8.067
 1599TIP3    H126356   5.088   1.851   8.152
 1599TIP3    H226357   5.170   1.896   8.033
 1600TIP3   OH226358   5.398   3.503   7.934
 1600TIP3    H126359   5.319   3.489   7.877
 1600TIP3    H226360   5.388   3.599   7.952
 1601TIP3   OH226361   6.842   2.890   6.932
 1601TIP3    H126362   6.844   2.988   6.925
 1601TIP3    H226363   6.772   2.868   6.870
 1602TIP3   OH226364   6.729   2.817   7.279
 1602TIP3    H126365   6.727   2.752   7.350
 1602TIP3    H226366   6.697   2.766   7.203
 1603TIP3   OH226367   5.964   2.784   7.434
 1603TIP3    H126368   5.972   2.716   7.504
 1603TIP3    H226369   6.039   2.841   7.456
 1604TIP3   OH226370   7.100   3.110   7.108
 1604TIP3    H126371   7.057   3.039   7.157
 1604TIP3    H226372   7.100   3.182   7.173
 1605TIP3   OH226373   6.057   3.229   7.285
 1605TIP3    H126374   6.025   3.142   7.252
 1605TIP3    H226375   6.152   3.210   7.290
 1606TIP3   OH226376   5.721   2.585   6.836
 1606TIP3    H126377   5.679   2.673   6.829
 1606TIP3    H226378   5.665   2.533   6.775
 1607TIP3   OH226379   5.791   2.807   7.046
 1607TIP3    H126380   5.818   2.726   7.092
 1607TIP3    H226381   5.863   2.818   6.982
 1608TIP3   OH226382   6.811   3.628   7.131
 1608TIP3    H126383   6.874   3.557   7.103
 1608TIP3    H226384   6.787   3.595   7.218
 1609TIP3   OH226385   6.567   3.057   7.325
 1609TIP3    H126386   6.600   2.994   7.260
 1609TIP3    H226387   6.647   3.073   7.378
 1610TIP3   OH226388   6.884   2.504   7.356
 1610TIP3    H126389   6.900   2.408   7.355
 1610TIP3    H226390   6.874   2.519   7.260
 1611TIP3   OH226391   6.195   2.312   7.078
 1611TIP3    H126392   6.204   2.397   7.032
 1611TIP3    H226393   6.154   2.255   7.011
 1612TIP3   OH226394   6.972   2.323   6.916
 1612TIP3    H126395   7.035   2.290   6.984
 1612TIP3    H226396   7.029   2.378   6.862
 1613TIP3   OH226397   5.857   2.554   7.153
 1613TIP3    H126398   5.924   2.499   7.198
 1613TIP3    H226399   5.867   2.523   7.062
 1614TIP3   OH226400   6.373   2.708   7.083
 1614TIP3    H126401   6.440   2.651   7.125
 1614TIP3    H226402   6.321   2.642   7.034
 1615TIP3   OH226403   6.085   2.202   7.483
 1615TIP3    H126404   6.057   2.259   7.409
 1615TIP3    H226405   6.017   2.226   7.551
 1616TIP3   OH226406   6.814   3.149   6.841
 1616TIP3    H126407   6.787   3.124   6.752
 1616TIP3    H226408   6.783   3.242   6.846
 1617TIP3   OH226409   6.337   2.967   7.508
 1617TIP3    H126410   6.266   3.031   7.528
 1617TIP3    H226411   6.407   3.027   7.479
 1618TIP3   OH226412   7.119   2.253   7.128
 1618TIP3    H126413   7.123   2.170   7.176
 1618TIP3    H226414   7.197   2.299   7.166
 1619TIP3   OH226415   6.042   2.388   7.285
 1619TIP3    H126416   6.105   2.457   7.317
 1619TIP3    H226417   6.094   2.347   7.212
 1620TIP3   OH226418   6.181   3.167   7.590
 1620TIP3    H126419   6.177   3.258   7.555
 1620TIP3    H226420   6.093   3.159   7.634
 1621TIP3   OH226421   5.789   3.129   6.665
 1621TIP3    H126422   5.761   3.164   6.578
 1621TIP3    H226423   5.795   3.212   6.716
 1622TIP3   OH226424   7.131   3.289   7.353
 1622TIP3    H126425   7.035   3.309   7.358
 1622TIP3    H226426   7.170   3.373   7.324
 1623TIP3   OH226427   7.162   2.136   7.459
 1623TIP3    H126428   7.094   2.204   7.471
 1623TIP3    H226429   7.239   2.184   7.427
 1624TIP3   OH226430   6.480   1.935   7.230
 1624TIP3    H126431   6.466   1.839   7.223
 1624TIP3    H226432   6.392   1.967   7.259
 1625TIP3   OH226433   6.968   3.468   7.005
 1625TIP3    H126434   7.019   3.400   6.956
 1625TIP3    H226435   7.012   3.548   6.969
 1626TIP3   OH226436   7.095   3.266   6.858
 1626TIP3    H126437   7.071   3.195   6.795
 1626TIP3    H226438   7.102   3.214   6.940
 1627TIP3   OH226439   7.234   3.139   7.716
 1627TIP3    H126440   7.261   3.070   7.652
 1627TIP3    H226441   7.275   3.215   7.670
 1628TIP3   OH226442   6.707   2.818   6.683
 1628TIP3    H126443   6.640   2.876   6.642
 1628TIP3    H226444   6.779   2.824   6.616
 1629TIP3   OH226445   7.051   2.839   6.772
 1629TIP3    H126446   6.978   2.861   6.834
 1629TIP3    H226447   7.098   2.772   6.826
 1630TIP3   OH226448   7.048   2.654   7.682
 1630TIP3    H126449   7.044   2.734   7.737
 1630TIP3    H226450   6.983   2.681   7.614
 1631TIP3   OH226451   6.215   2.902   6.964
 1631TIP3    H126452   6.183   2.864   6.878
 1631TIP3    H226453   6.276   2.833   6.998
 1632TIP3   OH226454   6.347   3.241   7.233
 1632TIP3    H126455   6.345   3.188   7.152
 1632TIP3    H226456   6.425   3.205   7.278
 1633TIP3   OH226457   6.248   2.777   7.330
 1633TIP3    H126458   6.303   2.787   7.250
 1633TIP3    H226459   6.286   2.843   7.392
 1634TIP3   OH226460   6.882   3.335   7.399
 1634TIP3    H126461   6.861   3.398   7.468
 1634TIP3    H226462   6.863   3.248   7.443
 1635TIP3   OH226463   6.343   3.219   7.800
 1635TIP3    H126464   6.302   3.294   7.849
 1635TIP3    H226465   6.275   3.200   7.730
 1636TIP3   OH226466   6.940   2.754   6.542
 1636TIP3    H126467   6.996   2.777   6.620
 1636TIP3    H226468   6.980   2.805   6.471
 1637TIP3   OH226469   6.037   2.836   7.716
 1637TIP3    H126470   6.042   2.903   7.787
 1637TIP3    H226471   5.943   2.845   7.694
 1638TIP3   OH226472   6.710   3.429   6.889
 1638TIP3    H126473   6.755   3.459   6.969
 1638TIP3    H226474   6.655   3.503   6.864
 1639TIP3   OH226475   6.167   3.423   7.875
 1639TIP3    H126476   6.162   3.413   7.778
 1639TIP3    H226477   6.074   3.409   7.901
 1640TIP3   OH226478   6.113   2.805   6.724
 1640TIP3    H126479   6.082   2.885   6.675
 1640TIP3    H226480   6.042   2.742   6.709
 1641TIP3   OH226481   5.720   3.047   7.615
 1641TIP3    H126482   5.676   3.039   7.529
 1641TIP3    H226483   5.728   2.952   7.637
 1642TIP3   OH226484   5.697   3.320   7.294
 1642TIP3    H126485   5.793   3.309   7.291
 1642TIP3    H226486   5.689   3.402   7.344
 1643TIP3   OH226487   6.616   3.345   7.749
 1643TIP3    H126488   6.622   3.429   7.800
 1643TIP3    H226489   6.529   3.310   7.774
 1644TIP3   OH226490   6.661   3.721   6.729
 1644TIP3    H126491   6.650   3.716   6.635
 1644TIP3    H226492   6.664   3.817   6.745
 1645TIP3   OH226493   6.024   3.607   6.913
 1645TIP3    H126494   6.038   3.565   7.000
 1645TIP3    H226495   5.940   3.567   6.883
 1646TIP3   OH226496   6.957   3.638   6.428
 1646TIP3    H126497   7.009   3.568   6.385
 1646TIP3    H226498   6.969   3.614   6.520
 1647TIP3   OH226499   6.934   3.632   6.705
 1647TIP3    H126500   6.839   3.641   6.724
 1647TIP3    H226501   6.960   3.559   6.762
 1648TIP3   OH226502   7.188   2.555   7.912
 1648TIP3    H126503   7.183   2.590   7.823
 1648TIP3    H226504   7.239   2.471   7.895
 1649TIP3   OH226505   5.949   3.179   7.709
 1649TIP3    H126506   5.971   3.142   7.797
 1649TIP3    H226507   5.862   3.139   7.688
 1650TIP3   OH226508   6.217   2.026   7.305
 1650TIP3    H126509   6.126   2.014   7.268
 1650TIP3    H226510   6.204   2.109   7.353
 1651TIP3   OH226511   6.681   1.993   7.641
 1651TIP3    H126512   6.721   1.951   7.720
 1651TIP3    H226513   6.584   1.980   7.655
 1652TIP3   OH226514   7.004   2.373   7.725
 1652TIP3    H126515   6.955   2.356   7.809
 1652TIP3    H226516   6.995   2.468   7.711
 1653TIP3   OH226517   6.227   2.523   7.429
 1653TIP3    H126518   6.154   2.522   7.493
 1653TIP3    H226519   6.223   2.614   7.393
 1654TIP3   OH226520   6.221   2.536   6.915
 1654TIP3    H126521   6.128   2.509   6.901
 1654TIP3    H226522   6.262   2.505   6.834
 1655TIP3   OH226523   6.777   2.586   6.795
 1655TIP3    H126524   6.735   2.667   6.759
 1655TIP3    H226525   6.843   2.568   6.727
 1656TIP3   OH226526   6.682   2.606   7.938
 1656TIP3    H126527   6.630   2.528   7.968
 1656TIP3    H226528   6.766   2.594   7.985
 1657TIP3   OH226529   6.876   2.535   7.078
 1657TIP3    H126530   6.852   2.589   7.001
 1657TIP3    H226531   6.888   2.450   7.032
 1658TIP3   OH226532   5.990   2.549   7.599
 1658TIP3    H126533   5.997   2.590   7.687
 1658TIP3    H226534   5.945   2.465   7.619
 1659TIP3   OH226535   5.656   2.259   6.994
 1659TIP3    H126536   5.722   2.256   7.066
 1659TIP3    H226537   5.702   2.222   6.917
 1660TIP3   OH226538   6.798   2.692   7.534
 1660TIP3    H126539   6.836   2.623   7.475
 1660TIP3    H226540   6.751   2.640   7.601
 1661TIP3   OH226541   6.476   2.289   7.017
 1661TIP3    H126542   6.384   2.291   7.050
 1661TIP3    H226543   6.528   2.275   7.097
 1662TIP3   OH226544   5.961   2.447   6.899
 1662TIP3    H126545   5.869   2.459   6.866
 1662TIP3    H226546   5.988   2.361   6.862
 1663TIP3   OH226547   6.913   2.211   7.342
 1663TIP3    H126548   6.846   2.219   7.412
 1663TIP3    H226549   6.863   2.191   7.261
 1664TIP3   OH226550   7.230   3.783   7.978
 1664TIP3    H126551   7.264   3.816   7.892
 1664TIP3    H226552   7.306   3.809   8.033
 1665TIP3   OH226553   6.008   3.024   7.931
 1665TIP3    H126554   6.078   3.050   7.993
 1665TIP3    H226555   5.929   3.034   7.988
 1666TIP3   OH226556   6.608   2.566   7.207
 1666TIP3    H126557   6.668   2.513   7.154
 1666TIP3    H226558   6.593   2.511   7.285
 1667TIP3   OH226559   6.107   2.181   6.848
 1667TIP3    H126560   6.076   2.089   6.851
 1667TIP3    H226561   6.188   2.173   6.795
 1668TIP3   OH226562   6.471   2.399   7.449
 1668TIP3    H126563   6.388   2.451   7.457
 1668TIP3    H226564   6.526   2.434   7.521
 1669TIP3   OH226565   6.529   3.019   6.617
 1669TIP3    H126566   6.450   2.976   6.587
 1669TIP3    H226567   6.511   3.036   6.711
 1670TIP3   OH226568   7.218   2.941   7.497
 1670TIP3    H126569   7.291   2.959   7.433
 1670TIP3    H226570   7.142   2.945   7.437
 1671TIP3   OH226571   6.680   3.047   7.741
 1671TIP3    H126572   6.644   3.005   7.820
 1671TIP3    H226573   6.656   3.140   7.752
 1672TIP3   OH226574   6.989   2.490   6.599
 1672TIP3    H126575   7.077   2.485   6.639
 1672TIP3    H226576   6.990   2.573   6.547
 1673TIP3   OH226577   6.041   2.960   7.197
 1673TIP3    H126578   6.110   2.952   7.128
 1673TIP3    H226579   6.047   2.874   7.243
 1674TIP3   OH226580   5.740   2.800   7.725
 1674TIP3    H126581   5.758   2.756   7.810
 1674TIP3    H226582   5.678   2.739   7.681
 1675TIP3   OH226583   6.441   2.756   7.942
 1675TIP3    H126584   6.410   2.727   7.855
 1675TIP3    H226585   6.534   2.726   7.941
 1676TIP3   OH226586   6.909   3.289   7.736
 1676TIP3    H126587   6.817   3.308   7.712
 1676TIP3    H226588   6.906   3.319   7.829
 1677TIP3   OH226589   7.021   2.871   7.326
 1677TIP3    H126590   6.927   2.849   7.313
 1677TIP3    H226591   7.069   2.797   7.285
 1678TIP3   OH226592   6.278   3.307   6.937
 1678TIP3    H126593   6.329   3.386   6.914
 1678TIP3    H226594   6.190   3.329   6.904
 1679TIP3   OH226595   6.420   3.072   6.887
 1679TIP3    H126596   6.390   3.165   6.896
 1679TIP3    H226597   6.347   3.025   6.932
 1680TIP3   OH226598   6.465   3.491   7.528
 1680TIP3    H126599   6.510   3.572   7.500
 1680TIP3    H226600   6.526   3.457   7.597
 1681TIP3   OH226601   6.289   3.571   6.845
 1681TIP3    H126602   6.192   3.584   6.853
 1681TIP3    H226603   6.323   3.657   6.876
 1682TIP3   OH226604   6.820   3.092   7.491
 1682TIP3    H126605   6.784   3.072   7.580
 1682TIP3    H226606   6.882   3.019   7.474
 1683TIP3   OH226607   7.098   3.547   7.739
 1683TIP3    H126608   7.027   3.500   7.691
 1683TIP3    H226609   7.120   3.619   7.675
 1684TIP3   OH226610   5.905   2.275   7.680
 1684TIP3    H126611   5.814   2.310   7.676
 1684TIP3    H226612   5.893   2.189   7.724
 1685TIP3   OH226613   7.127   3.060   6.625
 1685TIP3    H126614   7.104   2.981   6.678
 1685TIP3    H226615   7.221   3.069   6.643
 1686TIP3   OH226616   5.866   3.453   7.521
 1686TIP3    H126617   5.895   3.361   7.522
 1686TIP3    H226618   5.892   3.482   7.610
 1687TIP3   OH226619   6.340   3.262   6.491
 1687TIP3    H126620   6.365   3.210   6.568
 1687TIP3    H226621   6.349   3.353   6.524
 1688TIP3   OH226622   6.000   2.981   6.544
 1688TIP3    H126623   5.925   3.018   6.596
 1688TIP3    H226624   6.042   3.065   6.516
 1689TIP3   OH226625   6.775   2.251   7.575
 1689TIP3    H126626   6.850   2.258   7.636
 1689TIP3    H226627   6.739   2.163   7.595
 1690TIP3   OH226628   6.863   2.209   6.680
 1690TIP3    H126629   6.870   2.263   6.601
 1690TIP3    H226630   6.911   2.257   6.749
 1691TIP3   OH226631   6.633   2.487   7.684
 1691TIP3    H126632   6.641   2.543   7.763
 1691TIP3    H226633   6.698   2.416   7.693
 1692TIP3   OH226634   6.657   2.093   6.855
 1692TIP3    H126635   6.630   2.157   6.923
 1692TIP3    H226636   6.728   2.145   6.809
 1693TIP3   OH226637   6.360   3.528   6.567
 1693TIP3    H126638   6.370   3.611   6.517
 1693TIP3    H226639   6.334   3.562   6.655
 1694TIP3   OH226640   7.238   2.252   7.750
 1694TIP3    H126641   7.153   2.304   7.753
 1694TIP3    H226642   7.277   2.279   7.667
 1695TIP3   OH226643   7.109   2.652   7.174
 1695TIP3    H126644   7.027   2.608   7.142
 1695TIP3    H226645   7.152   2.581   7.222
 1696TIP3   OH226646   6.059   3.236   6.441
 1696TIP3    H126647   6.113   3.316   6.460
 1696TIP3    H226648   6.100   3.207   6.359
 1697TIP3   OH226649   7.222   3.580   7.335
 1697TIP3    H126650   7.206   3.647   7.267
 1697TIP3    H226651   7.316   3.589   7.353
 1698TIP3   OH226652   5.966   1.990   7.217
 1698TIP3    H126653   5.945   1.992   7.120
 1698TIP3    H226654   5.924   1.906   7.243
 1699TIP3   OH226655   5.860   3.384   6.830
 1699TIP3    H126656   5.775   3.428   6.829
 1699TIP3    H226657   5.912   3.429   6.763
 1700TIP3   OH226658   5.782   3.649   7.963
 1700TIP3    H126659   5.843   3.623   8.034
 1700TIP3    H226660   5.740   3.563   7.941
 1701TIP3   OH226661   6.248   3.537   8.121
 1701TIP3    H126662   6.326   3.490   8.152
 1701TIP3    H226663   6.248   3.511   8.027
 1702TIP3   OH226664   6.904   3.377   7.995
 1702TIP3    H126665   6.871   3.289   8.022
 1702TIP3    H226666   6.981   3.388   8.054
 1703TIP3   OH226667   5.773   3.023   8.059
 1703TIP3    H126668   5.791   2.933   8.027
 1703TIP3    H226669   5.700   3.051   8.001
 1704TIP3   OH226670   6.445   3.022   7.997
 1704TIP3    H126671   6.411   3.054   7.911
 1704TIP3    H226672   6.453   2.925   7.986
 1705TIP3   OH226673   7.012   3.006   7.737
 1705TIP3    H126674   7.091   3.067   7.731
 1705TIP3    H226675   6.944   3.075   7.742
 1706TIP3   OH226676   5.865   2.748   7.998
 1706TIP3    H126677   5.906   2.661   7.989
 1706TIP3    H226678   5.842   2.749   8.093
 1707TIP3   OH226679   6.255   2.642   7.734
 1707TIP3    H126680   6.195   2.714   7.759
 1707TIP3    H226681   6.294   2.679   7.652
 1708TIP3   OH226682   6.762   2.900   8.075
 1708TIP3    H126683   6.856   2.897   8.056
 1708TIP3    H226684   6.747   2.820   8.127
 1709TIP3   OH226685   6.296   2.381   7.839
 1709TIP3    H126686   6.307   2.309   7.774
 1709TIP3    H226687   6.291   2.461   7.784
 1710TIP3   OH226688   6.335   2.218   7.594
 1710TIP3    H126689   6.387   2.264   7.524
 1710TIP3    H226690   6.246   2.210   7.553
 1711TIP3   OH226691   6.489   2.766   7.618
 1711TIP3    H126692   6.565   2.750   7.561
 1711TIP3    H226693   6.454   2.850   7.586
 1712TIP3   OH226694   6.934   2.544   8.115
 1712TIP3    H126695   6.956   2.450   8.106
 1712TIP3    H226696   7.022   2.585   8.111
 1713TIP3   OH226697   7.066   2.826   7.933
 1713TIP3    H126698   7.036   2.894   7.868
 1713TIP3    H226699   7.158   2.814   7.910
 1714TIP3   OH226700   6.143   2.501   8.037
 1714TIP3    H126701   6.064   2.449   8.012
 1714TIP3    H226702   6.206   2.469   7.970
 1715TIP3   OH226703   6.414   1.961   7.635
 1715TIP3    H126704   6.397   2.058   7.624
 1715TIP3    H226705   6.339   1.925   7.584
 1716TIP3   OH226706   6.542   2.394   7.997
 1716TIP3    H126707   6.510   2.373   8.087
 1716TIP3    H226708   6.464   2.375   7.941
 1717TIP3   OH226709   6.809   2.309   7.903
 1717TIP3    H126710   6.714   2.313   7.918
 1717TIP3    H226711   6.842   2.247   7.971
 1718TIP3   OH226712   6.975   2.169   8.097
 1718TIP3    H126713   6.965   2.072   8.099
 1718TIP3    H226714   6.945   2.201   8.186
 1719TIP3   OH226715   5.952   2.298   8.007
 1719TIP3    H126716   5.975   2.225   7.948
 1719TIP3    H226717   5.941   2.253   8.092
 1720TIP3   OH226718   6.437   1.901   7.903
 1720TIP3    H126719   6.504   1.830   7.902
 1720TIP3    H226720   6.425   1.916   7.807
 1721TIP3   OH226721   6.468   2.058   8.116
 1721TIP3    H126722   6.456   2.011   8.029
 1721TIP3    H226723   6.415   2.139   8.101
 1722TIP3   OH226724   6.433   3.769   6.454
 1722TIP3    H126725   6.528   3.771   6.443
 1722TIP3    H226726   6.399   3.814   6.376
 1723TIP3   OH226727   5.651   3.751   6.879
 1723TIP3    H126728   5.582   3.701   6.830
 1723TIP3    H226729   5.681   3.684   6.943
 1724TIP3   OH226730   5.734   3.561   7.063
 1724TIP3    H126731   5.699   3.474   7.085
 1724TIP3    H226732   5.758   3.596   7.152
 1725TIP3   OH226733   7.281   3.369   7.581
 1725TIP3    H126734   7.215   3.411   7.637
 1725TIP3    H226735   7.229   3.332   7.508
 1726TIP3   OH226736   7.191   2.669   6.916
 1726TIP3    H126737   7.215   2.576   6.917
 1726TIP3    H226738   7.202   2.693   7.010
 1727TIP3   OH226739   5.740   2.870   7.312
 1727TIP3    H126740   5.759   2.862   7.216
 1727TIP3    H226741   5.830   2.853   7.348
 1728TIP3   OH226742   7.206   2.414   6.742
 1728TIP3    H126743   7.234   2.329   6.779
 1728TIP3    H226744   7.288   2.451   6.708
 1729TIP3   OH226745  -0.052   2.392   7.295
 1729TIP3    H126746   0.036   2.429   7.283
 1729TIP3    H226747  -0.073   2.456   7.365
 1730TIP3   OH226748   7.278   2.552   7.598
 1730TIP3    H126749   7.185   2.579   7.609
 1730TIP3    H226750   7.315   2.623   7.543
 1731TIP3   OH226751   5.702   2.399   7.926
 1731TIP3    H126752   5.796   2.380   7.947
 1731TIP3    H226753   5.657   2.318   7.957
 1732TIP3   OH226754   7.185   2.121   6.822
 1732TIP3    H126755   7.277   2.099   6.845
 1732TIP3    H226756   7.187   2.075   6.735
 1733TIP3   OH226757   5.822   2.229   7.213
 1733TIP3    H126758   5.869   2.147   7.239
 1733TIP3    H226759   5.876   2.299   7.252
 1734TIP3   OH226760   5.650   2.529   7.317
 1734TIP3    H126761   5.707   2.505   7.240
 1734TIP3    H226762   5.696   2.610   7.344
 1735TIP3   OH226763   5.686   2.158   6.723
 1735TIP3    H126764   5.591   2.175   6.710
 1735TIP3    H226765   5.727   2.206   6.651
 1736TIP3   OH226766   7.143   3.631   6.930
 1736TIP3    H126767   7.209   3.602   6.866
 1736TIP3    H226768   7.195   3.692   6.986
 1737TIP3   OH226769   5.682   2.021   7.554
 1737TIP3    H126770   5.615   2.002   7.622
 1737TIP3    H226771   5.636   2.089   7.499
 1738TIP3   OH226772   5.906   3.346   7.972
 1738TIP3    H126773   5.821   3.362   7.927
 1738TIP3    H226774   5.878   3.333   8.063
 1739TIP3   OH226775   6.195   3.441   7.598
 1739TIP3    H126776   6.161   3.527   7.570
 1739TIP3    H226777   6.288   3.450   7.567
 1740TIP3   OH226778   6.628   3.584   7.889
 1740TIP3    H126779   6.642   3.549   7.980
 1740TIP3    H226780   6.718   3.614   7.865
 1741TIP3   OH226781   6.859   3.710   7.820
 1741TIP3    H126782   6.932   3.652   7.796
 1741TIP3    H226783   6.897   3.755   7.898
 1742TIP3   OH226784   5.938   3.766   7.597
 1742TIP3    H126785   5.865   3.815   7.557
 1742TIP3    H226786   5.906   3.745   7.686
 1743TIP3   OH226787   6.185   3.723   7.505
 1743TIP3    H126788   6.096   3.737   7.544
 1743TIP3    H226789   6.179   3.782   7.427
 1744TIP3   OH226790   6.652   3.713   7.423
 1744TIP3    H126791   6.609   3.770   7.357
 1744TIP3    H226792   6.669   3.777   7.495
 1745TIP3   OH226793   6.885   3.596   7.524
 1745TIP3    H126794   6.799   3.622   7.488
 1745TIP3    H226795   6.930   3.682   7.516
 1746TIP3   OH226796   7.130   3.752   7.546
 1746TIP3    H126797   7.129   3.847   7.524
 1746TIP3    H226798   7.164   3.716   7.462
 1747TIP3   OH226799   5.883   3.630   7.292
 1747TIP3    H126800   5.876   3.584   7.378
 1747TIP3    H226801   5.965   3.593   7.252
 1748TIP3   OH226802   6.091   3.501   7.157
 1748TIP3    H126803   6.075   3.408   7.180
 1748TIP3    H226804   6.177   3.516   7.202
 1749TIP3   OH226805   6.350   3.549   7.244
 1749TIP3    H126806   6.367   3.458   7.218
 1749TIP3    H226807   6.356   3.544   7.341
 1750TIP3   OH226808   6.696   2.115   7.158
 1750TIP3    H126809   6.629   2.050   7.186
 1750TIP3    H226810   6.753   2.062   7.100
 1751TIP3   OH226811   7.212   1.921   7.169
 1751TIP3    H126812   7.270   1.979   7.120
 1751TIP3    H226813   7.123   1.955   7.144
 1752TIP3   OH226814   5.934   1.979   6.940
 1752TIP3    H126815   5.853   1.955   6.893
 1752TIP3    H226816   5.981   1.893   6.939
 1753TIP3   OH226817   6.382   1.972   6.921
 1753TIP3    H126818   6.472   2.006   6.916
 1753TIP3    H226819   6.376   1.949   7.014
 1754TIP3   OH226820   6.953   1.968   7.084
 1754TIP3    H126821   6.950   1.985   6.989
 1754TIP3    H226822   6.912   1.879   7.095
 1755TIP3   OH226823   7.078   1.972   6.644
 1755TIP3    H126824   7.004   2.032   6.636
 1755TIP3    H226825   7.033   1.888   6.668
 1756TIP3   OH226826   6.487   2.173   6.612
 1756TIP3    H126827   6.521   2.115   6.681
 1756TIP3    H226828   6.503   2.260   6.650
 1757TIP3   OH226829   5.923   2.031   7.888
 1757TIP3    H126830   5.884   1.951   7.931
 1757TIP3    H226831   6.014   2.028   7.925
 1758TIP3   OH226832   6.123   1.973   8.056
 1758TIP3    H126833   6.209   1.937   8.027
 1758TIP3    H226834   6.083   1.890   8.091
 1759TIP3   OH226835   6.964   1.901   8.067
 1759TIP3    H126836   6.973   1.852   8.151
 1759TIP3    H226837   7.056   1.898   8.030
 1760TIP3   OH226838   7.264   3.492   7.946
 1760TIP3    H126839   7.199   3.486   7.873
 1760TIP3    H226840   7.266   3.590   7.952
 1761TIP3   OH226841   1.186   4.777   6.929
 1761TIP3    H126842   1.186   4.875   6.926
 1761TIP3    H226843   1.111   4.755   6.872
 1762TIP3   OH226844   1.075   4.701   7.279
 1762TIP3    H126845   1.070   4.636   7.351
 1762TIP3    H226846   1.036   4.654   7.203
 1763TIP3   OH226847   0.309   4.668   7.435
 1763TIP3    H126848   0.319   4.601   7.504
 1763TIP3    H226849   0.383   4.728   7.455
 1764TIP3   OH226850   1.441   4.997   7.108
 1764TIP3    H126851   1.399   4.926   7.157
 1764TIP3    H226852   1.443   5.069   7.174
 1765TIP3   OH226853   0.399   5.113   7.290
 1765TIP3    H126854   0.370   5.029   7.250
 1765TIP3    H226855   0.495   5.094   7.285
 1766TIP3   OH226856   0.091   4.467   6.796
 1766TIP3    H126857   0.046   4.549   6.828
 1766TIP3    H226858   0.010   4.417   6.789
 1767TIP3   OH226859   0.130   4.685   7.041
 1767TIP3    H126860   0.163   4.612   7.096
 1767TIP3    H226861   0.207   4.705   6.985
 1768TIP3   OH226862   1.155   5.515   7.131
 1768TIP3    H126863   1.218   5.443   7.102
 1768TIP3    H226864   1.132   5.481   7.217
 1769TIP3   OH226865   0.911   4.943   7.327
 1769TIP3    H126866   0.940   4.881   7.258
 1769TIP3    H226867   0.992   4.958   7.378
 1770TIP3   OH226868   1.770   4.108   7.399
 1770TIP3    H126869   1.787   4.167   7.476
 1770TIP3    H226870   1.826   4.151   7.332
 1771TIP3   OH226871   1.226   4.389   7.357
 1771TIP3    H126872   1.243   4.293   7.357
 1771TIP3    H226873   1.216   4.404   7.261
 1772TIP3   OH226874   0.539   4.196   7.081
 1772TIP3    H126875   0.549   4.280   7.031
 1772TIP3    H226876   0.499   4.141   7.010
 1773TIP3   OH226877   1.311   4.208   6.918
 1773TIP3    H126878   1.378   4.175   6.982
 1773TIP3    H226879   1.367   4.262   6.860
 1774TIP3   OH226880   0.197   4.431   7.148
 1774TIP3    H126881   0.270   4.383   7.194
 1774TIP3    H226882   0.214   4.405   7.057
 1775TIP3   OH226883   0.722   4.593   7.085
 1775TIP3    H126884   0.785   4.533   7.126
 1775TIP3    H226885   0.663   4.533   7.034
 1776TIP3   OH226886   1.814   4.250   7.626
 1776TIP3    H126887   1.752   4.325   7.616
 1776TIP3    H226888   1.817   4.240   7.722
 1777TIP3   OH226889   0.432   4.088   7.483
 1777TIP3    H126890   0.401   4.145   7.409
 1777TIP3    H226891   0.363   4.110   7.551
 1778TIP3   OH226892   1.161   5.037   6.835
 1778TIP3    H126893   1.127   5.010   6.750
 1778TIP3    H226894   1.126   5.128   6.847
 1779TIP3   OH226895   0.683   4.853   7.513
 1779TIP3    H126896   0.610   4.917   7.528
 1779TIP3    H226897   0.751   4.913   7.478
 1780TIP3   OH226898   1.492   4.141   7.116
 1780TIP3    H126899   1.470   4.064   7.169
 1780TIP3    H226900   1.559   4.185   7.171
 1781TIP3   OH226901   0.383   4.270   7.287
 1781TIP3    H126902   0.445   4.341   7.319
 1781TIP3    H226903   0.438   4.234   7.212
 1782TIP3   OH226904   0.524   5.051   7.590
 1782TIP3    H126905   0.520   5.142   7.553
 1782TIP3    H226906   0.434   5.044   7.631
 1783TIP3   OH226907   0.132   5.020   6.668
 1783TIP3    H126908   0.110   5.046   6.579
 1783TIP3    H226909   0.140   5.102   6.720
 1784TIP3   OH226910   1.494   5.181   7.344
 1784TIP3    H126911   1.397   5.192   7.356
 1784TIP3    H226912   1.521   5.273   7.324
 1785TIP3   OH226913   1.526   4.010   7.483
 1785TIP3    H126914   1.453   4.073   7.475
 1785TIP3    H226915   1.597   4.052   7.431
 1786TIP3   OH226916   0.823   3.822   7.229
 1786TIP3    H126917   0.810   3.725   7.223
 1786TIP3    H226918   0.735   3.852   7.260
 1787TIP3   OH226919   1.321   5.359   7.005
 1787TIP3    H126920   1.364   5.287   6.954
 1787TIP3    H226921   1.361   5.438   6.964
 1788TIP3   OH226922   1.440   5.153   6.856
 1788TIP3    H126923   1.415   5.082   6.794
 1788TIP3    H226924   1.445   5.103   6.939
 1789TIP3   OH226925   1.603   5.011   7.704
 1789TIP3    H126926   1.617   4.946   7.632
 1789TIP3    H226927   1.622   5.096   7.661
 1790TIP3   OH226928   1.055   4.699   6.680
 1790TIP3    H126929   0.979   4.752   6.647
 1790TIP3    H226930   1.123   4.711   6.612
 1791TIP3   OH226931   1.065   4.556   6.381
 1791TIP3    H126932   1.129   4.547   6.453
 1791TIP3    H226933   1.086   4.482   6.323
 1792TIP3   OH226934   1.791   4.643   7.509
 1792TIP3    H126935   1.725   4.714   7.513
 1792TIP3    H226936   1.840   4.665   7.428
 1793TIP3   OH226937   1.393   4.718   6.771
 1793TIP3    H126938   1.323   4.747   6.834
 1793TIP3    H226939   1.444   4.656   6.826
 1794TIP3   OH226940   1.389   4.539   7.684
 1794TIP3    H126941   1.390   4.620   7.737
 1794TIP3    H226942   1.326   4.568   7.615
 1795TIP3   OH226943   0.523   4.708   6.953
 1795TIP3    H126944   0.530   4.741   6.862
 1795TIP3    H226945   0.614   4.722   6.989
 1796TIP3   OH226946   0.707   5.155   7.245
 1796TIP3    H126947   0.685   5.094   7.167
 1796TIP3    H226948   0.770   5.091   7.282
 1797TIP3   OH226949   0.597   4.658   7.334
 1797TIP3    H126950   0.644   4.676   7.249
 1797TIP3    H226951   0.628   4.732   7.389
 1798TIP3   OH226952   1.232   5.219   7.401
 1798TIP3    H126953   1.203   5.283   7.467
 1798TIP3    H226954   1.206   5.134   7.443
 1799TIP3   OH226955   0.686   5.105   7.800
 1799TIP3    H126956   0.646   5.180   7.849
 1799TIP3    H226957   0.619   5.086   7.730
 1800TIP3   OH226958   1.287   4.640   6.538
 1800TIP3    H126959   1.337   4.659   6.622
 1800TIP3    H226960   1.333   4.697   6.476
 1801TIP3   OH226961   0.380   4.723   7.718
 1801TIP3    H126962   0.384   4.790   7.788
 1801TIP3    H226963   0.286   4.732   7.694
 1802TIP3   OH226964   1.054   5.312   6.886
 1802TIP3    H126965   1.099   5.343   6.966
 1802TIP3    H226966   0.999   5.389   6.865
 1803TIP3   OH226967   0.511   5.308   7.874
 1803TIP3    H126968   0.504   5.299   7.778
 1803TIP3    H226969   0.417   5.296   7.901
 1804TIP3   OH226970   0.460   4.688   6.708
 1804TIP3    H126971   0.425   4.770   6.670
 1804TIP3    H226972   0.387   4.627   6.703
 1805TIP3   OH226973   0.122   4.920   7.589
 1805TIP3    H126974   0.044   4.932   7.531
 1805TIP3    H226975   0.084   4.841   7.636
 1806TIP3   OH226976   0.069   5.228   7.267
 1806TIP3    H126977   0.153   5.189   7.294
 1806TIP3    H226978   0.041   5.277   7.346
 1807TIP3   OH226979   1.863   5.277   7.859
 1807TIP3    H126980   1.852   5.181   7.860
 1807TIP3    H226981   1.778   5.301   7.902
 1808TIP3   OH226982   0.960   5.231   7.749
 1808TIP3    H126983   0.965   5.315   7.801
 1808TIP3    H226984   0.872   5.195   7.773
 1809TIP3   OH226985   1.009   5.606   6.726
 1809TIP3    H126986   0.989   5.600   6.632
 1809TIP3    H226987   1.003   5.701   6.746
 1810TIP3   OH226988   0.366   5.493   6.912
 1810TIP3    H126989   0.382   5.449   6.999
 1810TIP3    H226990   0.283   5.451   6.886
 1811TIP3   OH226991   1.304   5.523   6.428
 1811TIP3    H126992   1.351   5.450   6.382
 1811TIP3    H226993   1.311   5.497   6.521
 1812TIP3   OH226994   1.276   5.519   6.707
 1812TIP3    H126995   1.181   5.528   6.724
 1812TIP3    H226996   1.304   5.444   6.761
 1813TIP3   OH226997   1.578   4.424   7.908
 1813TIP3    H126998   1.531   4.469   7.836
 1813TIP3    H226999   1.577   4.332   7.878
 1814TIP3   OH227000   0.293   5.072   7.716
 1814TIP3    H127001   0.313   5.027   7.800
 1814TIP3    H227002   0.210   5.027   7.688
 1815TIP3   OH227003   0.561   3.912   7.305
 1815TIP3    H127004   0.470   3.901   7.268
 1815TIP3    H227005   0.547   3.995   7.353
 1816TIP3   OH227006   1.024   3.879   7.641
 1816TIP3    H127007   1.064   3.837   7.720
 1816TIP3    H227008   0.927   3.866   7.655
 1817TIP3   OH227009   1.354   4.263   7.730
 1817TIP3    H127010   1.298   4.242   7.809
 1817TIP3    H227011   1.335   4.356   7.708
 1818TIP3   OH227012   0.569   4.409   7.428
 1818TIP3    H127013   0.497   4.409   7.494
 1818TIP3    H227014   0.567   4.501   7.392
 1819TIP3   OH227015   0.570   4.414   6.917
 1819TIP3    H127016   0.474   4.398   6.901
 1819TIP3    H227017   0.606   4.393   6.830
 1820TIP3   OH227018   1.118   4.467   6.789
 1820TIP3    H127019   1.078   4.553   6.760
 1820TIP3    H227020   1.191   4.456   6.726
 1821TIP3   OH227021   1.025   4.492   7.937
 1821TIP3    H127022   0.972   4.414   7.968
 1821TIP3    H227023   1.108   4.479   7.985
 1822TIP3   OH227024   1.221   4.420   7.078
 1822TIP3    H127025   1.194   4.476   7.003
 1822TIP3    H227026   1.232   4.335   7.031
 1823TIP3   OH227027   0.335   4.433   7.599
 1823TIP3    H127028   0.336   4.475   7.687
 1823TIP3    H227029   0.286   4.352   7.618
 1824TIP3   OH227030   0.035   4.174   6.976
 1824TIP3    H127031   0.068   4.142   7.063
 1824TIP3    H227032   0.050   4.100   6.918
 1825TIP3   OH227033   1.142   4.579   7.534
 1825TIP3    H127034   1.179   4.510   7.475
 1825TIP3    H227035   1.096   4.525   7.601
 1826TIP3   OH227036   0.822   4.176   7.018
 1826TIP3    H127037   0.728   4.178   7.047
 1826TIP3    H227038   0.870   4.160   7.100
 1827TIP3   OH227039   0.303   4.330   6.903
 1827TIP3    H127040   0.216   4.347   6.864
 1827TIP3    H227041   0.330   4.246   6.862
 1828TIP3   OH227042   0.664   4.334   6.665
 1828TIP3    H127043   0.760   4.346   6.683
 1828TIP3    H227044   0.643   4.405   6.601
 1829TIP3   OH227045   1.263   4.099   7.341
 1829TIP3    H127046   1.194   4.105   7.411
 1829TIP3    H227047   1.212   4.075   7.262
 1830TIP3   OH227048   0.540   4.447   6.424
 1830TIP3    H127049   0.484   4.423   6.351
 1830TIP3    H227050   0.621   4.480   6.380
 1831TIP3   OH227051   1.583   5.664   7.977
 1831TIP3    H127052   1.610   5.701   7.891
 1831TIP3    H227053   1.655   5.695   8.033
 1832TIP3   OH227054   0.349   4.910   7.932
 1832TIP3    H127055   0.421   4.934   7.993
 1832TIP3    H227056   0.273   4.922   7.990
 1833TIP3   OH227057   0.950   4.451   7.207
 1833TIP3    H127058   1.010   4.398   7.153
 1833TIP3    H227059   0.936   4.397   7.285
 1834TIP3   OH227060   0.450   4.068   6.845
 1834TIP3    H127061   0.420   3.975   6.847
 1834TIP3    H227062   0.531   4.058   6.793
 1835TIP3   OH227063   0.814   4.285   7.448
 1835TIP3    H127064   0.732   4.336   7.457
 1835TIP3    H227065   0.870   4.320   7.521
 1836TIP3   OH227066   1.591   4.826   7.498
 1836TIP3    H127067   1.648   4.875   7.435
 1836TIP3    H227068   1.505   4.832   7.451
 1837TIP3   OH227069   1.258   4.190   6.433
 1837TIP3    H127070   1.163   4.201   6.421
 1837TIP3    H227071   1.289   4.274   6.471
 1838TIP3   OH227072   1.022   4.933   7.741
 1838TIP3    H127073   0.987   4.891   7.820
 1838TIP3    H227074   0.997   5.025   7.751
 1839TIP3   OH227075   1.332   4.380   6.599
 1839TIP3    H127076   1.419   4.365   6.641
 1839TIP3    H227077   1.340   4.464   6.551
 1840TIP3   OH227078   0.362   4.832   7.198
 1840TIP3    H127079   0.442   4.845   7.139
 1840TIP3    H227080   0.395   4.756   7.246
 1841TIP3   OH227081   0.080   4.685   7.724
 1841TIP3    H127082   0.106   4.641   7.807
 1841TIP3    H227083   0.021   4.621   7.681
 1842TIP3   OH227084   0.784   4.641   7.942
 1842TIP3    H127085   0.753   4.613   7.855
 1842TIP3    H227086   0.877   4.611   7.941
 1843TIP3   OH227087   1.252   5.176   7.736
 1843TIP3    H127088   1.160   5.194   7.713
 1843TIP3    H227089   1.249   5.205   7.829
 1844TIP3   OH227090   1.813   4.398   6.577
 1844TIP3    H127091   1.765   4.359   6.503
 1844TIP3    H227092   1.827   4.488   6.546
 1845TIP3   OH227093   1.819   4.980   7.856
 1845TIP3    H127094   1.730   5.002   7.820
 1845TIP3    H227095   1.873   4.976   7.775
 1846TIP3   OH227096   1.369   4.759   7.325
 1846TIP3    H127097   1.275   4.737   7.315
 1846TIP3    H227098   1.412   4.682   7.283
 1847TIP3   OH227099   0.621   5.199   6.937
 1847TIP3    H127100   0.673   5.275   6.908
 1847TIP3    H227101   0.533   5.214   6.902
 1848TIP3   OH227102   0.773   4.960   6.870
 1848TIP3    H127103   0.739   5.049   6.890
 1848TIP3    H227104   0.707   4.915   6.928
 1849TIP3   OH227105   0.808   5.376   7.528
 1849TIP3    H127106   0.854   5.456   7.498
 1849TIP3    H227107   0.870   5.343   7.596
 1850TIP3   OH227108   0.632   5.458   6.843
 1850TIP3    H127109   0.536   5.472   6.854
 1850TIP3    H227110   0.668   5.542   6.874
 1851TIP3   OH227111   1.161   4.977   7.491
 1851TIP3    H127112   1.127   4.957   7.581
 1851TIP3    H227113   1.225   4.906   7.474
 1852TIP3   OH227114   1.441   5.435   7.740
 1852TIP3    H127115   1.373   5.385   7.691
 1852TIP3    H227116   1.460   5.505   7.674
 1853TIP3   OH227117   0.248   4.161   7.674
 1853TIP3    H127118   0.159   4.197   7.682
 1853TIP3    H227119   0.237   4.077   7.723
 1854TIP3   OH227120   1.468   4.944   6.628
 1854TIP3    H127121   1.447   4.866   6.680
 1854TIP3    H227122   1.564   4.953   6.639
 1855TIP3   OH227123   0.224   5.346   7.518
 1855TIP3    H127124   0.236   5.250   7.522
 1855TIP3    H227125   0.236   5.365   7.611
 1856TIP3   OH227126   0.332   4.868   6.542
 1856TIP3    H127127   0.266   4.909   6.600
 1856TIP3    H227128   0.391   4.941   6.516
 1857TIP3   OH227129   1.121   4.137   7.574
 1857TIP3    H127130   1.192   4.143   7.639
 1857TIP3    H227131   1.083   4.049   7.594
 1858TIP3   OH227132   1.196   4.097   6.685
 1858TIP3    H127133   1.220   4.141   6.602
 1858TIP3    H227134   1.254   4.140   6.749
 1859TIP3   OH227135   0.917   4.270   6.763
 1859TIP3    H127136   0.997   4.328   6.767
 1859TIP3    H227137   0.891   4.259   6.856
 1860TIP3   OH227138   0.974   4.372   7.684
 1860TIP3    H127139   0.982   4.428   7.764
 1860TIP3    H227140   1.040   4.302   7.694
 1861TIP3   OH227141   1.005   3.977   6.853
 1861TIP3    H127142   0.972   4.040   6.919
 1861TIP3    H227143   1.074   4.032   6.808
 1862TIP3   OH227144   0.570   4.085   6.529
 1862TIP3    H127145   0.565   4.176   6.562
 1862TIP3    H227146   0.661   4.061   6.552
 1863TIP3   OH227147   1.592   4.159   7.768
 1863TIP3    H127148   1.499   4.190   7.756
 1863TIP3    H227149   1.622   4.158   7.676
 1864TIP3   OH227150   1.453   4.538   7.170
 1864TIP3    H127151   1.371   4.493   7.143
 1864TIP3    H227152   1.501   4.469   7.222
 1865TIP3   OH227153   1.560   5.463   7.337
 1865TIP3    H127154   1.550   5.532   7.268
 1865TIP3    H227155   1.656   5.469   7.355
 1866TIP3   OH227156   0.312   3.874   7.216
 1866TIP3    H127157   0.289   3.878   7.119
 1866TIP3    H227158   0.266   3.792   7.242
 1867TIP3   OH227159   0.202   5.269   6.826
 1867TIP3    H127160   0.119   5.315   6.829
 1867TIP3    H227161   0.259   5.318   6.766
 1868TIP3   OH227162   0.152   5.540   7.957
 1868TIP3    H127163   0.195   5.514   8.041
 1868TIP3    H227164   0.103   5.455   7.943
 1869TIP3   OH227165   0.593   5.424   8.122
 1869TIP3    H127166   0.669   5.374   8.155
 1869TIP3    H227167   0.590   5.394   8.028
 1870TIP3   OH227168   1.242   5.264   7.995
 1870TIP3    H127169   1.212   5.174   8.022
 1870TIP3    H227170   1.321   5.275   8.052
 1871TIP3   OH227171   0.111   4.908   8.060
 1871TIP3    H127172   0.136   4.821   8.024
 1871TIP3    H227173   0.043   4.938   7.998
 1872TIP3   OH227174   0.789   4.909   7.996
 1872TIP3    H127175   0.754   4.940   7.910
 1872TIP3    H227176   0.796   4.811   7.986
 1873TIP3   OH227177   1.358   4.895   7.738
 1873TIP3    H127178   1.436   4.954   7.731
 1873TIP3    H227179   1.287   4.962   7.741
 1874TIP3   OH227180   0.202   4.633   7.997
 1874TIP3    H127181   0.249   4.548   7.988
 1874TIP3    H227182   0.185   4.633   8.092
 1875TIP3   OH227183   0.598   4.528   7.734
 1875TIP3    H127184   0.537   4.599   7.760
 1875TIP3    H227185   0.637   4.564   7.653
 1876TIP3   OH227186   0.777   4.566   6.324
 1876TIP3    H127187   0.761   4.553   6.230
 1876TIP3    H227188   0.874   4.576   6.331
 1877TIP3   OH227189   1.105   4.784   8.073
 1877TIP3    H127190   1.200   4.782   8.055
 1877TIP3    H227191   1.088   4.706   8.128
 1878TIP3   OH227192   0.641   4.266   7.838
 1878TIP3    H127193   0.650   4.194   7.774
 1878TIP3    H227194   0.632   4.347   7.783
 1879TIP3   OH227195   0.679   4.103   7.594
 1879TIP3    H127196   0.730   4.150   7.524
 1879TIP3    H227197   0.590   4.095   7.553
 1880TIP3   OH227198   0.833   4.652   7.618
 1880TIP3    H127199   0.908   4.635   7.561
 1880TIP3    H227200   0.796   4.735   7.584
 1881TIP3   OH227201   1.273   4.427   8.115
 1881TIP3    H127202   1.295   4.333   8.107
 1881TIP3    H227203   1.360   4.469   8.116
 1882TIP3   OH227204   1.407   4.707   7.933
 1882TIP3    H127205   1.381   4.779   7.870
 1882TIP3    H227206   1.502   4.703   7.911
 1883TIP3   OH227207   0.483   4.390   8.034
 1883TIP3    H127208   0.406   4.333   8.014
 1883TIP3    H227209   0.548   4.354   7.969
 1884TIP3   OH227210   0.757   3.847   7.635
 1884TIP3    H127211   0.740   3.943   7.624
 1884TIP3    H227212   0.683   3.811   7.584
 1885TIP3   OH227213   0.885   4.280   7.997
 1885TIP3    H127214   0.853   4.258   8.086
 1885TIP3    H227215   0.807   4.261   7.941
 1886TIP3   OH227216   1.156   4.194   7.903
 1886TIP3    H127217   1.060   4.199   7.916
 1886TIP3    H227218   1.184   4.131   7.972
 1887TIP3   OH227219   1.313   4.057   8.096
 1887TIP3    H127220   1.310   3.959   8.099
 1887TIP3    H227221   1.288   4.086   8.187
 1888TIP3   OH227222   0.308   4.182   8.010
 1888TIP3    H127223   0.318   4.108   7.947
 1888TIP3    H227224   0.286   4.137   8.094
 1889TIP3   OH227225   0.779   3.785   7.904
 1889TIP3    H127226   0.848   3.715   7.901
 1889TIP3    H227227   0.768   3.802   7.808
 1890TIP3   OH227228   0.814   3.946   8.113
 1890TIP3    H127229   0.798   3.897   8.029
 1890TIP3    H227230   0.756   4.024   8.103
 1891TIP3   OH227231   7.336   5.655   6.863
 1891TIP3    H127232   7.248   5.627   6.828
 1891TIP3    H227233   7.346   5.589   6.936
 1892TIP3   OH227234   0.081   5.452   7.059
 1892TIP3    H127235   0.044   5.363   7.082
 1892TIP3    H227236   0.103   5.481   7.149
 1893TIP3   OH227237   1.831   5.528   7.357
 1893TIP3    H127238   1.834   5.544   7.453
 1893TIP3    H227239   1.902   5.586   7.326
 1894TIP3   OH227240   1.789   5.488   7.651
 1894TIP3    H127241   1.742   5.410   7.613
 1894TIP3    H227242   1.838   5.443   7.722
 1895TIP3   OH227243   1.634   5.059   8.118
 1895TIP3    H127244   1.545   5.057   8.156
 1895TIP3    H227245   1.671   5.139   8.160
 1896TIP3   OH227246   1.771   4.890   6.656
 1896TIP3    H127247   1.847   4.935   6.688
 1896TIP3    H227248   1.760   4.820   6.725
 1897TIP3   OH227249   1.806   4.696   6.846
 1897TIP3    H127250   1.726   4.653   6.884
 1897TIP3    H227251   1.858   4.715   6.926
 1898TIP3   OH227252   1.777   4.970   7.348
 1898TIP3    H127253   1.859   4.933   7.311
 1898TIP3    H227254   1.791   5.065   7.332
 1899TIP3   OH227255   1.632   5.260   7.576
 1899TIP3    H127256   1.563   5.294   7.635
 1899TIP3    H227257   1.577   5.220   7.505
 1900TIP3   OH227258   1.587   4.546   6.906
 1900TIP3    H127259   1.566   4.452   6.904
 1900TIP3    H227260   1.549   4.571   6.993
 1901TIP3   OH227261   0.085   4.754   7.305
 1901TIP3    H127262   0.107   4.751   7.210
 1901TIP3    H227263   0.174   4.744   7.346
 1902TIP3   OH227264   1.669   4.745   7.877
 1902TIP3    H127265   1.730   4.669   7.888
 1902TIP3    H227266   1.729   4.822   7.875
 1903TIP3   OH227267   1.819   4.533   7.941
 1903TIP3    H127268   1.731   4.493   7.924
 1903TIP3    H227269   1.876   4.455   7.933
 1904TIP3   OH227270   1.592   4.149   6.253
 1904TIP3    H127271   1.649   4.110   6.319
 1904TIP3    H227272   1.506   4.111   6.274
 1905TIP3   OH227273   1.548   4.305   6.749
 1905TIP3    H127274   1.580   4.212   6.764
 1905TIP3    H227275   1.629   4.346   6.716
 1906TIP3   OH227276   1.613   4.360   7.297
 1906TIP3    H127277   1.708   4.383   7.296
 1906TIP3    H227278   1.593   4.374   7.391
 1907TIP3   OH227279   1.620   4.432   7.575
 1907TIP3    H127280   1.532   4.461   7.608
 1907TIP3    H227281   1.663   4.518   7.553
 1908TIP3   OH227282   0.072   4.272   7.926
 1908TIP3    H127283   0.160   4.256   7.960
 1908TIP3    H227284   0.014   4.204   7.970
 1909TIP3   OH227285   1.848   3.838   8.107
 1909TIP3    H127286   1.883   3.771   8.047
 1909TIP3    H227287   1.858   3.920   8.056
 1910TIP3   OH227288   1.617   4.035   6.757
 1910TIP3    H127289   1.638   3.991   6.842
 1910TIP3    H227290   1.557   3.971   6.713
 1911TIP3   OH227291   0.169   4.110   7.208
 1911TIP3    H127292   0.215   4.032   7.242
 1911TIP3    H227293   0.219   4.182   7.252
 1912TIP3   OH227294   0.051   4.488   7.352
 1912TIP3    H127295   0.052   4.446   7.264
 1912TIP3    H227296   0.058   4.580   7.325
 1913TIP3   OH227297   1.799   4.049   7.945
 1913TIP3    H127298   1.705   4.075   7.941
 1913TIP3    H227299   1.803   3.994   7.865
 1914TIP3   OH227300   0.074   4.054   6.698
 1914TIP3    H127301  -0.024   4.056   6.699
 1914TIP3    H227302   0.087   4.118   6.630
 1915TIP3   OH227303   1.504   5.538   6.916
 1915TIP3    H127304   1.573   5.505   6.856
 1915TIP3    H227305   1.555   5.586   6.983
 1916TIP3   OH227306   7.355   3.904   7.574
 1916TIP3    H127307   7.276   3.883   7.626
 1916TIP3    H227308   7.307   3.956   7.508
 1917TIP3   OH227309   0.246   5.231   7.972
 1917TIP3    H127310   0.160   5.245   7.930
 1917TIP3    H227311   0.221   5.221   8.064
 1918TIP3   OH227312   0.541   5.328   7.601
 1918TIP3    H127313   0.501   5.411   7.569
 1918TIP3    H227314   0.633   5.338   7.566
 1919TIP3   OH227315   0.969   5.472   7.890
 1919TIP3    H127316   0.985   5.433   7.980
 1919TIP3    H227317   1.061   5.498   7.865
 1920TIP3   OH227318   1.199   5.597   7.819
 1920TIP3    H127319   1.271   5.538   7.795
 1920TIP3    H227320   1.238   5.639   7.898
 1921TIP3   OH227321   1.701   3.857   7.730
 1921TIP3    H127322   1.618   3.887   7.688
 1921TIP3    H227323   1.718   3.776   7.677
 1922TIP3   OH227324   0.286   5.658   7.604
 1922TIP3    H127325   0.211   5.699   7.557
 1922TIP3    H227326   0.249   5.625   7.687
 1923TIP3   OH227327   0.530   5.614   7.507
 1923TIP3    H127328   0.438   5.621   7.541
 1923TIP3    H227329   0.524   5.667   7.425
 1924TIP3   OH227330   0.996   5.599   7.424
 1924TIP3    H127331   0.954   5.653   7.356
 1924TIP3    H227332   1.014   5.664   7.495
 1925TIP3   OH227333   1.228   5.482   7.523
 1925TIP3    H127334   1.142   5.508   7.488
 1925TIP3    H227335   1.276   5.566   7.514
 1926TIP3   OH227336   1.486   5.639   7.547
 1926TIP3    H127337   1.480   5.735   7.524
 1926TIP3    H227338   1.508   5.601   7.459
 1927TIP3   OH227339   0.222   5.518   7.293
 1927TIP3    H127340   0.223   5.468   7.377
 1927TIP3    H227341   0.303   5.480   7.252
 1928TIP3   OH227342   0.428   5.389   7.162
 1928TIP3    H127343   0.417   5.294   7.180
 1928TIP3    H227344   0.518   5.401   7.200
 1929TIP3   OH227345   0.695   5.435   7.245
 1929TIP3    H127346   0.710   5.342   7.217
 1929TIP3    H227347   0.699   5.425   7.341
 1930TIP3   OH227348   1.040   4.001   7.158
 1930TIP3    H127349   0.973   3.936   7.186
 1930TIP3    H227350   1.096   3.947   7.100
 1931TIP3   OH227351   1.554   3.806   7.165
 1931TIP3    H127352   1.615   3.865   7.115
 1931TIP3    H227353   1.466   3.841   7.142
 1932TIP3   OH227354   1.723   3.931   6.994
 1932TIP3    H127355   1.791   3.875   6.950
 1932TIP3    H227356   1.771   4.015   7.006
 1933TIP3   OH227357   0.276   3.864   6.946
 1933TIP3    H127358   0.199   3.841   6.890
 1933TIP3    H227359   0.327   3.780   6.935
 1934TIP3   OH227360   0.725   3.856   6.922
 1934TIP3    H127361   0.815   3.891   6.915
 1934TIP3    H227362   0.721   3.833   7.015
 1935TIP3   OH227363   1.294   3.858   7.086
 1935TIP3    H127364   1.291   3.869   6.990
 1935TIP3    H227365   1.258   3.766   7.098
 1936TIP3   OH227366   1.424   3.860   6.653
 1936TIP3    H127367   1.351   3.920   6.633
 1936TIP3    H227368   1.379   3.775   6.672
 1937TIP3   OH227369   0.834   4.059   6.608
 1937TIP3    H127370   0.865   4.000   6.679
 1937TIP3    H227371   0.846   4.145   6.654
 1938TIP3   OH227372   1.706   5.514   6.716
 1938TIP3    H127373   1.677   5.440   6.661
 1938TIP3    H227374   1.696   5.590   6.658
 1939TIP3   OH227375   0.261   3.918   7.892
 1939TIP3    H127376   0.228   3.834   7.929
 1939TIP3    H227377   0.354   3.913   7.924
 1940TIP3   OH227378   0.467   3.855   8.051
 1940TIP3    H127379   0.555   3.820   8.028
 1940TIP3    H227380   0.427   3.775   8.093
 1941TIP3   OH227381   1.307   3.785   8.067
 1941TIP3    H127382   1.316   3.737   8.152
 1941TIP3    H227383   1.398   3.781   8.032
 1942TIP3   OH227384   1.627   5.389   7.934
 1942TIP3    H127385   1.548   5.375   7.878
 1942TIP3    H227386   1.617   5.484   7.952
 1943TIP3   OH227387   3.072   4.778   6.938
 1943TIP3    H127388   3.071   4.875   6.923
 1943TIP3    H227389   3.005   4.752   6.870
 1944TIP3   OH227390   2.958   4.703   7.279
 1944TIP3    H127391   2.956   4.637   7.350
 1944TIP3    H227392   2.924   4.653   7.203
 1945TIP3   OH227393   2.194   4.668   7.432
 1945TIP3    H127394   2.201   4.602   7.505
 1945TIP3    H227395   2.267   4.727   7.457
 1946TIP3   OH227396   3.327   4.998   7.107
 1946TIP3    H127397   3.284   4.927   7.155
 1946TIP3    H227398   3.329   5.068   7.174
 1947TIP3   OH227399   2.286   5.114   7.285
 1947TIP3    H127400   2.254   5.028   7.251
 1947TIP3    H227401   2.382   5.097   7.290
 1948TIP3   OH227402   1.949   4.474   6.828
 1948TIP3    H127403   1.897   4.558   6.828
 1948TIP3    H227404   1.891   4.417   6.775
 1949TIP3   OH227405   2.018   4.685   7.035
 1949TIP3    H127406   2.047   4.618   7.100
 1949TIP3    H227407   2.096   4.716   6.987
 1950TIP3   OH227408   3.039   5.513   7.131
 1950TIP3    H127409   3.103   5.443   7.103
 1950TIP3    H227410   3.017   5.480   7.218
 1951TIP3   OH227411   2.795   4.942   7.325
 1951TIP3    H127412   2.829   4.880   7.259
 1951TIP3    H227413   2.876   4.958   7.378
 1952TIP3   OH227414   3.655   4.108   7.399
 1952TIP3    H127415   3.673   4.168   7.476
 1952TIP3    H227416   3.711   4.151   7.333
 1953TIP3   OH227417   3.109   4.388   7.358
 1953TIP3    H127418   3.129   4.294   7.357
 1953TIP3    H227419   3.102   4.405   7.261
 1954TIP3   OH227420   2.420   4.199   7.079
 1954TIP3    H127421   2.437   4.281   7.031
 1954TIP3    H227422   2.384   4.139   7.010
 1955TIP3   OH227423   3.196   4.205   6.919
 1955TIP3    H127424   3.265   4.175   6.982
 1955TIP3    H227425   3.250   4.262   6.861
 1956TIP3   OH227426   2.093   4.443   7.150
 1956TIP3    H127427   2.152   4.385   7.204
 1956TIP3    H227428   2.086   4.388   7.072
 1957TIP3   OH227429   2.600   4.594   7.083
 1957TIP3    H127430   2.668   4.538   7.124
 1957TIP3    H227431   2.551   4.526   7.033
 1958TIP3   OH227432   3.699   4.249   7.626
 1958TIP3    H127433   3.638   4.325   7.616
 1958TIP3    H227434   3.703   4.240   7.722
 1959TIP3   OH227435   2.314   4.088   7.483
 1959TIP3    H127436   2.286   4.145   7.409
 1959TIP3    H227437   2.246   4.111   7.551
 1960TIP3   OH227438   3.044   5.038   6.838
 1960TIP3    H127439   3.013   5.008   6.750
 1960TIP3    H227440   3.012   5.131   6.842
 1961TIP3   OH227441   2.566   4.852   7.508
 1961TIP3    H127442   2.495   4.917   7.528
 1961TIP3    H227443   2.636   4.912   7.478
 1962TIP3   OH227444   3.372   4.141   7.119
 1962TIP3    H127445   3.359   4.062   7.170
 1962TIP3    H227446   3.445   4.184   7.168
 1963TIP3   OH227447   2.268   4.279   7.281
 1963TIP3    H127448   2.334   4.341   7.319
 1963TIP3    H227449   2.323   4.231   7.214
 1964TIP3   OH227450   2.410   5.052   7.589
 1964TIP3    H127451   2.406   5.143   7.555
 1964TIP3    H227452   2.321   5.045   7.634
 1965TIP3   OH227453   3.379   5.181   7.344
 1965TIP3    H127454   3.283   5.192   7.356
 1965TIP3    H227455   3.406   5.273   7.324
 1966TIP3   OH227456   3.409   4.009   7.478
 1966TIP3    H127457   3.340   4.076   7.476
 1966TIP3    H227458   3.484   4.052   7.431
 1967TIP3   OH227459   2.713   3.821   7.236
 1967TIP3    H127460   2.693   3.726   7.221
 1967TIP3    H227461   2.622   3.853   7.258
 1968TIP3   OH227462   3.206   5.359   7.004
 1968TIP3    H127463   3.248   5.288   6.953
 1968TIP3    H227464   3.247   5.438   6.964
 1969TIP3   OH227465   3.328   5.153   6.855
 1969TIP3    H127466   3.298   5.084   6.793
 1969TIP3    H227467   3.328   5.102   6.938
 1970TIP3   OH227468   3.488   5.011   7.704
 1970TIP3    H127469   3.503   4.946   7.632
 1970TIP3    H227470   3.508   5.096   7.661
 1971TIP3   OH227471   2.965   4.722   6.712
 1971TIP3    H127472   2.881   4.749   6.665
 1971TIP3    H227473   3.008   4.708   6.625
 1972TIP3   OH227474   3.677   4.642   7.509
 1972TIP3    H127475   3.611   4.714   7.513
 1972TIP3    H227476   3.725   4.666   7.428
 1973TIP3   OH227477   3.284   4.723   6.775
 1973TIP3    H127478   3.206   4.746   6.831
 1973TIP3    H227479   3.328   4.655   6.828
 1974TIP3   OH227480   3.274   4.538   7.685
 1974TIP3    H127481   3.276   4.620   7.738
 1974TIP3    H227482   3.212   4.568   7.616
 1975TIP3   OH227483   2.440   4.787   6.964
 1975TIP3    H127484   2.416   4.752   6.876
 1975TIP3    H227485   2.508   4.722   6.996
 1976TIP3   OH227486   2.576   5.126   7.232
 1976TIP3    H127487   2.575   5.074   7.151
 1976TIP3    H227488   2.654   5.090   7.278
 1977TIP3   OH227489   2.475   4.663   7.328
 1977TIP3    H127490   2.534   4.674   7.251
 1977TIP3    H227491   2.514   4.728   7.391
 1978TIP3   OH227492   3.118   5.219   7.401
 1978TIP3    H127493   3.089   5.283   7.467
 1978TIP3    H227494   3.092   5.134   7.443
 1979TIP3   OH227495   2.572   5.105   7.800
 1979TIP3    H127496   2.531   5.180   7.849
 1979TIP3    H227497   2.504   5.086   7.730
 1980TIP3   OH227498   3.175   4.633   6.541
 1980TIP3    H127499   3.224   4.662   6.621
 1980TIP3    H227500   3.205   4.694   6.472
 1981TIP3   OH227501   2.265   4.721   7.716
 1981TIP3    H127502   2.270   4.788   7.788
 1981TIP3    H227503   2.172   4.731   7.694
 1982TIP3   OH227504   2.941   5.313   6.885
 1982TIP3    H127505   2.984   5.344   6.966
 1982TIP3    H227506   2.884   5.387   6.860
 1983TIP3   OH227507   2.396   5.309   7.875
 1983TIP3    H127508   2.391   5.299   7.778
 1983TIP3    H227509   2.303   5.296   7.901
 1984TIP3   OH227510   2.330   4.696   6.734
 1984TIP3    H127511   2.323   4.771   6.673
 1984TIP3    H227512   2.279   4.626   6.694
 1985TIP3   OH227513   3.656   5.250   6.370
 1985TIP3    H127514   3.664   5.346   6.374
 1985TIP3    H227515   3.746   5.222   6.355
 1986TIP3   OH227516   1.949   4.932   7.615
 1986TIP3    H127517   1.904   4.925   7.529
 1986TIP3    H227518   1.957   4.838   7.637
 1987TIP3   OH227519   1.926   5.206   7.294
 1987TIP3    H127520   2.022   5.195   7.290
 1987TIP3    H227521   1.918   5.288   7.345
 1988TIP3   OH227522   3.749   5.277   7.859
 1988TIP3    H127523   3.738   5.181   7.860
 1988TIP3    H227524   3.663   5.301   7.903
 1989TIP3   OH227525   2.845   5.231   7.749
 1989TIP3    H127526   2.851   5.315   7.801
 1989TIP3    H227527   2.758   5.195   7.774
 1990TIP3   OH227528   2.889   5.606   6.728
 1990TIP3    H127529   2.879   5.597   6.632
 1990TIP3    H227530   2.891   5.702   6.744
 1991TIP3   OH227531   2.252   5.492   6.911
 1991TIP3    H127532   2.268   5.451   6.999
 1991TIP3    H227533   2.168   5.452   6.887
 1992TIP3   OH227534   3.187   5.526   6.428
 1992TIP3    H127535   3.238   5.456   6.379
 1992TIP3    H227536   3.200   5.498   6.520
 1993TIP3   OH227537   3.163   5.521   6.705
 1993TIP3    H127538   3.067   5.527   6.723
 1993TIP3    H227539   3.189   5.446   6.761
 1994TIP3   OH227540   3.463   4.424   7.908
 1994TIP3    H127541   3.416   4.469   7.836
 1994TIP3    H227542   3.463   4.332   7.878
 1995TIP3   OH227543   2.178   5.065   7.709
 1995TIP3    H127544   2.200   5.028   7.797
 1995TIP3    H227545   2.091   5.025   7.688
 1996TIP3   OH227546   2.448   3.913   7.303
 1996TIP3    H127547   2.357   3.899   7.268
 1996TIP3    H227548   2.431   3.996   7.352
 1997TIP3   OH227549   2.910   3.876   7.638
 1997TIP3    H127550   2.949   3.838   7.720
 1997TIP3    H227551   2.813   3.867   7.656
 1998TIP3   OH227552   3.239   4.263   7.730
 1998TIP3    H127553   3.184   4.242   7.809
 1998TIP3    H227554   3.221   4.355   7.708
 1999TIP3   OH227555   2.454   4.408   7.427
 1999TIP3    H127556   2.382   4.408   7.493
 1999TIP3    H227557   2.452   4.501   7.394
 2000TIP3   OH227558   2.447   4.427   6.912
 2000TIP3    H127559   2.361   4.384   6.900
 2000TIP3    H227560   2.495   4.394   6.835
 2001TIP3   OH227561   2.998   4.467   6.787
 2001TIP3    H127562   2.965   4.556   6.761
 2001TIP3    H227563   3.074   4.457   6.728
 2002TIP3   OH227564   2.909   4.493   7.941
 2002TIP3    H127565   2.857   4.414   7.967
 2002TIP3    H227566   2.995   4.478   7.982
 2003TIP3   OH227567   3.106   4.418   7.077
 2003TIP3    H127568   3.078   4.475   7.003
 2003TIP3    H227569   3.117   4.334   7.028
 2004TIP3   OH227570   2.219   4.435   7.599
 2004TIP3    H127571   2.226   4.475   7.687
 2004TIP3    H227572   2.174   4.351   7.619
 2005TIP3   OH227573   1.888   4.151   6.993
 2005TIP3    H127574   1.951   4.138   7.066
 2005TIP3    H227575   1.928   4.104   6.917
 2006TIP3   OH227576   2.014   4.224   6.541
 2006TIP3    H127577   2.062   4.274   6.473
 2006TIP3    H227578   1.939   4.281   6.562
 2007TIP3   OH227579   3.028   4.579   7.534
 2007TIP3    H127580   3.065   4.511   7.473
 2007TIP3    H227581   2.981   4.525   7.600
 2008TIP3   OH227582   2.706   4.171   7.017
 2008TIP3    H127583   2.614   4.177   7.048
 2008TIP3    H227584   2.756   4.163   7.098
 2009TIP3   OH227585   2.195   4.294   6.903
 2009TIP3    H127586   2.110   4.309   6.858
 2009TIP3    H227587   2.224   4.213   6.852
 2010TIP3   OH227588   3.143   4.083   7.342
 2010TIP3    H127589   3.081   4.113   7.413
 2010TIP3    H227590   3.099   4.090   7.256
 2011TIP3   OH227591   3.468   5.664   7.977
 2011TIP3    H127592   3.496   5.699   7.891
 2011TIP3    H227593   3.541   5.695   8.033
 2012TIP3   OH227594   2.237   4.910   7.931
 2012TIP3    H127595   2.307   4.937   7.992
 2012TIP3    H227596   2.158   4.921   7.987
 2013TIP3   OH227597   2.837   4.451   7.208
 2013TIP3    H127598   2.895   4.399   7.152
 2013TIP3    H227599   2.821   4.397   7.286
 2014TIP3   OH227600   2.338   4.068   6.843
 2014TIP3    H127601   2.307   3.975   6.848
 2014TIP3    H227602   2.419   4.057   6.792
 2015TIP3   OH227603   2.700   4.284   7.449
 2015TIP3    H127604   2.617   4.337   7.457
 2015TIP3    H227605   2.754   4.321   7.522
 2016TIP3   OH227606   2.749   4.934   6.625
 2016TIP3    H127607   2.690   4.868   6.583
 2016TIP3    H227608   2.735   4.917   6.718
 2017TIP3   OH227609   3.477   4.826   7.498
 2017TIP3    H127610   3.534   4.875   7.435
 2017TIP3    H227611   3.391   4.832   7.451
 2018TIP3   OH227612   3.144   4.190   6.430
 2018TIP3    H127613   3.050   4.202   6.422
 2018TIP3    H227614   3.176   4.275   6.469
 2019TIP3   OH227615   2.908   4.933   7.741
 2019TIP3    H127616   2.872   4.891   7.820
 2019TIP3    H227617   2.883   5.025   7.752
 2020TIP3   OH227618   3.218   4.376   6.600
 2020TIP3    H127619   3.307   4.366   6.639
 2020TIP3    H227620   3.221   4.462   6.552
 2021TIP3   OH227621   2.265   4.839   7.193
 2021TIP3    H127622   2.341   4.840   7.131
 2021TIP3    H227623   2.279   4.759   7.246
 2022TIP3   OH227624   2.973   5.052   6.527
 2022TIP3    H127625   2.932   5.136   6.555
 2022TIP3    H227626   2.894   4.992   6.538
 2023TIP3   OH227627   1.969   4.686   7.725
 2023TIP3    H127628   1.986   4.642   7.810
 2023TIP3    H227629   1.907   4.625   7.681
 2024TIP3   OH227630   2.669   4.642   7.942
 2024TIP3    H127631   2.638   4.613   7.855
 2024TIP3    H227632   2.762   4.612   7.940
 2025TIP3   OH227633   3.138   5.176   7.736
 2025TIP3    H127634   3.045   5.194   7.713
 2025TIP3    H227635   3.135   5.205   7.829
 2026TIP3   OH227636   3.704   4.980   7.856
 2026TIP3    H127637   3.615   5.002   7.820
 2026TIP3    H227638   3.759   4.976   7.775
 2027TIP3   OH227639   3.537   5.276   6.616
 2027TIP3    H127640   3.497   5.195   6.649
 2027TIP3    H227641   3.561   5.254   6.525
 2028TIP3   OH227642   3.255   4.759   7.326
 2028TIP3    H127643   3.161   4.737   7.315
 2028TIP3    H227644   3.298   4.682   7.283
 2029TIP3   OH227645   2.503   5.193   6.940
 2029TIP3    H127646   2.556   5.269   6.911
 2029TIP3    H227647   2.418   5.215   6.901
 2030TIP3   OH227648   2.653   4.957   6.902
 2030TIP3    H127649   2.620   5.049   6.895
 2030TIP3    H227650   2.573   4.910   6.929
 2031TIP3   OH227651   2.694   5.376   7.528
 2031TIP3    H127652   2.739   5.457   7.500
 2031TIP3    H227653   2.755   5.343   7.596
 2032TIP3   OH227654   2.516   5.457   6.845
 2032TIP3    H127655   2.420   5.471   6.854
 2032TIP3    H227656   2.552   5.542   6.876
 2033TIP3   OH227657   3.047   4.977   7.491
 2033TIP3    H127658   3.013   4.957   7.581
 2033TIP3    H227659   3.110   4.906   7.474
 2034TIP3   OH227660   3.274   5.082   6.401
 2034TIP3    H127661   3.306   5.034   6.480
 2034TIP3    H227662   3.179   5.065   6.410
 2035TIP3   OH227663   3.327   5.435   7.740
 2035TIP3    H127664   3.259   5.385   7.691
 2035TIP3    H227665   3.346   5.505   7.674
 2036TIP3   OH227666   2.135   4.160   7.679
 2036TIP3    H127667   2.044   4.195   7.676
 2036TIP3    H227668   2.123   4.075   7.723
 2037TIP3   OH227669   3.356   4.947   6.626
 2037TIP3    H127670   3.333   4.868   6.678
 2037TIP3    H227671   3.452   4.951   6.643
 2038TIP3   OH227672   2.095   5.339   7.521
 2038TIP3    H127673   2.124   5.247   7.522
 2038TIP3    H227674   2.121   5.368   7.610
 2039TIP3   OH227675   3.010   4.133   7.569
 2039TIP3    H127676   3.077   4.146   7.637
 2039TIP3    H227677   2.967   4.050   7.599
 2040TIP3   OH227678   3.077   4.101   6.682
 2040TIP3    H127679   3.111   4.140   6.601
 2040TIP3    H227680   3.138   4.137   6.748
 2041TIP3   OH227681   2.855   5.315   6.571
 2041TIP3    H127682   2.765   5.355   6.570
 2041TIP3    H227683   2.902   5.363   6.502
 2042TIP3   OH227684   2.860   4.373   7.684
 2042TIP3    H127685   2.867   4.429   7.764
 2042TIP3    H227686   2.926   4.304   7.696
 2043TIP3   OH227687   2.890   3.976   6.855
 2043TIP3    H127688   2.856   4.042   6.917
 2043TIP3    H227689   2.959   4.029   6.808
 2044TIP3   OH227690   2.589   5.420   6.571
 2044TIP3    H127691   2.601   5.498   6.514
 2044TIP3    H227692   2.562   5.451   6.658
 2045TIP3   OH227693   3.478   4.159   7.769
 2045TIP3    H127694   3.385   4.190   7.756
 2045TIP3    H227695   3.508   4.158   7.677
 2046TIP3   OH227696   3.337   4.538   7.171
 2046TIP3    H127697   3.256   4.493   7.141
 2046TIP3    H227698   3.386   4.469   7.221
 2047TIP3   OH227699   3.445   5.464   7.337
 2047TIP3    H127700   3.436   5.532   7.268
 2047TIP3    H227701   3.541   5.469   7.354
 2048TIP3   OH227702   2.195   3.876   7.217
 2048TIP3    H127703   2.174   3.878   7.120
 2048TIP3    H227704   2.153   3.791   7.242
 2049TIP3   OH227705   2.087   5.267   6.829
 2049TIP3    H127706   2.005   5.316   6.831
 2049TIP3    H227707   2.141   5.316   6.764
 2050TIP3   OH227708   2.011   5.533   7.961
 2050TIP3    H127709   2.071   5.513   8.036
 2050TIP3    H227710   1.969   5.447   7.943
 2051TIP3   OH227711   2.478   5.422   8.122
 2051TIP3    H127712   2.556   5.375   8.154
 2051TIP3    H227713   2.477   5.397   8.027
 2052TIP3   OH227714   3.128   5.264   7.995
 2052TIP3    H127715   3.097   5.174   8.022
 2052TIP3    H227716   3.206   5.275   8.052
 2053TIP3   OH227717   3.351   5.356   6.285
 2053TIP3    H127718   3.374   5.271   6.327
 2053TIP3    H227719   3.425   5.378   6.227
 2054TIP3   OH227720   2.002   4.907   8.061
 2054TIP3    H127721   2.020   4.818   8.024
 2054TIP3    H227722   1.930   4.936   8.003
 2055TIP3   OH227723   2.674   4.908   7.996
 2055TIP3    H127724   2.639   4.939   7.911
 2055TIP3    H227725   2.682   4.810   7.986
 2056TIP3   OH227726   3.243   4.895   7.738
 2056TIP3    H127727   3.322   4.954   7.731
 2056TIP3    H227728   3.173   4.962   7.742
 2057TIP3   OH227729   2.096   4.633   8.000
 2057TIP3    H127730   2.134   4.546   7.987
 2057TIP3    H227731   2.068   4.633   8.092
 2058TIP3   OH227732   2.524   4.743   6.494
 2058TIP3    H127733   2.518   4.690   6.572
 2058TIP3    H227734   2.588   4.688   6.443
 2059TIP3   OH227735   2.483   4.528   7.734
 2059TIP3    H127736   2.425   4.600   7.760
 2059TIP3    H227737   2.523   4.564   7.653
 2060TIP3   OH227738   2.657   4.538   6.310
 2060TIP3    H127739   2.641   4.554   6.218
 2060TIP3    H227740   2.741   4.587   6.331
 2061TIP3   OH227741   2.990   4.784   8.072
 2061TIP3    H127742   3.086   4.783   8.054
 2061TIP3    H227743   2.974   4.706   8.126
 2062TIP3   OH227744   3.596   4.802   6.269
 2062TIP3    H127745   3.579   4.761   6.185
 2062TIP3    H227746   3.609   4.895   6.248
 2063TIP3   OH227747   2.524   4.266   7.838
 2063TIP3    H127748   2.536   4.194   7.774
 2063TIP3    H227749   2.520   4.347   7.783
 2064TIP3   OH227750   2.566   4.101   7.593
 2064TIP3    H127751   2.614   4.151   7.523
 2064TIP3    H227752   2.475   4.096   7.554
 2065TIP3   OH227753   2.718   4.651   7.619
 2065TIP3    H127754   2.794   4.635   7.561
 2065TIP3    H227755   2.682   4.735   7.586
 2066TIP3   OH227756   3.158   4.424   8.128
 2066TIP3    H127757   3.183   4.334   8.099
 2066TIP3    H227758   3.243   4.470   8.114
 2067TIP3   OH227759   3.292   4.707   7.934
 2067TIP3    H127760   3.266   4.778   7.871
 2067TIP3    H227761   3.387   4.703   7.912
 2068TIP3   OH227762   2.371   4.389   8.036
 2068TIP3    H127763   2.293   4.333   8.012
 2068TIP3    H227764   2.435   4.356   7.969
 2069TIP3   OH227765   2.644   3.847   7.631
 2069TIP3    H127766   2.624   3.943   7.626
 2069TIP3    H227767   2.565   3.810   7.587
 2070TIP3   OH227768   2.771   4.280   7.998
 2070TIP3    H127769   2.736   4.257   8.086
 2070TIP3    H227770   2.694   4.261   7.941
 2071TIP3   OH227771   3.043   4.198   7.907
 2071TIP3    H127772   2.946   4.198   7.914
 2071TIP3    H227773   3.070   4.129   7.970
 2072TIP3   OH227774   3.197   4.058   8.096
 2072TIP3    H127775   3.196   3.959   8.097
 2072TIP3    H227776   3.175   4.084   8.188
 2073TIP3   OH227777   2.180   4.185   8.007
 2073TIP3    H127778   2.203   4.111   7.948
 2073TIP3    H227779   2.170   4.138   8.093
 2074TIP3   OH227780   2.665   3.785   7.904
 2074TIP3    H127781   2.733   3.714   7.902
 2074TIP3    H227782   2.653   3.801   7.808
 2075TIP3   OH227783   2.699   3.947   8.113
 2075TIP3    H127784   2.684   3.897   8.029
 2075TIP3    H227785   2.641   4.024   8.102
 2076TIP3   OH227786   2.651   5.635   6.423
 2076TIP3    H127787   2.745   5.651   6.442
 2076TIP3    H227788   2.626   5.705   6.363
 2077TIP3   OH227789   1.880   5.634   6.876
 2077TIP3    H127790   1.809   5.585   6.830
 2077TIP3    H227791   1.910   5.570   6.943
 2078TIP3   OH227792   1.963   5.447   7.062
 2078TIP3    H127793   1.928   5.359   7.084
 2078TIP3    H227794   1.986   5.481   7.150
 2079TIP3   OH227795   3.717   5.528   7.357
 2079TIP3    H127796   3.720   5.544   7.453
 2079TIP3    H227797   3.788   5.586   7.326
 2080TIP3   OH227798   3.677   5.486   7.651
 2080TIP3    H127799   3.628   5.410   7.613
 2080TIP3    H227800   3.725   5.441   7.723
 2081TIP3   OH227801   3.520   5.059   8.118
 2081TIP3    H127802   3.430   5.057   8.156
 2081TIP3    H227803   3.557   5.139   8.160
 2082TIP3   OH227804   3.649   4.891   6.663
 2082TIP3    H127805   3.735   4.932   6.680
 2082TIP3    H227806   3.650   4.819   6.729
 2083TIP3   OH227807   3.690   4.695   6.847
 2083TIP3    H127808   3.613   4.650   6.888
 2083TIP3    H227809   3.747   4.713   6.925
 2084TIP3   OH227810   3.662   4.970   7.348
 2084TIP3    H127811   3.744   4.932   7.311
 2084TIP3    H227812   3.677   5.065   7.331
 2085TIP3   OH227813   3.518   5.260   7.576
 2085TIP3    H127814   3.449   5.294   7.635
 2085TIP3    H227815   3.463   5.220   7.505
 2086TIP3   OH227816   3.469   4.546   6.906
 2086TIP3    H127817   3.450   4.452   6.904
 2086TIP3    H227818   3.434   4.570   6.994
 2087TIP3   OH227819   1.970   4.753   7.311
 2087TIP3    H127820   1.989   4.750   7.215
 2087TIP3    H227821   2.059   4.740   7.349
 2088TIP3   OH227822   3.554   4.744   7.878
 2088TIP3    H127823   3.615   4.668   7.888
 2088TIP3    H227824   3.614   4.821   7.875
 2089TIP3   OH227825   3.704   4.533   7.941
 2089TIP3    H127826   3.616   4.492   7.924
 2089TIP3    H227827   3.762   4.455   7.933
 2090TIP3   OH227828   3.474   4.150   6.255
 2090TIP3    H127829   3.534   4.108   6.316
 2090TIP3    H227830   3.389   4.108   6.275
 2091TIP3   OH227831   3.437   4.306   6.753
 2091TIP3    H127832   3.464   4.212   6.766
 2091TIP3    H227833   3.516   4.346   6.716
 2092TIP3   OH227834   3.499   4.360   7.297
 2092TIP3    H127835   3.595   4.384   7.295
 2092TIP3    H227836   3.480   4.374   7.391
 2093TIP3   OH227837   3.506   4.432   7.575
 2093TIP3    H127838   3.418   4.461   7.608
 2093TIP3    H227839   3.549   4.518   7.553
 2094TIP3   OH227840   1.931   4.285   7.926
 2094TIP3    H127841   2.025   4.265   7.947
 2094TIP3    H227842   1.885   4.204   7.957
 2095TIP3   OH227843   3.734   3.838   8.108
 2095TIP3    H127844   3.768   3.771   8.048
 2095TIP3    H227845   3.744   3.920   8.057
 2096TIP3   OH227846   3.502   4.035   6.758
 2096TIP3    H127847   3.522   3.988   6.841
 2096TIP3    H227848   3.441   3.972   6.712
 2097TIP3   OH227849   2.052   4.115   7.211
 2097TIP3    H127850   2.096   4.032   7.240
 2097TIP3    H227851   2.105   4.183   7.254
 2098TIP3   OH227852   1.879   4.416   7.316
 2098TIP3    H127853   1.935   4.389   7.242
 2098TIP3    H227854   1.924   4.496   7.346
 2099TIP3   OH227855   3.684   4.049   7.945
 2099TIP3    H127856   3.590   4.075   7.941
 2099TIP3    H227857   3.689   3.994   7.865
 2100TIP3   OH227858   1.915   4.048   6.730
 2100TIP3    H127859   1.821   4.057   6.711
 2100TIP3    H227860   1.957   4.085   6.650
 2101TIP3   OH227861   3.391   5.536   6.918
 2101TIP3    H127862   3.459   5.506   6.856
 2101TIP3    H227863   3.442   5.586   6.983
 2102TIP3   OH227864   1.911   3.907   7.554
 2102TIP3    H127865   1.844   3.888   7.622
 2102TIP3    H227866   1.865   3.974   7.499
 2103TIP3   OH227867   2.134   5.227   7.971
 2103TIP3    H127868   2.050   5.249   7.928
 2103TIP3    H227869   2.107   5.221   8.064
 2104TIP3   OH227870   2.424   5.327   7.598
 2104TIP3    H127871   2.390   5.413   7.570
 2104TIP3    H227872   2.517   5.336   7.567
 2105TIP3   OH227873   2.856   5.469   7.889
 2105TIP3    H127874   2.871   5.435   7.980
 2105TIP3    H227875   2.946   5.499   7.865
 2106TIP3   OH227876   3.086   5.596   7.819
 2106TIP3    H127877   3.160   5.538   7.795
 2106TIP3    H227878   3.123   5.639   7.899
 2107TIP3   OH227879   3.587   3.857   7.729
 2107TIP3    H127880   3.504   3.887   7.688
 2107TIP3    H227881   3.604   3.776   7.677
 2108TIP3   OH227882   2.167   5.651   7.598
 2108TIP3    H127883   2.094   5.700   7.558
 2108TIP3    H227884   2.135   5.631   7.687
 2109TIP3   OH227885   2.414   5.609   7.505
 2109TIP3    H127886   2.324   5.623   7.544
 2109TIP3    H227887   2.408   5.668   7.427
 2110TIP3   OH227888   2.884   5.600   7.421
 2110TIP3    H127889   2.838   5.656   7.357
 2110TIP3    H227890   2.898   5.663   7.495
 2111TIP3   OH227891   3.114   5.481   7.523
 2111TIP3    H127892   3.027   5.508   7.488
 2111TIP3    H227893   3.161   5.566   7.514
 2112TIP3   OH227894   3.371   5.637   7.546
 2112TIP3    H127895   3.364   5.733   7.523
 2112TIP3    H227896   3.394   5.600   7.459
 2113TIP3   OH227897   2.112   5.516   7.291
 2113TIP3    H127898   2.105   5.470   7.378
 2113TIP3    H227899   2.194   5.478   7.253
 2114TIP3   OH227900   2.320   5.387   7.157
 2114TIP3    H127901   2.303   5.293   7.179
 2114TIP3    H227902   2.406   5.402   7.203
 2115TIP3   OH227903   2.580   5.436   7.245
 2115TIP3    H127904   2.597   5.344   7.218
 2115TIP3    H227905   2.585   5.429   7.341
 2116TIP3   OH227906   2.919   4.008   7.138
 2116TIP3    H127907   2.846   3.947   7.160
 2116TIP3    H227908   2.980   3.954   7.084
 2117TIP3   OH227909   3.439   3.806   7.167
 2117TIP3    H127910   3.503   3.863   7.116
 2117TIP3    H227911   3.353   3.842   7.139
 2118TIP3   OH227912   3.606   3.928   6.996
 2118TIP3    H127913   3.674   3.873   6.951
 2118TIP3    H227914   3.656   4.012   7.008
 2119TIP3   OH227915   2.162   3.863   6.944
 2119TIP3    H127916   2.083   3.843   6.891
 2119TIP3    H227917   2.209   3.778   6.937
 2120TIP3   OH227918   2.611   3.856   6.922
 2120TIP3    H127919   2.701   3.891   6.914
 2120TIP3    H227920   2.605   3.834   7.015
 2121TIP3   OH227921   3.170   3.859   7.089
 2121TIP3    H127922   3.179   3.869   6.992
 2121TIP3    H227923   3.147   3.764   7.095
 2122TIP3   OH227924   3.311   3.860   6.658
 2122TIP3    H127925   3.239   3.919   6.630
 2122TIP3    H227926   3.263   3.775   6.669
 2123TIP3   OH227927   2.027   5.438   6.616
 2123TIP3    H127928   1.966   5.436   6.543
 2123TIP3    H227929   2.030   5.532   6.636
 2124TIP3   OH227930   2.919   5.567   6.448
 2124TIP3    H127931   3.013   5.588   6.433
 2124TIP3    H227932   2.902   5.515   6.369
 2125TIP3   OH227933   3.589   5.516   6.721
 2125TIP3    H127934   3.568   5.438   6.665
 2125TIP3    H227935   3.582   5.589   6.655
 2126TIP3   OH227936   2.151   3.917   7.889
 2126TIP3    H127937   2.113   3.837   7.931
 2126TIP3    H227938   2.243   3.913   7.925
 2127TIP3   OH227939   2.352   3.856   8.053
 2127TIP3    H127940   2.440   3.821   8.028
 2127TIP3    H227941   2.314   3.776   8.094
 2128TIP3   OH227942   2.209   5.523   6.316
 2128TIP3    H127943   2.192   5.559   6.403
 2128TIP3    H227944   2.292   5.474   6.329
 2129TIP3   OH227945   3.192   3.785   8.067
 2129TIP3    H127946   3.202   3.737   8.152
 2129TIP3    H227947   3.284   3.781   8.032
 2130TIP3   OH227948   3.513   5.389   7.934
 2130TIP3    H127949   3.433   5.375   7.878
 2130TIP3    H227950   3.502   5.484   7.952
 2131TIP3   OH227951   4.956   4.777   6.932
 2131TIP3    H127952   4.959   4.874   6.925
 2131TIP3    H227953   4.884   4.756   6.873
 2132TIP3   OH227954   4.842   4.703   7.278
 2132TIP3    H127955   4.842   4.638   7.350
 2132TIP3    H227956   4.808   4.652   7.203
 2133TIP3   OH227957   4.079   4.670   7.434
 2133TIP3    H127958   4.087   4.602   7.504
 2133TIP3    H227959   4.153   4.727   7.456
 2134TIP3   OH227960   5.212   4.997   7.107
 2134TIP3    H127961   5.170   4.926   7.156
 2134TIP3    H227962   5.214   5.068   7.174
 2135TIP3   OH227963   4.171   5.114   7.286
 2135TIP3    H127964   4.140   5.028   7.252
 2135TIP3    H227965   4.267   5.096   7.290
 2136TIP3   OH227966   3.904   4.690   7.042
 2136TIP3    H127967   3.933   4.612   7.094
 2136TIP3    H227968   3.979   4.706   6.983
 2137TIP3   OH227969   4.924   5.513   7.131
 2137TIP3    H127970   4.989   5.444   7.103
 2137TIP3    H227971   4.903   5.480   7.219
 2138TIP3   OH227972   4.681   4.943   7.325
 2138TIP3    H127973   4.715   4.880   7.259
 2138TIP3    H227974   4.761   4.958   7.378
 2139TIP3   OH227975   5.541   4.108   7.399
 2139TIP3    H127976   5.558   4.168   7.475
 2139TIP3    H227977   5.597   4.151   7.333
 2140TIP3   OH227978   4.997   4.389   7.357
 2140TIP3    H127979   5.014   4.293   7.357
 2140TIP3    H227980   4.987   4.404   7.261
 2141TIP3   OH227981   4.309   4.198   7.080
 2141TIP3    H127982   4.322   4.281   7.031
 2141TIP3    H227983   4.270   4.140   7.011
 2142TIP3   OH227984   5.081   4.207   6.917
 2142TIP3    H127985   5.148   4.175   6.982
 2142TIP3    H227986   5.139   4.261   6.859
 2143TIP3   OH227987   3.971   4.439   7.152
 2143TIP3    H127988   4.038   4.385   7.199
 2143TIP3    H227989   3.984   4.406   7.063
 2144TIP3   OH227990   4.490   4.595   7.080
 2144TIP3    H127991   4.553   4.537   7.125
 2144TIP3    H227992   4.435   4.528   7.034
 2145TIP3   OH227993   5.585   4.250   7.626
 2145TIP3    H127994   5.523   4.326   7.617
 2145TIP3    H227995   5.588   4.240   7.722
 2146TIP3   OH227996   4.199   4.088   7.483
 2146TIP3    H127997   4.171   4.145   7.408
 2146TIP3    H227998   4.131   4.111   7.551
 2147TIP3   OH227999   4.930   5.038   6.838
 2147TIP3    H128000   4.900   5.010   6.752
 2147TIP3    H228001   4.898   5.131   6.846
 2148TIP3   OH228002   4.451   4.852   7.508
 2148TIP3    H128003   4.380   4.917   7.529
 2148TIP3    H228004   4.522   4.912   7.479
 2149TIP3   OH228005   5.261   4.142   7.115
 2149TIP3    H128006   5.241   4.064   7.168
 2149TIP3    H228007   5.330   4.185   7.168
 2150TIP3   OH228008   4.155   4.276   7.283
 2150TIP3    H128009   4.219   4.343   7.317
 2150TIP3    H228010   4.209   4.232   7.214
 2151TIP3   OH228011   4.296   5.052   7.589
 2151TIP3    H128012   4.291   5.143   7.555
 2151TIP3    H228013   4.207   5.045   7.634
 2152TIP3   OH228014   3.905   5.016   6.669
 2152TIP3    H128015   3.875   5.045   6.582
 2152TIP3    H228016   3.910   5.099   6.721
 2153TIP3   OH228017   5.265   5.181   7.344
 2153TIP3    H128018   5.168   5.192   7.356
 2153TIP3    H228019   5.292   5.273   7.325
 2154TIP3   OH228020   5.297   4.009   7.483
 2154TIP3    H128021   5.224   4.073   7.475
 2154TIP3    H228022   5.368   4.051   7.431
 2155TIP3   OH228023   4.594   3.821   7.231
 2155TIP3    H128024   4.580   3.725   7.223
 2155TIP3    H228025   4.506   3.852   7.260
 2156TIP3   OH228026   5.091   5.360   7.005
 2156TIP3    H128027   5.134   5.288   6.954
 2156TIP3    H228028   5.132   5.438   6.963
 2157TIP3   OH228029   5.213   5.155   6.856
 2157TIP3    H128030   5.186   5.084   6.793
 2157TIP3    H228031   5.216   5.103   6.939
 2158TIP3   OH228032   5.377   5.011   7.705
 2158TIP3    H128033   5.387   4.946   7.632
 2158TIP3    H228034   5.393   5.096   7.661
 2159TIP3   OH228035   5.562   4.643   7.509
 2159TIP3    H128036   5.496   4.714   7.513
 2159TIP3    H228037   5.611   4.666   7.428
 2160TIP3   OH228038   5.166   4.723   6.775
 2160TIP3    H128039   5.094   4.746   6.836
 2160TIP3    H228040   5.216   4.655   6.824
 2161TIP3   OH228041   5.161   4.537   7.680
 2161TIP3    H128042   5.163   4.616   7.740
 2161TIP3    H228043   5.096   4.570   7.616
 2162TIP3   OH228044   4.329   4.788   6.965
 2162TIP3    H128045   4.297   4.750   6.880
 2162TIP3    H228046   4.390   4.718   6.998
 2163TIP3   OH228047   4.461   5.127   7.233
 2163TIP3    H128048   4.460   5.074   7.152
 2163TIP3    H228049   4.540   5.090   7.278
 2164TIP3   OH228050   4.363   4.662   7.330
 2164TIP3    H128051   4.419   4.674   7.251
 2164TIP3    H228052   4.401   4.729   7.392
 2165TIP3   OH228053   5.003   5.219   7.401
 2165TIP3    H128054   4.974   5.283   7.467
 2165TIP3    H228055   4.978   5.134   7.443
 2166TIP3   OH228056   4.457   5.105   7.799
 2166TIP3    H128057   4.417   5.180   7.849
 2166TIP3    H228058   4.390   5.086   7.730
 2167TIP3   OH228059   4.151   4.721   7.716
 2167TIP3    H128060   4.156   4.788   7.787
 2167TIP3    H228061   4.057   4.731   7.694
 2168TIP3   OH228062   4.826   5.314   6.887
 2168TIP3    H128063   4.870   5.344   6.967
 2168TIP3    H228064   4.771   5.389   6.863
 2169TIP3   OH228065   4.281   5.309   7.875
 2169TIP3    H128066   4.276   5.299   7.778
 2169TIP3    H228067   4.188   5.296   7.901
 2170TIP3   OH228068   4.224   4.693   6.732
 2170TIP3    H128069   4.202   4.769   6.673
 2170TIP3    H228070   4.162   4.627   6.701
 2171TIP3   OH228071   3.835   4.932   7.615
 2171TIP3    H128072   3.790   4.925   7.529
 2171TIP3    H228073   3.842   4.838   7.637
 2172TIP3   OH228074   3.811   5.207   7.293
 2172TIP3    H128075   3.907   5.195   7.291
 2172TIP3    H228076   3.803   5.288   7.344
 2173TIP3   OH228077   5.634   5.277   7.859
 2173TIP3    H128078   5.623   5.181   7.860
 2173TIP3    H228079   5.549   5.301   7.902
 2174TIP3   OH228080   4.729   5.233   7.746
 2174TIP3    H128081   4.736   5.315   7.800
 2174TIP3    H228082   4.643   5.195   7.774
 2175TIP3   OH228083   4.776   5.607   6.726
 2175TIP3    H128084   4.764   5.602   6.630
 2175TIP3    H228085   4.776   5.703   6.745
 2176TIP3   OH228086   4.137   5.495   6.913
 2176TIP3    H128087   4.154   5.450   6.999
 2176TIP3    H228088   4.054   5.452   6.887
 2177TIP3   OH228089   5.076   5.524   6.428
 2177TIP3    H128090   5.126   5.454   6.382
 2177TIP3    H228091   5.083   5.499   6.522
 2178TIP3   OH228092   5.047   5.518   6.703
 2178TIP3    H128093   4.951   5.526   6.722
 2178TIP3    H228094   5.073   5.446   6.763
 2179TIP3   OH228095   5.351   4.422   7.907
 2179TIP3    H128096   5.301   4.470   7.839
 2179TIP3    H228097   5.348   4.330   7.876
 2180TIP3   OH228098   4.063   5.064   7.710
 2180TIP3    H128099   4.086   5.027   7.798
 2180TIP3    H228100   3.977   5.024   7.688
 2181TIP3   OH228101   4.331   3.912   7.304
 2181TIP3    H128102   4.241   3.899   7.268
 2181TIP3    H228103   4.318   3.995   7.353
 2182TIP3   OH228104   4.795   3.879   7.641
 2182TIP3    H128105   4.835   3.837   7.720
 2182TIP3    H228106   4.698   3.866   7.655
 2183TIP3   OH228107   5.124   4.262   7.729
 2183TIP3    H128108   5.069   4.242   7.809
 2183TIP3    H228109   5.107   4.355   7.707
 2184TIP3   OH228110   4.341   4.408   7.429
 2184TIP3    H128111   4.268   4.407   7.493
 2184TIP3    H228112   4.337   4.500   7.393
 2185TIP3   OH228113   4.336   4.420   6.917
 2185TIP3    H128114   4.243   4.394   6.902
 2185TIP3    H228115   4.376   4.392   6.832
 2186TIP3   OH228116   4.885   4.467   6.786
 2186TIP3    H128117   4.849   4.553   6.762
 2186TIP3    H228118   4.962   4.458   6.728
 2187TIP3   OH228119   4.795   4.491   7.936
 2187TIP3    H128120   4.743   4.414   7.969
 2187TIP3    H228121   4.879   4.482   7.985
 2188TIP3   OH228122   4.992   4.419   7.074
 2188TIP3    H128123   4.967   4.475   6.999
 2188TIP3    H228124   5.004   4.333   7.028
 2189TIP3   OH228125   4.104   4.435   7.599
 2189TIP3    H128126   4.111   4.475   7.687
 2189TIP3    H228127   4.060   4.351   7.619
 2190TIP3   OH228128   3.772   4.148   6.994
 2190TIP3    H128129   3.836   4.140   7.068
 2190TIP3    H228130   3.815   4.104   6.918
 2191TIP3   OH228131   4.913   4.579   7.534
 2191TIP3    H128132   4.951   4.510   7.475
 2191TIP3    H228133   4.867   4.525   7.601
 2192TIP3   OH228134   4.593   4.175   7.016
 2192TIP3    H128135   4.500   4.177   7.047
 2192TIP3    H228136   4.642   4.160   7.099
 2193TIP3   OH228137   4.071   4.334   6.898
 2193TIP3    H128138   3.982   4.337   6.865
 2193TIP3    H228139   4.105   4.247   6.866
 2194TIP3   OH228140   4.435   4.339   6.668
 2194TIP3    H128141   4.531   4.343   6.684
 2194TIP3    H228142   4.414   4.403   6.598
 2195TIP3   OH228143   5.034   4.099   7.341
 2195TIP3    H128144   4.965   4.105   7.411
 2195TIP3    H228145   4.983   4.075   7.262
 2196TIP3   OH228146   5.354   5.664   7.976
 2196TIP3    H128147   5.381   5.703   7.891
 2196TIP3    H228148   5.426   5.695   8.033
 2197TIP3   OH228149   4.123   4.910   7.931
 2197TIP3    H128150   4.193   4.935   7.994
 2197TIP3    H228151   4.044   4.920   7.988
 2198TIP3   OH228152   4.722   4.452   7.205
 2198TIP3    H128153   4.781   4.396   7.153
 2198TIP3    H228154   4.707   4.398   7.284
 2199TIP3   OH228155   4.222   4.070   6.849
 2199TIP3    H128156   4.190   3.977   6.850
 2199TIP3    H228157   4.301   4.060   6.795
 2200TIP3   OH228158   4.585   4.285   7.448
 2200TIP3    H128159   4.503   4.336   7.457
 2200TIP3    H228160   4.641   4.320   7.521
 2201TIP3   OH228161   5.362   4.826   7.498
 2201TIP3    H128162   5.419   4.875   7.435
 2201TIP3    H228163   5.276   4.832   7.451
 2202TIP3   OH228164   4.788   4.933   7.738
 2202TIP3    H128165   4.761   4.891   7.821
 2202TIP3    H228166   4.770   5.026   7.754
 2203TIP3   OH228167   4.156   4.846   7.198
 2203TIP3    H128168   4.223   4.838   7.127
 2203TIP3    H228169   4.162   4.761   7.243
 2204TIP3   OH228170   3.854   4.687   7.724
 2204TIP3    H128171   3.872   4.642   7.809
 2204TIP3    H228172   3.792   4.625   7.680
 2205TIP3   OH228173   4.555   4.641   7.942
 2205TIP3    H128174   4.525   4.612   7.855
 2205TIP3    H228175   4.649   4.614   7.942
 2206TIP3   OH228176   5.023   5.179   7.735
 2206TIP3    H128177   4.929   5.194   7.714
 2206TIP3    H228178   5.021   5.201   7.830
 2207TIP3   OH228179   5.591   4.982   7.856
 2207TIP3    H128180   5.500   5.001   7.821
 2207TIP3    H228181   5.644   4.976   7.774
 2208TIP3   OH228182   5.423   5.277   6.614
 2208TIP3    H128183   5.384   5.194   6.649
 2208TIP3    H228184   5.450   5.253   6.524
 2209TIP3   OH228185   5.141   4.760   7.323
 2209TIP3    H128186   5.046   4.737   7.315
 2209TIP3    H228187   5.183   4.682   7.283
 2210TIP3   OH228188   4.391   5.191   6.937
 2210TIP3    H128189   4.443   5.271   6.915
 2210TIP3    H228190   4.304   5.216   6.903
 2211TIP3   OH228191   3.962   4.672   6.410
 2211TIP3    H128192   4.030   4.741   6.422
 2211TIP3    H228193   3.880   4.720   6.412
 2212TIP3   OH228194   4.536   4.958   6.893
 2212TIP3    H128195   4.504   5.050   6.897
 2212TIP3    H228196   4.461   4.910   6.931
 2213TIP3   OH228197   4.579   5.376   7.528
 2213TIP3    H128198   4.625   5.457   7.500
 2213TIP3    H228199   4.640   5.343   7.596
 2214TIP3   OH228200   4.403   5.453   6.853
 2214TIP3    H128201   4.307   5.472   6.852
 2214TIP3    H228202   4.439   5.541   6.873
 2215TIP3   OH228203   4.932   4.977   7.491
 2215TIP3    H128204   4.900   4.957   7.582
 2215TIP3    H228205   4.996   4.906   7.474
 2216TIP3   OH228206   5.213   5.435   7.740
 2216TIP3    H128207   5.144   5.385   7.691
 2216TIP3    H228208   5.232   5.505   7.674
 2217TIP3   OH228209   4.019   4.161   7.679
 2217TIP3    H128210   3.928   4.195   7.676
 2217TIP3    H228211   4.008   4.075   7.724
 2218TIP3   OH228212   5.242   4.955   6.637
 2218TIP3    H128213   5.221   4.865   6.673
 2218TIP3    H228214   5.339   4.949   6.633
 2219TIP3   OH228215   3.980   5.339   7.522
 2219TIP3    H128216   4.010   5.247   7.522
 2219TIP3    H228217   4.007   5.368   7.610
 2220TIP3   OH228218   4.111   4.866   6.552
 2220TIP3    H128219   4.038   4.911   6.598
 2220TIP3    H228220   4.159   4.939   6.510
 2221TIP3   OH228221   4.893   4.138   7.573
 2221TIP3    H128222   4.964   4.143   7.638
 2221TIP3    H228223   4.854   4.050   7.594
 2222TIP3   OH228224   4.973   4.094   6.677
 2222TIP3    H128225   4.989   4.149   6.598
 2222TIP3    H228226   5.025   4.140   6.746
 2223TIP3   OH228227   4.732   5.306   6.549
 2223TIP3    H128228   4.657   5.361   6.577
 2223TIP3    H228229   4.790   5.374   6.511
 2224TIP3   OH228230   4.690   4.272   6.760
 2224TIP3    H128231   4.770   4.326   6.769
 2224TIP3    H228232   4.663   4.253   6.852
 2225TIP3   OH228233   4.744   4.371   7.684
 2225TIP3    H128234   4.752   4.428   7.763
 2225TIP3    H228235   4.812   4.303   7.695
 2226TIP3   OH228236   4.779   3.977   6.858
 2226TIP3    H128237   4.741   4.043   6.918
 2226TIP3    H228238   4.844   4.032   6.810
 2227TIP3   OH228239   5.364   4.158   7.769
 2227TIP3    H128240   5.271   4.190   7.756
 2227TIP3    H228241   5.393   4.158   7.676
 2228TIP3   OH228242   5.224   4.538   7.173
 2228TIP3    H128243   5.143   4.494   7.142
 2228TIP3    H228244   5.273   4.468   7.222
 2229TIP3   OH228245   5.331   5.464   7.337
 2229TIP3    H128246   5.321   5.532   7.267
 2229TIP3    H228247   5.427   5.469   7.355
 2230TIP3   OH228248   4.080   3.876   7.216
 2230TIP3    H128249   4.060   3.877   7.120
 2230TIP3    H228250   4.038   3.791   7.242
 2231TIP3   OH228251   3.974   5.267   6.828
 2231TIP3    H128252   3.890   5.315   6.829
 2231TIP3    H228253   4.024   5.316   6.762
 2232TIP3   OH228254   3.896   5.533   7.960
 2232TIP3    H128255   3.956   5.513   8.035
 2232TIP3    H228256   3.855   5.447   7.943
 2233TIP3   OH228257   4.364   5.422   8.122
 2233TIP3    H128258   4.441   5.375   8.154
 2233TIP3    H228259   4.363   5.396   8.027
 2234TIP3   OH228260   5.014   5.262   7.995
 2234TIP3    H128261   4.986   5.172   8.021
 2234TIP3    H228262   5.092   5.275   8.053
 2235TIP3   OH228263   5.235   5.362   6.288
 2235TIP3    H128264   5.266   5.278   6.325
 2235TIP3    H228265   5.310   5.377   6.227
 2236TIP3   OH228266   3.887   4.909   8.059
 2236TIP3    H128267   3.905   4.819   8.027
 2236TIP3    H228268   3.814   4.936   8.001
 2237TIP3   OH228269   4.555   4.909   7.997
 2237TIP3    H128270   4.527   4.939   7.909
 2237TIP3    H228271   4.571   4.812   7.986
 2238TIP3   OH228272   5.129   4.896   7.726
 2238TIP3    H128273   5.207   4.954   7.734
 2238TIP3    H228274   5.059   4.959   7.745
 2239TIP3   OH228275   3.979   4.633   7.998
 2239TIP3    H128276   4.020   4.546   7.989
 2239TIP3    H228277   3.956   4.634   8.093
 2240TIP3   OH228278   4.369   4.528   7.734
 2240TIP3    H128279   4.309   4.600   7.760
 2240TIP3    H228280   4.408   4.564   7.652
 2241TIP3   OH228281   4.841   4.760   8.066
 2241TIP3    H128282   4.936   4.782   8.047
 2241TIP3    H228283   4.852   4.697   8.137
 2242TIP3   OH228284   4.410   4.266   7.838
 2242TIP3    H128285   4.421   4.194   7.774
 2242TIP3    H228286   4.405   4.347   7.783
 2243TIP3   OH228287   4.450   4.103   7.594
 2243TIP3    H128288   4.501   4.150   7.524
 2243TIP3    H228289   4.361   4.095   7.553
 2244TIP3   OH228290   4.604   4.651   7.618
 2244TIP3    H128291   4.680   4.636   7.562
 2244TIP3    H228292   4.567   4.735   7.585
 2245TIP3   OH228293   5.043   4.425   8.117
 2245TIP3    H128294   5.067   4.333   8.106
 2245TIP3    H228295   5.129   4.471   8.115
 2246TIP3   OH228296   5.185   4.682   7.906
 2246TIP3    H128297   5.153   4.773   7.880
 2246TIP3    H228298   5.280   4.704   7.911
 2247TIP3   OH228299   4.257   4.389   8.034
 2247TIP3    H128300   4.179   4.334   8.013
 2247TIP3    H228301   4.321   4.354   7.969
 2248TIP3   OH228302   4.528   3.846   7.636
 2248TIP3    H128303   4.512   3.943   7.624
 2248TIP3    H228304   4.454   3.810   7.584
 2249TIP3   OH228305   4.657   4.280   7.997
 2249TIP3    H128306   4.624   4.258   8.087
 2249TIP3    H228307   4.579   4.263   7.941
 2250TIP3   OH228308   4.928   4.191   7.901
 2250TIP3    H128309   4.832   4.202   7.917
 2250TIP3    H228310   4.955   4.130   7.972
 2251TIP3   OH228311   5.084   4.057   8.096
 2251TIP3    H128312   5.081   3.959   8.099
 2251TIP3    H228313   5.059   4.086   8.187
 2252TIP3   OH228314   4.065   4.184   8.006
 2252TIP3    H128315   4.089   4.110   7.947
 2252TIP3    H228316   4.056   4.139   8.093
 2253TIP3   OH228317   4.550   3.785   7.904
 2253TIP3    H128318   4.618   3.715   7.901
 2253TIP3    H228319   4.540   3.802   7.808
 2254TIP3   OH228320   4.585   3.946   8.113
 2254TIP3    H128321   4.569   3.897   8.029
 2254TIP3    H228322   4.527   4.024   8.102
 2255TIP3   OH228323   3.767   5.636   6.876
 2255TIP3    H128324   3.696   5.588   6.828
 2255TIP3    H228325   3.794   5.570   6.942
 2256TIP3   OH228326   3.849   5.448   7.064
 2256TIP3    H128327   3.814   5.360   7.083
 2256TIP3    H228328   3.871   5.481   7.152
 2257TIP3   OH228329   5.603   5.527   7.357
 2257TIP3    H128330   5.605   5.544   7.453
 2257TIP3    H228331   5.673   5.586   7.326
 2258TIP3   OH228332   5.560   5.488   7.651
 2258TIP3    H128333   5.513   5.410   7.613
 2258TIP3    H228334   5.610   5.443   7.722
 2259TIP3   OH228335   5.407   5.058   8.119
 2259TIP3    H128336   5.315   5.055   8.152
 2259TIP3    H228337   5.440   5.140   8.161
 2260TIP3   OH228338   5.531   4.891   6.664
 2260TIP3    H128339   5.618   4.930   6.678
 2260TIP3    H228340   5.534   4.817   6.728
 2261TIP3   OH228341   5.574   4.702   6.849
 2261TIP3    H128342   5.499   4.650   6.886
 2261TIP3    H228343   5.633   4.714   6.926
 2262TIP3   OH228344   5.548   4.970   7.348
 2262TIP3    H128345   5.630   4.933   7.311
 2262TIP3    H228346   5.562   5.065   7.331
 2263TIP3   OH228347   5.403   5.260   7.576
 2263TIP3    H128348   5.334   5.294   7.635
 2263TIP3    H228349   5.349   5.220   7.505
 2264TIP3   OH228350   5.602   4.685   6.483
 2264TIP3    H128351   5.545   4.723   6.417
 2264TIP3    H228352   5.595   4.750   6.554
 2265TIP3   OH228353   5.353   4.546   6.903
 2265TIP3    H128354   5.336   4.451   6.901
 2265TIP3    H228355   5.321   4.570   6.992
 2266TIP3   OH228356   3.855   4.755   7.312
 2266TIP3    H128357   3.873   4.748   7.216
 2266TIP3    H228358   3.944   4.739   7.348
 2267TIP3   OH228359   5.440   4.745   7.878
 2267TIP3    H128360   5.500   4.669   7.890
 2267TIP3    H228361   5.499   4.823   7.877
 2268TIP3   OH228362   5.589   4.534   7.941
 2268TIP3    H128363   5.501   4.494   7.925
 2268TIP3    H228364   5.647   4.455   7.933
 2269TIP3   OH228365   5.325   4.304   6.765
 2269TIP3    H128366   5.351   4.210   6.763
 2269TIP3    H228367   5.392   4.347   6.710
 2270TIP3   OH228368   5.385   4.360   7.297
 2270TIP3    H128369   5.481   4.384   7.295
 2270TIP3    H228370   5.366   4.374   7.391
 2271TIP3   OH228371   5.391   4.432   7.574
 2271TIP3    H128372   5.303   4.461   7.607
 2271TIP3    H228373   5.435   4.518   7.553
 2272TIP3   OH228374   3.817   4.285   7.926
 2272TIP3    H128375   3.910   4.266   7.947
 2272TIP3    H228376   3.771   4.204   7.957
 2273TIP3   OH228377   5.634   3.841   8.112
 2273TIP3    H128378   5.649   3.771   8.046
 2273TIP3    H228379   5.625   3.920   8.054
 2274TIP3   OH228380   5.390   4.032   6.756
 2274TIP3    H128381   5.409   3.989   6.843
 2274TIP3    H228382   5.325   3.971   6.713
 2275TIP3   OH228383   3.936   4.115   7.212
 2275TIP3    H128384   3.982   4.033   7.239
 2275TIP3    H228385   3.991   4.185   7.253
 2276TIP3   OH228386   3.765   4.415   7.317
 2276TIP3    H128387   3.821   4.391   7.240
 2276TIP3    H228388   3.811   4.496   7.344
 2277TIP3   OH228389   5.571   4.046   7.947
 2277TIP3    H128390   5.477   4.076   7.941
 2277TIP3    H228391   5.574   3.994   7.864
 2278TIP3   OH228392   3.802   4.052   6.727
 2278TIP3    H128393   3.706   4.056   6.711
 2278TIP3    H228394   3.844   4.084   6.647
 2279TIP3   OH228395   5.275   5.536   6.918
 2279TIP3    H128396   5.342   5.505   6.856
 2279TIP3    H228397   5.327   5.586   6.982
 2280TIP3   OH228398   3.796   3.907   7.554
 2280TIP3    H128399   3.729   3.888   7.622
 2280TIP3    H228400   3.751   3.974   7.500
 2281TIP3   OH228401   4.020   5.228   7.971
 2281TIP3    H128402   3.935   5.249   7.928
 2281TIP3    H228403   3.993   5.221   8.063
 2282TIP3   OH228404   4.310   5.327   7.598
 2282TIP3    H128405   4.276   5.413   7.570
 2282TIP3    H228406   4.402   5.336   7.567
 2283TIP3   OH228407   4.742   5.469   7.889
 2283TIP3    H128408   4.756   5.434   7.980
 2283TIP3    H228409   4.832   5.499   7.865
 2284TIP3   OH228410   4.971   5.596   7.819
 2284TIP3    H128411   5.044   5.537   7.795
 2284TIP3    H228412   5.009   5.639   7.899
 2285TIP3   OH228413   5.472   3.857   7.730
 2285TIP3    H128414   5.390   3.888   7.688
 2285TIP3    H228415   5.490   3.776   7.677
 2286TIP3   OH228416   4.052   5.652   7.598
 2286TIP3    H128417   3.979   5.701   7.558
 2286TIP3    H228418   4.020   5.631   7.687
 2287TIP3   OH228419   4.299   5.609   7.505
 2287TIP3    H128420   4.210   5.623   7.544
 2287TIP3    H228421   4.294   5.668   7.427
 2288TIP3   OH228422   4.770   5.600   7.422
 2288TIP3    H128423   4.724   5.655   7.357
 2288TIP3    H228424   4.784   5.663   7.496
 2289TIP3   OH228425   4.999   5.482   7.523
 2289TIP3    H128426   4.913   5.508   7.488
 2289TIP3    H228427   5.047   5.566   7.514
 2290TIP3   OH228428   5.257   5.638   7.547
 2290TIP3    H128429   5.251   5.734   7.523
 2290TIP3    H228430   5.279   5.601   7.459
 2291TIP3   OH228431   3.998   5.516   7.292
 2291TIP3    H128432   3.991   5.470   7.378
 2291TIP3    H228433   4.079   5.478   7.252
 2292TIP3   OH228434   4.205   5.387   7.159
 2292TIP3    H128435   4.189   5.293   7.180
 2292TIP3    H228436   4.292   5.402   7.202
 2293TIP3   OH228437   4.466   5.436   7.245
 2293TIP3    H128438   4.482   5.344   7.217
 2293TIP3    H228439   4.471   5.429   7.342
 2294TIP3   OH228440   4.812   4.002   7.158
 2294TIP3    H128441   4.744   3.938   7.184
 2294TIP3    H228442   4.867   3.948   7.099
 2295TIP3   OH228443   5.325   3.806   7.165
 2295TIP3    H128444   5.386   3.865   7.115
 2295TIP3    H228445   5.237   3.841   7.141
 2296TIP3   OH228446   5.491   3.931   6.990
 2296TIP3    H128447   5.562   3.873   6.953
 2296TIP3    H228448   5.542   4.013   7.008
 2297TIP3   OH228449   4.047   3.865   6.944
 2297TIP3    H128450   3.969   3.843   6.890
 2297TIP3    H228451   4.095   3.780   6.937
 2298TIP3   OH228452   3.932   3.844   6.519
 2298TIP3    H128453   3.971   3.909   6.459
 2298TIP3    H228454   3.865   3.892   6.569
 2299TIP3   OH228455   4.495   3.856   6.923
 2299TIP3    H128456   4.586   3.891   6.914
 2299TIP3    H228457   4.493   3.833   7.016
 2300TIP3   OH228458   5.065   3.857   7.085
 2300TIP3    H128459   5.062   3.868   6.989
 2300TIP3    H228460   5.030   3.766   7.097
 2301TIP3   OH228461   5.193   3.860   6.649
 2301TIP3    H128462   5.122   3.923   6.634
 2301TIP3    H228463   5.147   3.777   6.677
 2302TIP3   OH228464   3.912   5.434   6.616
 2302TIP3    H128465   3.851   5.436   6.542
 2302TIP3    H228466   3.919   5.528   6.635
 2303TIP3   OH228467   4.811   5.540   6.452
 2303TIP3    H128468   4.891   5.593   6.432
 2303TIP3    H228469   4.773   5.528   6.365
 2304TIP3   OH228470   5.478   5.516   6.718
 2304TIP3    H128471   5.453   5.436   6.664
 2304TIP3    H228472   5.465   5.589   6.657
 2305TIP3   OH228473   4.037   3.916   7.888
 2305TIP3    H128474   3.999   3.837   7.931
 2305TIP3    H228475   4.128   3.913   7.925
 2306TIP3   OH228476   4.237   3.856   8.053
 2306TIP3    H128477   4.326   3.821   8.028
 2306TIP3    H228478   4.200   3.776   8.094
 2307TIP3   OH228479   5.078   3.785   8.068
 2307TIP3    H128480   5.088   3.737   8.152
 2307TIP3    H228481   5.170   3.782   8.033
 2308TIP3   OH228482   5.399   5.390   7.933
 2308TIP3    H128483   5.319   5.373   7.879
 2308TIP3    H228484   5.388   5.485   7.952
 2309TIP3   OH228485   6.841   4.776   6.932
 2309TIP3    H128486   6.844   4.873   6.926
 2309TIP3    H228487   6.771   4.753   6.868
 2310TIP3   OH228488   6.729   4.703   7.279
 2310TIP3    H128489   6.727   4.638   7.350
 2310TIP3    H228490   6.697   4.652   7.203
 2311TIP3   OH228491   5.965   4.669   7.433
 2311TIP3    H128492   5.972   4.602   7.504
 2311TIP3    H228493   6.039   4.727   7.456
 2312TIP3   OH228494   7.096   4.996   7.106
 2312TIP3    H128495   7.058   4.924   7.158
 2312TIP3    H228496   7.100   5.067   7.174
 2313TIP3   OH228497   6.057   5.115   7.285
 2313TIP3    H128498   6.025   5.028   7.253
 2313TIP3    H228499   6.152   5.096   7.290
 2314TIP3   OH228500   5.719   4.470   6.835
 2314TIP3    H128501   5.681   4.559   6.826
 2314TIP3    H228502   5.665   4.419   6.776
 2315TIP3   OH228503   5.792   4.693   7.047
 2315TIP3    H128504   5.819   4.611   7.091
 2315TIP3    H228505   5.861   4.703   6.979
 2316TIP3   OH228506   6.810   5.513   7.130
 2316TIP3    H128507   6.875   5.442   7.103
 2316TIP3    H228508   6.787   5.480   7.218
 2317TIP3   OH228509   6.567   4.943   7.325
 2317TIP3    H128510   6.600   4.879   7.260
 2317TIP3    H228511   6.647   4.958   7.378
 2318TIP3   OH228512   6.884   4.390   7.357
 2318TIP3    H128513   6.900   4.294   7.355
 2318TIP3    H228514   6.874   4.405   7.261
 2319TIP3   OH228515   6.195   4.197   7.079
 2319TIP3    H128516   6.204   4.281   7.030
 2319TIP3    H228517   6.154   4.142   7.009
 2320TIP3   OH228518   6.970   4.210   6.918
 2320TIP3    H128519   7.036   4.175   6.983
 2320TIP3    H228520   7.028   4.263   6.862
 2321TIP3   OH228521   5.858   4.440   7.152
 2321TIP3    H128522   5.924   4.384   7.198
 2321TIP3    H228523   5.868   4.409   7.061
 2322TIP3   OH228524   6.372   4.594   7.085
 2322TIP3    H128525   6.440   4.536   7.125
 2322TIP3    H228526   6.321   4.528   7.034
 2323TIP3   OH228527   6.085   4.088   7.483
 2323TIP3    H128528   6.057   4.145   7.408
 2323TIP3    H228529   6.017   4.111   7.551
 2324TIP3   OH228530   6.818   5.038   6.838
 2324TIP3    H128531   6.782   5.007   6.755
 2324TIP3    H228532   6.781   5.128   6.846
 2325TIP3   OH228533   6.337   4.853   7.508
 2325TIP3    H128534   6.266   4.917   7.528
 2325TIP3    H228535   6.407   4.912   7.479
 2326TIP3   OH228536   7.120   4.138   7.127
 2326TIP3    H128537   7.123   4.056   7.176
 2326TIP3    H228538   7.198   4.184   7.166
 2327TIP3   OH228539   6.041   4.274   7.286
 2327TIP3    H128540   6.105   4.342   7.318
 2327TIP3    H228541   6.094   4.232   7.213
 2328TIP3   OH228542   6.181   5.052   7.590
 2328TIP3    H128543   6.177   5.144   7.555
 2328TIP3    H228544   6.093   5.045   7.634
 2329TIP3   OH228545   5.787   5.017   6.666
 2329TIP3    H128546   5.760   5.045   6.578
 2329TIP3    H228547   5.794   5.099   6.717
 2330TIP3   OH228548   7.131   5.174   7.353
 2330TIP3    H128549   7.036   5.195   7.358
 2330TIP3    H228550   7.170   5.259   7.325
 2331TIP3   OH228551   7.162   4.021   7.459
 2331TIP3    H128552   7.094   4.090   7.471
 2331TIP3    H228553   7.239   4.069   7.427
 2332TIP3   OH228554   6.480   3.821   7.230
 2332TIP3    H128555   6.466   3.725   7.223
 2332TIP3    H228556   6.392   3.852   7.260
 2333TIP3   OH228557   6.969   5.353   7.005
 2333TIP3    H128558   7.019   5.285   6.955
 2333TIP3    H228559   7.013   5.433   6.970
 2334TIP3   OH228560   7.097   5.150   6.857
 2334TIP3    H128561   7.068   5.076   6.802
 2334TIP3    H228562   7.103   5.101   6.942
 2335TIP3   OH228563   7.234   5.025   7.716
 2335TIP3    H128564   7.261   4.956   7.653
 2335TIP3    H228565   7.275   5.101   7.671
 2336TIP3   OH228566   6.707   4.704   6.682
 2336TIP3    H128567   6.638   4.760   6.639
 2336TIP3    H228568   6.775   4.703   6.612
 2337TIP3   OH228569   7.049   4.725   6.769
 2337TIP3    H128570   6.979   4.747   6.834
 2337TIP3    H228571   7.099   4.660   6.823
 2338TIP3   OH228572   7.048   4.539   7.682
 2338TIP3    H128573   7.044   4.619   7.737
 2338TIP3    H228574   6.983   4.567   7.614
 2339TIP3   OH228575   6.214   4.787   6.964
 2339TIP3    H128576   6.181   4.748   6.882
 2339TIP3    H228577   6.275   4.718   6.998
 2340TIP3   OH228578   6.347   5.127   7.232
 2340TIP3    H128579   6.345   5.073   7.152
 2340TIP3    H228580   6.425   5.091   7.279
 2341TIP3   OH228581   6.248   4.662   7.331
 2341TIP3    H128582   6.304   4.672   7.252
 2341TIP3    H228583   6.286   4.729   7.392
 2342TIP3   OH228584   6.882   5.220   7.400
 2342TIP3    H128585   6.861   5.283   7.469
 2342TIP3    H228586   6.863   5.133   7.443
 2343TIP3   OH228587   6.343   5.105   7.800
 2343TIP3    H128588   6.302   5.180   7.849
 2343TIP3    H228589   6.275   5.086   7.730
 2344TIP3   OH228590   6.935   4.647   6.541
 2344TIP3    H128591   6.994   4.660   6.619
 2344TIP3    H228592   6.982   4.687   6.466
 2345TIP3   OH228593   6.037   4.721   7.716
 2345TIP3    H128594   6.042   4.788   7.787
 2345TIP3    H228595   5.943   4.731   7.694
 2346TIP3   OH228596   6.714   5.316   6.884
 2346TIP3    H128597   6.755   5.343   6.968
 2346TIP3    H228598   6.655   5.389   6.865
 2347TIP3   OH228599   6.167   5.309   7.875
 2347TIP3    H128600   6.162   5.299   7.778
 2347TIP3    H228601   6.074   5.296   7.901
 2348TIP3   OH228602   5.721   4.932   7.615
 2348TIP3    H128603   5.676   4.925   7.529
 2348TIP3    H228604   5.728   4.838   7.637
 2349TIP3   OH228605   5.697   5.207   7.292
 2349TIP3    H128606   5.792   5.195   7.291
 2349TIP3    H228607   5.688   5.288   7.344
 2350TIP3   OH228608   6.616   5.231   7.749
 2350TIP3    H128609   6.622   5.315   7.800
 2350TIP3    H228610   6.529   5.195   7.774
 2351TIP3   OH228611   6.663   5.606   6.726
 2351TIP3    H128612   6.653   5.598   6.631
 2351TIP3    H228613   6.663   5.701   6.744
 2352TIP3   OH228614   6.025   5.492   6.908
 2352TIP3    H128615   6.039   5.453   6.998
 2352TIP3    H228616   5.938   5.453   6.890
 2353TIP3   OH228617   6.963   5.524   6.427
 2353TIP3    H128618   7.006   5.451   6.378
 2353TIP3    H228619   6.969   5.498   6.520
 2354TIP3   OH228620   6.934   5.517   6.707
 2354TIP3    H128621   6.838   5.525   6.723
 2354TIP3    H228622   6.960   5.444   6.764
 2355TIP3   OH228623   7.189   4.441   7.912
 2355TIP3    H128624   7.183   4.476   7.823
 2355TIP3    H228625   7.239   4.356   7.895
 2356TIP3   OH228626   5.949   5.065   7.710
 2356TIP3    H128627   5.971   5.027   7.798
 2356TIP3    H228628   5.862   5.025   7.688
 2357TIP3   OH228629   6.217   3.911   7.305
 2357TIP3    H128630   6.126   3.899   7.268
 2357TIP3    H228631   6.204   3.995   7.353
 2358TIP3   OH228632   6.681   3.879   7.641
 2358TIP3    H128633   6.721   3.837   7.720
 2358TIP3    H228634   6.584   3.866   7.655
 2359TIP3   OH228635   7.004   4.259   7.725
 2359TIP3    H128636   6.955   4.242   7.809
 2359TIP3    H228637   6.995   4.354   7.711
 2360TIP3   OH228638   7.067   4.747   6.309
 2360TIP3    H128639   7.083   4.713   6.219
 2360TIP3    H228640   7.149   4.784   6.340
 2361TIP3   OH228641   6.645   4.133   6.380
 2361TIP3    H128642   6.613   4.131   6.471
 2361TIP3    H228643   6.616   4.049   6.344
 2362TIP3   OH228644   6.227   4.409   7.429
 2362TIP3    H128645   6.154   4.407   7.493
 2362TIP3    H228646   6.223   4.500   7.393
 2363TIP3   OH228647   6.222   4.421   6.916
 2363TIP3    H128648   6.129   4.396   6.901
 2363TIP3    H228649   6.260   4.390   6.831
 2364TIP3   OH228650   6.777   4.470   6.793
 2364TIP3    H128651   6.735   4.551   6.756
 2364TIP3    H228652   6.845   4.453   6.725
 2365TIP3   OH228653   6.682   4.492   7.938
 2365TIP3    H128654   6.630   4.414   7.968
 2365TIP3    H228655   6.766   4.479   7.985
 2366TIP3   OH228656   6.876   4.421   7.079
 2366TIP3    H128657   6.853   4.476   7.002
 2366TIP3    H228658   6.889   4.335   7.033
 2367TIP3   OH228659   5.990   4.435   7.599
 2367TIP3    H128660   5.997   4.475   7.687
 2367TIP3    H228661   5.945   4.351   7.619
 2368TIP3   OH228662   6.329   4.169   6.279
 2368TIP3    H128663   6.286   4.133   6.358
 2368TIP3    H228664   6.261   4.219   6.233
 2369TIP3   OH228665   5.656   4.145   6.994
 2369TIP3    H128666   5.723   4.141   7.066
 2369TIP3    H228667   5.702   4.105   6.918
 2370TIP3   OH228668   5.786   4.222   6.530
 2370TIP3    H128669   5.838   4.287   6.480
 2370TIP3    H228670   5.720   4.281   6.568
 2371TIP3   OH228671   6.798   4.578   7.534
 2371TIP3    H128672   6.836   4.509   7.475
 2371TIP3    H228673   6.751   4.525   7.601
 2372TIP3   OH228674   6.478   4.176   7.017
 2372TIP3    H128675   6.385   4.177   7.047
 2372TIP3    H228676   6.528   4.160   7.099
 2373TIP3   OH228677   5.959   4.330   6.907
 2373TIP3    H128678   5.873   4.348   6.863
 2373TIP3    H228679   5.989   4.250   6.862
 2374TIP3   OH228680   6.324   4.337   6.667
 2374TIP3    H128681   6.420   4.344   6.682
 2374TIP3    H228682   6.303   4.403   6.599
 2375TIP3   OH228683   6.913   4.096   7.343
 2375TIP3    H128684   6.846   4.104   7.413
 2375TIP3    H228685   6.864   4.076   7.262
 2376TIP3   OH228686   7.228   5.669   7.982
 2376TIP3    H128687   7.256   5.697   7.897
 2376TIP3    H228688   7.304   5.693   8.039
 2377TIP3   OH228689   6.009   4.910   7.931
 2377TIP3    H128690   6.078   4.935   7.994
 2377TIP3    H228691   5.929   4.920   7.988
 2378TIP3   OH228692   6.607   4.451   7.206
 2378TIP3    H128693   6.667   4.398   7.153
 2378TIP3    H228694   6.593   4.397   7.285
 2379TIP3   OH228695   6.110   4.067   6.853
 2379TIP3    H128696   6.077   3.975   6.847
 2379TIP3    H228697   6.185   4.061   6.792
 2380TIP3   OH228698   6.471   4.284   7.448
 2380TIP3    H128699   6.389   4.336   7.457
 2380TIP3    H228700   6.526   4.319   7.520
 2381TIP3   OH228701   6.526   4.907   6.619
 2381TIP3    H128702   6.449   4.859   6.581
 2381TIP3    H228703   6.507   4.918   6.713
 2382TIP3   OH228704   7.218   4.827   7.498
 2382TIP3    H128705   7.291   4.844   7.433
 2382TIP3    H228706   7.142   4.830   7.437
 2383TIP3   OH228707   6.916   4.185   6.440
 2383TIP3    H128708   6.823   4.200   6.414
 2383TIP3    H228709   6.942   4.276   6.464
 2384TIP3   OH228710   6.680   4.932   7.741
 2384TIP3    H128711   6.644   4.891   7.820
 2384TIP3    H228712   6.657   5.025   7.751
 2385TIP3   OH228713   6.987   4.384   6.601
 2385TIP3    H128714   7.077   4.367   6.634
 2385TIP3    H228715   6.992   4.464   6.546
 2386TIP3   OH228716   6.041   4.846   7.197
 2386TIP3    H128717   6.110   4.838   7.128
 2386TIP3    H228718   6.047   4.760   7.243
 2387TIP3   OH228719   5.740   4.686   7.725
 2387TIP3    H128720   5.757   4.642   7.810
 2387TIP3    H228721   5.678   4.625   7.680
 2388TIP3   OH228722   6.441   4.642   7.942
 2388TIP3    H128723   6.410   4.613   7.855
 2388TIP3    H228724   6.534   4.611   7.941
 2389TIP3   OH228725   6.909   5.174   7.736
 2389TIP3    H128726   6.817   5.193   7.712
 2389TIP3    H228727   6.906   5.204   7.829
 2390TIP3   OH228728   7.021   4.757   7.326
 2390TIP3    H128729   6.927   4.734   7.313
 2390TIP3    H228730   7.069   4.682   7.285
 2391TIP3   OH228731   6.277   5.191   6.935
 2391TIP3    H128732   6.329   5.270   6.915
 2391TIP3    H228733   6.189   5.217   6.905
 2392TIP3   OH228734   6.420   4.959   6.887
 2392TIP3    H128735   6.390   5.051   6.898
 2392TIP3    H228736   6.348   4.910   6.932
 2393TIP3   OH228737   6.465   5.376   7.528
 2393TIP3    H128738   6.510   5.457   7.500
 2393TIP3    H228739   6.526   5.343   7.597
 2394TIP3   OH228740   6.288   5.456   6.841
 2394TIP3    H128741   6.192   5.472   6.857
 2394TIP3    H228742   6.325   5.539   6.878
 2395TIP3   OH228743   6.820   4.977   7.491
 2395TIP3    H128744   6.784   4.957   7.580
 2395TIP3    H228745   6.882   4.905   7.474
 2396TIP3   OH228746   7.099   5.434   7.739
 2396TIP3    H128747   7.027   5.384   7.692
 2396TIP3    H228748   7.118   5.503   7.672
 2397TIP3   OH228749   5.905   4.161   7.678
 2397TIP3    H128750   5.814   4.195   7.676
 2397TIP3    H228751   5.893   4.076   7.723
 2398TIP3   OH228752   5.866   5.339   7.521
 2398TIP3    H128753   5.895   5.246   7.522
 2398TIP3    H228754   5.892   5.367   7.610
 2399TIP3   OH228755   6.333   5.146   6.498
 2399TIP3    H128756   6.372   5.089   6.566
 2399TIP3    H228757   6.357   5.234   6.522
 2400TIP3   OH228758   6.775   4.137   7.575
 2400TIP3    H128759   6.850   4.143   7.636
 2400TIP3    H228760   6.738   4.049   7.595
 2401TIP3   OH228761   6.857   4.094   6.686
 2401TIP3    H128762   6.875   4.143   6.602
 2401TIP3    H228763   6.913   4.139   6.750
 2402TIP3   OH228764   6.621   5.319   6.568
 2402TIP3    H128765   6.537   5.364   6.568
 2402TIP3    H228766   6.670   5.365   6.499
 2403TIP3   OH228767   6.573   4.272   6.764
 2403TIP3    H128768   6.655   4.327   6.768
 2403TIP3    H228769   6.550   4.257   6.858
 2404TIP3   OH228770   6.633   4.372   7.684
 2404TIP3    H128771   6.641   4.428   7.763
 2404TIP3    H228772   6.698   4.301   7.693
 2405TIP3   OH228773   6.658   3.977   6.852
 2405TIP3    H128774   6.628   4.041   6.918
 2405TIP3    H228775   6.729   4.030   6.809
 2406TIP3   OH228776   6.234   4.091   6.523
 2406TIP3    H128777   6.223   4.178   6.566
 2406TIP3    H228778   6.322   4.063   6.554
 2407TIP3   OH228779   7.238   4.138   7.751
 2407TIP3    H128780   7.153   4.189   7.753
 2407TIP3    H228781   7.277   4.164   7.667
 2408TIP3   OH228782   7.109   4.538   7.175
 2408TIP3    H128783   7.028   4.494   7.142
 2408TIP3    H228784   7.153   4.466   7.222
 2409TIP3   OH228785   7.222   5.468   7.339
 2409TIP3    H128786   7.206   5.531   7.266
 2409TIP3    H228787   7.317   5.473   7.351
 2410TIP3   OH228788   5.966   3.876   7.216
 2410TIP3    H128789   5.945   3.877   7.120
 2410TIP3    H228790   5.924   3.791   7.242
 2411TIP3   OH228791   5.858   5.269   6.830
 2411TIP3    H128792   5.773   5.315   6.827
 2411TIP3    H228793   5.913   5.316   6.767
 2412TIP3   OH228794   5.782   5.533   7.960
 2412TIP3    H128795   5.842   5.513   8.035
 2412TIP3    H228796   5.740   5.447   7.943
 2413TIP3   OH228797   6.250   5.422   8.122
 2413TIP3    H128798   6.327   5.375   8.154
 2413TIP3    H228799   6.248   5.397   8.027
 2414TIP3   OH228800   6.905   5.263   7.995
 2414TIP3    H128801   6.871   5.175   8.022
 2414TIP3    H228802   6.981   5.273   8.054
 2415TIP3   OH228803   7.100   5.327   6.304
 2415TIP3    H128804   7.156   5.258   6.338
 2415TIP3    H228805   7.166   5.382   6.258
 2416TIP3   OH228806   5.775   4.910   8.059
 2416TIP3    H128807   5.790   4.818   8.027
 2416TIP3    H228808   5.700   4.936   8.002
 2417TIP3   OH228809   6.445   4.908   7.996
 2417TIP3    H128810   6.411   4.939   7.911
 2417TIP3    H228811   6.453   4.810   7.986
 2418TIP3   OH228812   7.012   4.892   7.738
 2418TIP3    H128813   7.091   4.952   7.731
 2418TIP3    H228814   6.944   4.960   7.742
 2419TIP3   OH228815   5.863   4.633   7.998
 2419TIP3    H128816   5.906   4.547   7.989
 2419TIP3    H228817   5.842   4.634   8.093
 2420TIP3   OH228818   6.335   4.743   6.507
 2420TIP3    H128819   6.281   4.691   6.568
 2420TIP3    H228820   6.363   4.681   6.437
 2421TIP3   OH228821   6.255   4.528   7.734
 2421TIP3    H128822   6.195   4.600   7.760
 2421TIP3    H228823   6.294   4.564   7.652
 2422TIP3   OH228824   6.762   4.785   8.075
 2422TIP3    H128825   6.856   4.783   8.056
 2422TIP3    H228826   6.747   4.705   8.127
 2423TIP3   OH228827   6.296   4.267   7.838
 2423TIP3    H128828   6.307   4.194   7.774
 2423TIP3    H228829   6.291   4.347   7.783
 2424TIP3   OH228830   6.335   4.103   7.594
 2424TIP3    H128831   6.387   4.149   7.524
 2424TIP3    H228832   6.246   4.095   7.553
 2425TIP3   OH228833   6.489   4.651   7.618
 2425TIP3    H128834   6.565   4.635   7.561
 2425TIP3    H228835   6.454   4.735   7.586
 2426TIP3   OH228836   6.934   4.429   8.115
 2426TIP3    H128837   6.956   4.335   8.108
 2426TIP3    H228838   7.022   4.470   8.111
 2427TIP3   OH228839   7.066   4.711   7.933
 2427TIP3    H128840   7.036   4.779   7.868
 2427TIP3    H228841   7.158   4.700   7.910
 2428TIP3   OH228842   6.143   4.389   8.034
 2428TIP3    H128843   6.064   4.335   8.013
 2428TIP3    H228844   6.206   4.354   7.968
 2429TIP3   OH228845   6.414   3.847   7.635
 2429TIP3    H128846   6.397   3.943   7.624
 2429TIP3    H228847   6.339   3.811   7.584
 2430TIP3   OH228848   6.541   4.279   7.997
 2430TIP3    H128849   6.510   4.258   8.087
 2430TIP3    H228850   6.462   4.260   7.942
 2431TIP3   OH228851   6.809   4.195   7.903
 2431TIP3    H128852   6.714   4.199   7.918
 2431TIP3    H228853   6.842   4.132   7.971
 2432TIP3   OH228854   6.975   4.055   8.097
 2432TIP3    H128855   6.966   3.958   8.099
 2432TIP3    H228856   6.945   4.086   8.186
 2433TIP3   OH228857   5.950   4.183   8.005
 2433TIP3    H128858   5.975   4.110   7.946
 2433TIP3    H228859   5.943   4.142   8.093
 2434TIP3   OH228860   6.436   3.785   7.903
 2434TIP3    H128861   6.505   3.715   7.900
 2434TIP3    H228862   6.425   3.802   7.808
 2435TIP3   OH228863   6.467   3.945   8.114
 2435TIP3    H128864   6.456   3.897   8.029
 2435TIP3    H228865   6.414   4.026   8.102
 2436TIP3   OH228866   5.654   5.636   6.874
 2436TIP3    H128867   5.580   5.588   6.831
 2436TIP3    H228868   5.679   5.572   6.944
 2437TIP3   OH228869   5.737   5.448   7.062
 2437TIP3    H128870   5.699   5.361   7.083
 2437TIP3    H228871   5.758   5.481   7.151
 2438TIP3   OH228872   7.281   5.257   7.581
 2438TIP3    H128873   7.214   5.295   7.638
 2438TIP3    H228874   7.230   5.218   7.508
 2439TIP3   OH228875   7.189   4.555   6.915
 2439TIP3    H128876   7.216   4.463   6.917
 2439TIP3    H228877   7.202   4.578   7.009
 2440TIP3   OH228878   5.740   4.756   7.312
 2440TIP3    H128879   5.759   4.748   7.216
 2440TIP3    H228880   5.829   4.739   7.348
 2441TIP3   OH228881   7.223   4.188   6.250
 2441TIP3    H128882   7.298   4.148   6.295
 2441TIP3    H228883   7.154   4.121   6.266
 2442TIP3   OH228884   7.204   4.300   6.741
 2442TIP3    H128885   7.234   4.215   6.776
 2442TIP3    H228886   7.286   4.336   6.705
 2443TIP3   OH228887  -0.052   4.278   7.295
 2443TIP3    H128888   0.036   4.314   7.283
 2443TIP3    H228889  -0.073   4.342   7.365
 2444TIP3   OH228890   7.278   4.438   7.598
 2444TIP3    H128891   7.185   4.465   7.609
 2444TIP3    H228892   7.316   4.509   7.542
 2445TIP3   OH228893   5.702   4.286   7.926
 2445TIP3    H128894   5.796   4.266   7.946
 2445TIP3    H228895   5.655   4.205   7.956
 2446TIP3   OH228896   7.180   4.002   6.825
 2446TIP3    H128897   7.275   3.986   6.844
 2446TIP3    H228898   7.184   3.962   6.735
 2447TIP3   OH228899   5.822   4.115   7.213
 2447TIP3    H128900   5.869   4.033   7.239
 2447TIP3    H228901   5.876   4.185   7.252
 2448TIP3   OH228902   5.651   4.415   7.317
 2448TIP3    H128903   5.707   4.391   7.240
 2448TIP3    H228904   5.696   4.496   7.343
 2449TIP3   OH228905   5.686   4.047   6.728
 2449TIP3    H128906   5.591   4.057   6.712
 2449TIP3    H228907   5.731   4.086   6.651
 2450TIP3   OH228908   7.142   5.517   6.926
 2450TIP3    H128909   7.210   5.486   6.865
 2450TIP3    H228910   7.193   5.578   6.983
 2451TIP3   OH228911   5.682   3.907   7.554
 2451TIP3    H128912   5.615   3.887   7.622
 2451TIP3    H228913   5.636   3.974   7.500
 2452TIP3   OH228914   5.905   5.228   7.971
 2452TIP3    H128915   5.820   5.247   7.928
 2452TIP3    H228916   5.879   5.221   8.063
 2453TIP3   OH228917   6.196   5.327   7.598
 2453TIP3    H128918   6.162   5.413   7.570
 2453TIP3    H228919   6.288   5.336   7.567
 2454TIP3   OH228920   6.628   5.469   7.889
 2454TIP3    H128921   6.642   5.435   7.980
 2454TIP3    H228922   6.718   5.499   7.865
 2455TIP3   OH228923   6.860   5.598   7.818
 2455TIP3    H128924   6.931   5.536   7.796
 2455TIP3    H228925   6.896   5.640   7.900
 2456TIP3   OH228926   5.938   5.651   7.598
 2456TIP3    H128927   5.865   5.700   7.558
 2456TIP3    H228928   5.906   5.631   7.687
 2457TIP3   OH228929   6.185   5.609   7.505
 2457TIP3    H128930   6.096   5.622   7.544
 2457TIP3    H228931   6.179   5.668   7.427
 2458TIP3   OH228932   6.652   5.598   7.423
 2458TIP3    H128933   6.609   5.655   7.358
 2458TIP3    H228934   6.669   5.663   7.495
 2459TIP3   OH228935   6.885   5.482   7.524
 2459TIP3    H128936   6.799   5.507   7.488
 2459TIP3    H228937   6.929   5.568   7.515
 2460TIP3   OH228938   7.136   5.640   7.550
 2460TIP3    H128939   7.125   5.733   7.521
 2460TIP3    H228940   7.161   5.600   7.464
 2461TIP3   OH228941   5.883   5.515   7.292
 2461TIP3    H128942   5.876   5.470   7.379
 2461TIP3    H228943   5.965   5.478   7.253
 2462TIP3   OH228944   6.091   5.387   7.158
 2462TIP3    H128945   6.075   5.293   7.180
 2462TIP3    H228946   6.177   5.402   7.202
 2463TIP3   OH228947   6.349   5.435   7.245
 2463TIP3    H128948   6.367   5.344   7.217
 2463TIP3    H228949   6.355   5.428   7.341
 2464TIP3   OH228950   6.695   4.000   7.158
 2464TIP3    H128951   6.629   3.935   7.186
 2464TIP3    H228952   6.752   3.948   7.100
 2465TIP3   OH228953   7.212   3.805   7.167
 2465TIP3    H128954   7.270   3.865   7.119
 2465TIP3    H228955   7.123   3.841   7.144
 2466TIP3   OH228956   5.933   3.862   6.947
 2466TIP3    H128957   5.856   3.844   6.890
 2466TIP3    H228958   5.981   3.778   6.936
 2467TIP3   OH228959   6.383   3.855   6.921
 2467TIP3    H128960   6.472   3.892   6.916
 2467TIP3    H228961   6.378   3.833   7.014
 2468TIP3   OH228962   6.954   3.854   7.085
 2468TIP3    H128963   6.950   3.871   6.990
 2468TIP3    H228964   6.912   3.765   7.096
 2469TIP3   OH228965   7.075   3.856   6.643
 2469TIP3    H128966   7.003   3.920   6.635
 2469TIP3    H228967   7.031   3.772   6.668
 2470TIP3   OH228968   6.498   4.060   6.607
 2470TIP3    H128969   6.521   4.001   6.680
 2470TIP3    H228970   6.504   4.146   6.653
 2471TIP3   OH228971   5.922   3.918   7.893
 2471TIP3    H128972   5.884   3.834   7.926
 2471TIP3    H228973   6.015   3.913   7.923
 2472TIP3   OH228974   6.121   3.855   8.059
 2472TIP3    H128975   6.210   3.825   8.027
 2472TIP3    H228976   6.090   3.768   8.089
 2473TIP3   OH228977   6.965   3.786   8.066
 2473TIP3    H128978   6.973   3.738   8.151
 2473TIP3    H228979   7.056   3.783   8.030
 2474TIP3   OH228980   7.265   5.378   7.944
 2474TIP3    H128981   7.197   5.369   7.874
 2474TIP3    H228982   7.265   5.475   7.953
 2475TIP3   OH228983   1.186   6.660   6.931
 2475TIP3    H128984   1.187   6.758   6.926
 2475TIP3    H228985   1.114   6.638   6.870
 2476TIP3   OH228986   1.072   6.589   7.280
 2476TIP3    H128987   1.070   6.524   7.351
 2476TIP3    H228988   1.038   6.539   7.204
 2477TIP3   OH228989   0.312   6.554   7.431
 2477TIP3    H128990   0.318   6.487   7.503
 2477TIP3    H228991   0.382   6.615   7.458
 2478TIP3   OH228992   1.439   6.880   7.105
 2478TIP3    H128993   1.398   6.811   7.158
 2478TIP3    H228994   1.447   6.953   7.172
 2479TIP3   OH228995   0.401   7.000   7.288
 2479TIP3    H128996   0.367   6.916   7.252
 2479TIP3    H228997   0.496   6.979   7.289
 2480TIP3   OH228998   0.088   6.354   6.791
 2480TIP3    H128999   0.041   6.432   6.828
 2480TIP3    H229000   0.014   6.297   6.778
 2481TIP3   OH229001   0.133   6.573   7.043
 2481TIP3    H129002   0.161   6.497   7.096
 2481TIP3    H229003   0.206   6.589   6.983
 2482TIP3   OH229004   0.909   6.829   7.323
 2482TIP3    H129005   0.944   6.763   7.261
 2482TIP3    H229006   0.990   6.847   7.377
 2483TIP3   OH229007   1.770   5.994   7.399
 2483TIP3    H129008   1.787   6.053   7.475
 2483TIP3    H229009   1.826   6.036   7.333
 2484TIP3   OH229010   1.226   6.274   7.357
 2484TIP3    H129011   1.243   6.179   7.357
 2484TIP3    H229012   1.216   6.289   7.261
 2485TIP3   OH229013   0.537   6.083   7.079
 2485TIP3    H129014   0.549   6.166   7.030
 2485TIP3    H229015   0.498   6.027   7.008
 2486TIP3   OH229016   1.310   6.093   6.919
 2486TIP3    H129017   1.378   6.061   6.983
 2486TIP3    H229018   1.365   6.145   6.859
 2487TIP3   OH229019   0.200   6.320   7.147
 2487TIP3    H129020   0.270   6.269   7.194
 2487TIP3    H229021   0.215   6.289   7.057
 2488TIP3   OH229022   0.716   6.480   7.083
 2488TIP3    H129023   0.783   6.423   7.125
 2488TIP3    H229024   0.665   6.412   7.035
 2489TIP3   OH229025   1.814   6.135   7.626
 2489TIP3    H129026   1.752   6.211   7.616
 2489TIP3    H229027   1.817   6.126   7.722
 2490TIP3   OH229028   0.433   5.973   7.484
 2490TIP3    H129029   0.403   6.029   7.408
 2490TIP3    H229030   0.362   5.998   7.549
 2491TIP3   OH229031   1.154   6.920   6.840
 2491TIP3    H129032   1.133   6.894   6.749
 2491TIP3    H229033   1.130   7.013   6.842
 2492TIP3   OH229034   0.681   6.736   7.509
 2492TIP3    H129035   0.609   6.800   7.529
 2492TIP3    H229036   0.751   6.796   7.479
 2493TIP3   OH229037   1.491   6.026   7.114
 2493TIP3    H129038   1.471   5.950   7.169
 2493TIP3    H229039   1.559   6.071   7.167
 2494TIP3   OH229040   0.383   6.158   7.285
 2494TIP3    H129041   0.445   6.227   7.319
 2494TIP3    H229042   0.437   6.119   7.212
 2495TIP3   OH229043   0.525   6.937   7.587
 2495TIP3    H129044   0.519   7.028   7.553
 2495TIP3    H229045   0.436   6.928   7.630
 2496TIP3   OH229046   0.126   6.902   6.683
 2496TIP3    H129047   0.112   6.925   6.587
 2496TIP3    H229048   0.141   6.989   6.721
 2497TIP3   OH229049   1.519   7.044   7.313
 2497TIP3    H129050   1.428   7.049   7.345
 2497TIP3    H229051   1.532   7.141   7.322
 2498TIP3   OH229052   1.526   5.895   7.483
 2498TIP3    H129053   1.453   5.958   7.475
 2498TIP3    H229054   1.597   5.937   7.431
 2499TIP3   OH229055   0.823   5.707   7.230
 2499TIP3    H129056   0.810   5.610   7.222
 2499TIP3    H229057   0.735   5.736   7.260
 2500TIP3   OH229058   1.315   7.217   6.978
 2500TIP3    H129059   1.380   7.155   6.940
 2500TIP3    H229060   1.364   7.298   6.963
 2501TIP3   OH229061   1.440   7.031   6.854
 2501TIP3    H129062   1.412   6.962   6.792
 2501TIP3    H229063   1.444   6.985   6.940
 2502TIP3   OH229064   1.605   6.898   7.706
 2502TIP3    H129065   1.616   6.834   7.633
 2502TIP3    H229066   1.623   6.983   7.660
 2503TIP3   OH229067   1.053   6.591   6.683
 2503TIP3    H129068   0.982   6.644   6.643
 2503TIP3    H229069   1.121   6.594   6.613
 2504TIP3   OH229070   1.063   6.438   6.390
 2504TIP3    H129071   1.137   6.440   6.451
 2504TIP3    H229072   1.086   6.372   6.323
 2505TIP3   OH229073   1.791   6.528   7.509
 2505TIP3    H129074   1.725   6.600   7.513
 2505TIP3    H229075   1.839   6.553   7.427
 2506TIP3   OH229076   1.397   6.609   6.776
 2506TIP3    H129077   1.322   6.632   6.836
 2506TIP3    H229078   1.443   6.538   6.823
 2507TIP3   OH229079   1.389   6.424   7.684
 2507TIP3    H129080   1.390   6.506   7.737
 2507TIP3    H229081   1.326   6.453   7.615
 2508TIP3   OH229082   0.561   6.674   6.964
 2508TIP3    H129083   0.525   6.633   6.885
 2508TIP3    H229084   0.621   6.605   7.000
 2509TIP3   OH229085   0.700   7.020   7.226
 2509TIP3    H129086   0.689   6.956   7.154
 2509TIP3    H229087   0.766   6.974   7.281
 2510TIP3   OH229088   0.594   6.548   7.331
 2510TIP3    H129089   0.650   6.560   7.252
 2510TIP3    H229090   0.629   6.615   7.393
 2511TIP3   OH229091   1.141   7.088   7.396
 2511TIP3    H129092   1.195   7.156   7.442
 2511TIP3    H229093   1.191   7.014   7.437
 2512TIP3   OH229094   0.686   6.991   7.800
 2512TIP3    H129095   0.644   7.066   7.848
 2512TIP3    H229096   0.619   6.969   7.730
 2513TIP3   OH229097   1.280   6.524   6.542
 2513TIP3    H129098   1.339   6.542   6.619
 2513TIP3    H229099   1.325   6.575   6.472
 2514TIP3   OH229100   0.380   6.608   7.718
 2514TIP3    H129101   0.384   6.676   7.788
 2514TIP3    H229102   0.286   6.617   7.694
 2515TIP3   OH229103   1.039   7.199   6.901
 2515TIP3    H129104   1.113   7.230   6.957
 2515TIP3    H229105   1.007   7.278   6.852
 2516TIP3   OH229106   0.509   7.187   7.873
 2516TIP3    H129107   0.501   7.183   7.776
 2516TIP3    H229108   0.415   7.180   7.900
 2517TIP3   OH229109   1.768   7.139   6.364
 2517TIP3    H129110   1.778   7.232   6.387
 2517TIP3    H229111   1.859   7.104   6.359
 2518TIP3   OH229112   0.122   6.805   7.590
 2518TIP3    H129113   0.044   6.817   7.531
 2518TIP3    H229114   0.084   6.727   7.636
 2519TIP3   OH229115   0.067   7.110   7.272
 2519TIP3    H129116   0.154   7.079   7.297
 2519TIP3    H229117   0.044   7.169   7.345
 2520TIP3   OH229118   1.861   7.161   7.866
 2520TIP3    H129119   1.852   7.065   7.858
 2520TIP3    H229120   1.774   7.188   7.903
 2521TIP3   OH229121   0.957   7.116   7.752
 2521TIP3    H129122   0.968   7.201   7.797
 2521TIP3    H229123   0.870   7.080   7.776
 2522TIP3   OH229124   1.578   6.309   7.908
 2522TIP3    H129125   1.531   6.355   7.836
 2522TIP3    H229126   1.577   6.217   7.878
 2523TIP3   OH229127   0.296   6.955   7.715
 2523TIP3    H129128   0.312   6.912   7.801
 2523TIP3    H229129   0.212   6.914   7.686
 2524TIP3   OH229130   0.561   5.797   7.307
 2524TIP3    H129131   0.471   5.786   7.268
 2524TIP3    H229132   0.547   5.882   7.352
 2525TIP3   OH229133   1.023   5.768   7.644
 2525TIP3    H129134   1.066   5.721   7.718
 2525TIP3    H229135   0.927   5.747   7.655
 2526TIP3   OH229136   1.354   6.148   7.730
 2526TIP3    H129137   1.298   6.127   7.809
 2526TIP3    H229138   1.335   6.241   7.708
 2527TIP3   OH229139   0.569   6.294   7.429
 2527TIP3    H129140   0.495   6.295   7.493
 2527TIP3    H229141   0.567   6.386   7.393
 2528TIP3   OH229142   0.567   6.311   6.915
 2528TIP3    H129143   0.474   6.280   6.902
 2528TIP3    H229144   0.607   6.273   6.833
 2529TIP3   OH229145   1.115   6.353   6.787
 2529TIP3    H129146   1.080   6.441   6.759
 2529TIP3    H229147   1.190   6.342   6.728
 2530TIP3   OH229148   1.024   6.376   7.937
 2530TIP3    H129149   0.972   6.300   7.969
 2530TIP3    H229150   1.108   6.365   7.985
 2531TIP3   OH229151   1.221   6.305   7.077
 2531TIP3    H129152   1.194   6.361   7.002
 2531TIP3    H229153   1.232   6.220   7.029
 2532TIP3   OH229154   0.335   6.319   7.599
 2532TIP3    H129155   0.336   6.362   7.686
 2532TIP3    H229156   0.286   6.239   7.617
 2533TIP3   OH229157   0.032   6.062   6.976
 2533TIP3    H129158   0.067   6.029   7.062
 2533TIP3    H229159   0.050   5.988   6.918
 2534TIP3   OH229160   0.188   6.160   6.573
 2534TIP3    H129161   0.200   6.168   6.478
 2534TIP3    H229162   0.093   6.171   6.576
 2535TIP3   OH229163   1.142   6.464   7.534
 2535TIP3    H129164   1.179   6.396   7.475
 2535TIP3    H229165   1.096   6.411   7.601
 2536TIP3   OH229166   0.821   6.061   7.019
 2536TIP3    H129167   0.728   6.062   7.047
 2536TIP3    H229168   0.870   6.045   7.101
 2537TIP3   OH229169   0.303   6.217   6.902
 2537TIP3    H129170   0.215   6.231   6.864
 2537TIP3    H229171   0.331   6.132   6.863
 2538TIP3   OH229172   0.663   6.233   6.676
 2538TIP3    H129173   0.760   6.225   6.681
 2538TIP3    H229174   0.647   6.282   6.595
 2539TIP3   OH229175   1.263   5.984   7.342
 2539TIP3    H129176   1.193   5.991   7.411
 2539TIP3    H229177   1.212   5.961   7.263
 2540TIP3   OH229178   0.349   6.797   7.932
 2540TIP3    H129179   0.421   6.820   7.994
 2540TIP3    H229180   0.272   6.807   7.990
 2541TIP3   OH229181   0.950   6.337   7.206
 2541TIP3    H129182   1.010   6.284   7.152
 2541TIP3    H229183   0.936   6.282   7.284
 2542TIP3   OH229184   0.451   5.954   6.852
 2542TIP3    H129185   0.420   5.862   6.848
 2542TIP3    H229186   0.530   5.946   6.796
 2543TIP3   OH229187   0.812   6.168   7.452
 2543TIP3    H129188   0.732   6.224   7.455
 2543TIP3    H229189   0.870   6.207   7.520
 2544TIP3   OH229190   0.871   6.792   6.617
 2544TIP3    H129191   0.792   6.746   6.588
 2544TIP3    H229192   0.853   6.805   6.712
 2545TIP3   OH229193   1.592   6.710   7.497
 2545TIP3    H129194   1.648   6.762   7.436
 2545TIP3    H229195   1.505   6.719   7.451
 2546TIP3   OH229196   1.019   6.820   7.741
 2546TIP3    H129197   0.986   6.778   7.821
 2546TIP3    H229198   1.000   6.914   7.751
 2547TIP3   OH229199   0.382   6.730   7.195
 2547TIP3    H129200   0.453   6.725   7.129
 2547TIP3    H229201   0.393   6.647   7.245
 2548TIP3   OH229202   1.083   6.940   6.520
 2548TIP3    H129203   1.052   7.024   6.554
 2548TIP3    H229204   1.011   6.879   6.545
 2549TIP3   OH229205   0.080   6.570   7.724
 2549TIP3    H129206   0.106   6.527   7.807
 2549TIP3    H229207   0.021   6.507   7.681
 2550TIP3   OH229208   0.784   6.527   7.942
 2550TIP3    H129209   0.753   6.498   7.855
 2550TIP3    H229210   0.877   6.497   7.941
 2551TIP3   OH229211   1.251   7.059   7.733
 2551TIP3    H129212   1.160   7.078   7.708
 2551TIP3    H229213   1.248   7.087   7.827
 2552TIP3   OH229214   1.819   6.286   6.580
 2552TIP3    H129215   1.768   6.244   6.507
 2552TIP3    H229216   1.825   6.376   6.546
 2553TIP3   OH229217   1.821   6.864   7.856
 2553TIP3    H129218   1.731   6.888   7.821
 2553TIP3    H229219   1.873   6.860   7.774
 2554TIP3   OH229220   1.665   7.139   6.634
 2554TIP3    H129221   1.605   7.067   6.650
 2554TIP3    H229222   1.674   7.144   6.537
 2555TIP3   OH229223   1.370   6.644   7.326
 2555TIP3    H129224   1.275   6.623   7.314
 2555TIP3    H229225   1.412   6.567   7.283
 2556TIP3   OH229226   0.624   7.074   6.927
 2556TIP3    H129227   0.668   7.159   6.914
 2556TIP3    H229228   0.532   7.097   6.909
 2557TIP3   OH229229   0.766   6.844   6.886
 2557TIP3    H129230   0.734   6.936   6.897
 2557TIP3    H229231   0.693   6.796   6.931
 2558TIP3   OH229232   0.833   7.232   7.499
 2558TIP3    H129233   0.854   7.327   7.492
 2558TIP3    H229234   0.871   7.215   7.587
 2559TIP3   OH229235   1.163   6.853   7.494
 2559TIP3    H129236   1.128   6.838   7.583
 2559TIP3    H229237   1.229   6.785   7.477
 2560TIP3   OH229238   1.390   6.966   6.403
 2560TIP3    H129239   1.425   6.918   6.480
 2560TIP3    H229240   1.295   6.950   6.411
 2561TIP3   OH229241   0.250   6.045   7.675
 2561TIP3    H129242   0.162   6.086   7.681
 2561TIP3    H229243   0.238   5.964   7.724
 2562TIP3   OH229244   1.470   6.828   6.627
 2562TIP3    H129245   1.449   6.749   6.679
 2562TIP3    H229246   1.566   6.837   6.641
 2563TIP3   OH229247   0.232   7.226   7.514
 2563TIP3    H129248   0.237   7.130   7.523
 2563TIP3    H229249   0.229   7.255   7.606
 2564TIP3   OH229250   1.119   6.024   7.576
 2564TIP3    H129251   1.193   6.029   7.637
 2564TIP3    H229252   1.085   5.934   7.593
 2565TIP3   OH229253   0.916   6.159   6.763
 2565TIP3    H129254   0.997   6.212   6.770
 2565TIP3    H229255   0.890   6.142   6.855
 2566TIP3   OH229256   0.972   6.254   7.686
 2566TIP3    H129257   0.984   6.315   7.762
 2566TIP3    H229258   1.042   6.189   7.693
 2567TIP3   OH229259   1.012   5.863   6.858
 2567TIP3    H129260   0.968   5.926   6.917
 2567TIP3    H229261   1.074   5.921   6.812
 2568TIP3   OH229262   1.592   6.045   7.769
 2568TIP3    H129263   1.499   6.076   7.756
 2568TIP3    H229264   1.622   6.043   7.677
 2569TIP3   OH229265   1.452   6.424   7.172
 2569TIP3    H129266   1.371   6.378   7.142
 2569TIP3    H229267   1.501   6.354   7.222
 2570TIP3   OH229268   0.313   5.760   7.214
 2570TIP3    H129269   0.289   5.764   7.118
 2570TIP3    H229270   0.267   5.677   7.241
 2571TIP3   OH229271   0.207   7.155   6.831
 2571TIP3    H129272   0.120   7.196   6.829
 2571TIP3    H229273   0.256   7.202   6.763
 2572TIP3   OH229274   0.620   7.282   8.145
 2572TIP3    H129275   0.705   7.239   8.159
 2572TIP3    H229276   0.610   7.266   8.049
 2573TIP3   OH229277   1.248   7.116   7.984
 2573TIP3    H129278   1.205   7.044   8.032
 2573TIP3    H229279   1.314   7.150   8.045
 2574TIP3   OH229280   1.462   7.240   6.282
 2574TIP3    H129281   1.489   7.160   6.329
 2574TIP3    H229282   1.537   7.258   6.228
 2575TIP3   OH229283   0.111   6.792   8.061
 2575TIP3    H129284   0.136   6.705   8.023
 2575TIP3    H229285   0.044   6.824   7.999
 2576TIP3   OH229286   0.789   6.793   7.996
 2576TIP3    H129287   0.753   6.824   7.910
 2576TIP3    H229288   0.796   6.695   7.986
 2577TIP3   OH229289   1.358   6.780   7.739
 2577TIP3    H129290   1.435   6.839   7.728
 2577TIP3    H229291   1.288   6.847   7.740
 2578TIP3   OH229292   0.203   6.519   7.997
 2578TIP3    H129293   0.249   6.434   7.988
 2578TIP3    H229294   0.185   6.520   8.092
 2579TIP3   OH229295   0.598   6.411   7.734
 2579TIP3    H129296   0.538   6.483   7.760
 2579TIP3    H229297   0.637   6.449   7.653
 2580TIP3   OH229298   1.105   6.670   8.074
 2580TIP3    H129299   1.201   6.669   8.056
 2580TIP3    H229300   1.089   6.591   8.128
 2581TIP3   OH229301   0.645   6.148   7.837
 2581TIP3    H129302   0.646   6.085   7.764
 2581TIP3    H229303   0.631   6.233   7.789
 2582TIP3   OH229304   0.679   5.988   7.597
 2582TIP3    H129305   0.730   6.035   7.526
 2582TIP3    H229306   0.590   5.981   7.553
 2583TIP3   OH229307   0.833   6.537   7.619
 2583TIP3    H129308   0.908   6.521   7.561
 2583TIP3    H229309   0.797   6.621   7.586
 2584TIP3   OH229310   1.273   6.312   8.115
 2584TIP3    H129311   1.295   6.218   8.107
 2584TIP3    H229312   1.360   6.355   8.116
 2585TIP3   OH229313   1.406   6.593   7.933
 2585TIP3    H129314   1.381   6.665   7.871
 2585TIP3    H229315   1.501   6.590   7.910
 2586TIP3   OH229316   0.484   6.274   8.034
 2586TIP3    H129317   0.404   6.219   8.014
 2586TIP3    H229318   0.547   6.241   7.968
 2587TIP3   OH229319   0.751   5.738   7.643
 2587TIP3    H129320   0.742   5.830   7.611
 2587TIP3    H229321   0.686   5.694   7.583
 2588TIP3   OH229322   0.885   6.158   7.995
 2588TIP3    H129323   0.855   6.146   8.087
 2588TIP3    H229324   0.804   6.152   7.943
 2589TIP3   OH229325   1.155   6.077   7.901
 2589TIP3    H129326   1.061   6.087   7.918
 2589TIP3    H229327   1.185   6.017   7.972
 2590TIP3   OH229328   1.313   5.943   8.096
 2590TIP3    H129329   1.310   5.845   8.099
 2590TIP3    H229330   1.288   5.972   8.187
 2591TIP3   OH229331   0.309   6.067   8.009
 2591TIP3    H129332   0.318   5.993   7.948
 2591TIP3    H229333   0.286   6.025   8.095
 2592TIP3   OH229334   0.782   5.676   7.900
 2592TIP3    H129335   0.845   5.600   7.907
 2592TIP3    H229336   0.770   5.673   7.802
 2593TIP3   OH229337   0.816   5.834   8.111
 2593TIP3    H129338   0.798   5.776   8.034
 2593TIP3    H229339   0.755   5.910   8.108
 2594TIP3   OH229340   0.116   6.935   6.439
 2594TIP3    H129341   0.197   6.989   6.418
 2594TIP3    H229342   0.112   6.915   6.342
 2595TIP3   OH229343   1.635   6.945   8.118
 2595TIP3    H129344   1.545   6.942   8.157
 2595TIP3    H229345   1.673   7.024   8.162
 2596TIP3   OH229346   1.764   6.775   6.660
 2596TIP3    H129347   1.850   6.817   6.679
 2596TIP3    H229348   1.764   6.704   6.727
 2597TIP3   OH229349   1.803   6.585   6.848
 2597TIP3    H129350   1.727   6.536   6.887
 2597TIP3    H229351   1.861   6.599   6.926
 2598TIP3   OH229352   1.779   6.853   7.352
 2598TIP3    H129353   1.860   6.818   7.311
 2598TIP3    H229354   1.789   6.950   7.333
 2599TIP3   OH229355   1.630   7.137   7.585
 2599TIP3    H129356   1.558   7.184   7.629
 2599TIP3    H229357   1.578   7.112   7.506
 2600TIP3   OH229358   1.586   6.433   6.908
 2600TIP3    H129359   1.568   6.338   6.901
 2600TIP3    H229360   1.549   6.455   6.996
 2601TIP3   OH229361   0.086   6.640   7.305
 2601TIP3    H129362   0.106   6.636   7.209
 2601TIP3    H229363   0.173   6.629   7.347
 2602TIP3   OH229364   1.668   6.630   7.877
 2602TIP3    H129365   1.730   6.554   7.888
 2602TIP3    H229366   1.729   6.707   7.875
 2603TIP3   OH229367   1.818   6.419   7.941
 2603TIP3    H129368   1.731   6.378   7.924
 2603TIP3    H229369   1.876   6.341   7.933
 2604TIP3   OH229370   1.549   6.190   6.757
 2604TIP3    H129371   1.581   6.098   6.764
 2604TIP3    H229372   1.626   6.232   6.717
 2605TIP3   OH229373   1.613   6.246   7.297
 2605TIP3    H129374   1.709   6.269   7.295
 2605TIP3    H229375   1.594   6.260   7.391
 2606TIP3   OH229376   1.620   6.318   7.574
 2606TIP3    H129377   1.532   6.347   7.608
 2606TIP3    H229378   1.663   6.404   7.553
 2607TIP3   OH229379   0.071   6.151   7.921
 2607TIP3    H129380   0.159   6.145   7.962
 2607TIP3    H229381   0.012   6.092   7.974
 2608TIP3   OH229382   1.848   5.723   8.109
 2608TIP3    H129383   1.883   5.656   8.048
 2608TIP3    H229384   1.858   5.805   8.057
 2609TIP3   OH229385   1.616   5.918   6.759
 2609TIP3    H129386   1.639   5.874   6.843
 2609TIP3    H229387   1.555   5.859   6.713
 2610TIP3   OH229388   0.169   5.997   7.208
 2610TIP3    H129389   0.216   5.918   7.239
 2610TIP3    H229390   0.218   6.068   7.253
 2611TIP3   OH229391   0.051   6.374   7.352
 2611TIP3    H129392   0.052   6.331   7.264
 2611TIP3    H229393   0.058   6.465   7.325
 2612TIP3   OH229394   1.799   5.934   7.945
 2612TIP3    H129395   1.705   5.961   7.941
 2612TIP3    H229396   1.803   5.879   7.865
 2613TIP3   OH229397   0.081   5.920   6.684
 2613TIP3    H129398  -0.013   5.940   6.702
 2613TIP3    H229399   0.108   5.999   6.635
 2614TIP3   OH229400   7.354   5.790   7.570
 2614TIP3    H129401   7.266   5.766   7.606
 2614TIP3    H229402   7.311   5.843   7.500
 2615TIP3   OH229403   0.243   7.122   7.971
 2615TIP3    H129404   0.157   7.131   7.929
 2615TIP3    H229405   0.222   7.101   8.062
 2616TIP3   OH229406   0.547   7.214   7.607
 2616TIP3    H129407   0.498   7.289   7.569
 2616TIP3    H229408   0.632   7.212   7.562
 2617TIP3   OH229409   1.701   5.743   7.730
 2617TIP3    H129410   1.618   5.773   7.688
 2617TIP3    H229411   1.718   5.661   7.677
 2618TIP3   OH229412   0.464   7.245   7.135
 2618TIP3    H129413   0.415   7.174   7.181
 2618TIP3    H229414   0.515   7.284   7.207
 2619TIP3   OH229415   1.041   5.886   7.157
 2619TIP3    H129416   0.973   5.823   7.184
 2619TIP3    H229417   1.096   5.833   7.099
 2620TIP3   OH229418   1.554   5.691   7.165
 2620TIP3    H129419   1.615   5.751   7.115
 2620TIP3    H229420   1.466   5.727   7.142
 2621TIP3   OH229421   1.722   5.815   6.994
 2621TIP3    H129422   1.791   5.758   6.953
 2621TIP3    H229423   1.770   5.900   7.006
 2622TIP3   OH229424   0.276   5.748   6.947
 2622TIP3    H129425   0.199   5.727   6.891
 2622TIP3    H229426   0.327   5.665   6.935
 2623TIP3   OH229427   0.155   5.723   6.512
 2623TIP3    H129428   0.205   5.788   6.462
 2623TIP3    H229429   0.102   5.777   6.572
 2624TIP3   OH229430   0.728   5.739   6.923
 2624TIP3    H129431   0.815   5.780   6.913
 2624TIP3    H229432   0.723   5.720   7.016
 2625TIP3   OH229433   1.295   5.743   7.086
 2625TIP3    H129434   1.290   5.754   6.990
 2625TIP3    H229435   1.258   5.652   7.099
 2626TIP3   OH229436   0.259   5.800   7.889
 2626TIP3    H129437   0.233   5.718   7.936
 2626TIP3    H229438   0.352   5.800   7.924
 2627TIP3   OH229439   0.466   5.739   8.045
 2627TIP3    H129440   0.555   5.702   8.033
 2627TIP3    H229441   0.427   5.663   8.094
 2628TIP3   OH229442   1.307   5.670   8.067
 2628TIP3    H129443   1.317   5.622   8.152
 2628TIP3    H229444   1.398   5.667   8.032
 2629TIP3   OH229445   1.611  -0.032   7.952
 2629TIP3    H129446   1.550  -0.046   7.879
 2629TIP3    H229447   1.623   0.064   7.947
 2630TIP3   OH229448   3.068   6.660   6.933
 2630TIP3    H129449   3.073   6.759   6.924
 2630TIP3    H229450   2.999   6.639   6.869
 2631TIP3   OH229451   2.958   6.588   7.280
 2631TIP3    H129452   2.957   6.522   7.350
 2631TIP3    H229453   2.924   6.538   7.203
 2632TIP3   OH229454   2.193   6.555   7.434
 2632TIP3    H129455   2.201   6.487   7.505
 2632TIP3    H229456   2.268   6.613   7.456
 2633TIP3   OH229457   3.328   6.881   7.108
 2633TIP3    H129458   3.285   6.810   7.156
 2633TIP3    H229459   3.330   6.952   7.173
 2634TIP3   OH229460   2.287   7.000   7.288
 2634TIP3    H129461   2.254   6.915   7.253
 2634TIP3    H229462   2.382   6.981   7.289
 2635TIP3   OH229463   1.951   6.358   6.833
 2635TIP3    H129464   1.904   6.444   6.828
 2635TIP3    H229465   1.895   6.303   6.777
 2636TIP3   OH229466   2.020   6.579   7.045
 2636TIP3    H129467   2.047   6.497   7.091
 2636TIP3    H229468   2.092   6.590   6.981
 2637TIP3   OH229469   2.794   6.826   7.326
 2637TIP3    H129470   2.829   6.765   7.260
 2637TIP3    H229471   2.874   6.845   7.377
 2638TIP3   OH229472   3.653   5.995   7.399
 2638TIP3    H129473   3.673   6.053   7.476
 2638TIP3    H229474   3.711   6.035   7.332
 2639TIP3   OH229475   3.115   6.275   7.358
 2639TIP3    H129476   3.127   6.178   7.356
 2639TIP3    H229477   3.101   6.290   7.262
 2640TIP3   OH229478   2.423   6.083   7.079
 2640TIP3    H129479   2.434   6.167   7.030
 2640TIP3    H229480   2.383   6.027   7.010
 2641TIP3   OH229481   3.197   6.092   6.919
 2641TIP3    H129482   3.265   6.062   6.984
 2641TIP3    H229483   3.251   6.149   6.861
 2642TIP3   OH229484   2.086   6.325   7.153
 2642TIP3    H129485   2.153   6.270   7.198
 2642TIP3    H229486   2.096   6.294   7.061
 2643TIP3   OH229487   2.601   6.480   7.085
 2643TIP3    H129488   2.669   6.422   7.124
 2643TIP3    H229489   2.550   6.414   7.034
 2644TIP3   OH229490   3.696   6.134   7.627
 2644TIP3    H129491   3.642   6.214   7.614
 2644TIP3    H229492   3.708   6.125   7.722
 2645TIP3   OH229493   2.314   5.974   7.483
 2645TIP3    H129494   2.286   6.031   7.408
 2645TIP3    H229495   2.246   5.997   7.551
 2646TIP3   OH229496   3.038   6.918   6.842
 2646TIP3    H129497   3.022   6.897   6.749
 2646TIP3    H229498   3.015   7.013   6.843
 2647TIP3   OH229499   2.566   6.736   7.509
 2647TIP3    H129500   2.495   6.801   7.529
 2647TIP3    H229501   2.636   6.796   7.479
 2648TIP3   OH229502   3.378   6.026   7.115
 2648TIP3    H129503   3.356   5.950   7.170
 2648TIP3    H229504   3.445   6.071   7.169
 2649TIP3   OH229505   2.270   6.159   7.286
 2649TIP3    H129506   2.333   6.228   7.317
 2649TIP3    H229507   2.322   6.118   7.212
 2650TIP3   OH229508   2.411   6.938   7.588
 2650TIP3    H129509   2.405   7.028   7.553
 2650TIP3    H229510   2.323   6.929   7.631
 2651TIP3   OH229511   2.017   6.905   6.667
 2651TIP3    H129512   1.990   6.933   6.578
 2651TIP3    H229513   2.024   6.988   6.718
 2652TIP3   OH229514   3.381   7.070   7.353
 2652TIP3    H129515   3.282   7.074   7.357
 2652TIP3    H229516   3.406   7.157   7.318
 2653TIP3   OH229517   3.413   5.903   7.491
 2653TIP3    H129518   3.336   5.957   7.470
 2653TIP3    H229519   3.482   5.936   7.429
 2654TIP3   OH229520   2.708   5.707   7.230
 2654TIP3    H129521   2.694   5.610   7.222
 2654TIP3    H229522   2.621   5.738   7.260
 2655TIP3   OH229523   3.208   7.214   6.987
 2655TIP3    H129524   3.264   7.154   6.935
 2655TIP3    H229525   3.245   7.298   6.959
 2656TIP3   OH229526   3.335   7.028   6.850
 2656TIP3    H129527   3.290   6.965   6.793
 2656TIP3    H229528   3.328   6.986   6.938
 2657TIP3   OH229529   3.488   6.902   7.705
 2657TIP3    H129530   3.501   6.832   7.637
 2657TIP3    H229531   3.513   6.981   7.658
 2658TIP3   OH229532   2.937   6.587   6.682
 2658TIP3    H129533   2.866   6.644   6.646
 2658TIP3    H229534   3.009   6.595   6.617
 2659TIP3   OH229535   3.675   6.527   7.509
 2659TIP3    H129536   3.611   6.601   7.512
 2659TIP3    H229537   3.726   6.551   7.429
 2660TIP3   OH229538   3.284   6.608   6.773
 2660TIP3    H129539   3.209   6.633   6.832
 2660TIP3    H229540   3.329   6.540   6.827
 2661TIP3   OH229541   3.276   6.421   7.687
 2661TIP3    H129542   3.275   6.506   7.736
 2661TIP3    H229543   3.212   6.451   7.617
 2662TIP3   OH229544   2.444   6.674   6.964
 2662TIP3    H129545   2.412   6.635   6.879
 2662TIP3    H229546   2.505   6.604   6.998
 2663TIP3   OH229547   2.576   7.014   7.231
 2663TIP3    H129548   2.575   6.959   7.152
 2663TIP3    H229549   2.653   6.977   7.279
 2664TIP3   OH229550   2.477   6.548   7.330
 2664TIP3    H129551   2.532   6.558   7.250
 2664TIP3    H229552   2.515   6.614   7.392
 2665TIP3   OH229553   3.123   7.104   7.405
 2665TIP3    H129554   3.082   7.166   7.464
 2665TIP3    H229555   3.091   7.018   7.442
 2666TIP3   OH229556   2.571   6.991   7.800
 2666TIP3    H129557   2.529   7.066   7.848
 2666TIP3    H229558   2.505   6.969   7.730
 2667TIP3   OH229559   3.165   6.534   6.540
 2667TIP3    H129560   3.222   6.544   6.621
 2667TIP3    H229561   3.215   6.579   6.470
 2668TIP3   OH229562   2.265   6.607   7.716
 2668TIP3    H129563   2.271   6.674   7.787
 2668TIP3    H229564   2.172   6.616   7.694
 2669TIP3   OH229565   2.934   7.198   6.890
 2669TIP3    H129566   2.988   7.229   6.962
 2669TIP3    H229567   2.886   7.276   6.859
 2670TIP3   OH229568   2.395   7.187   7.874
 2670TIP3    H129569   2.388   7.183   7.776
 2670TIP3    H229570   2.301   7.180   7.900
 2671TIP3   OH229571   3.542   5.705   6.538
 2671TIP3    H129572   3.445   5.711   6.552
 2671TIP3    H229573   3.561   5.777   6.478
 2672TIP3   OH229574   2.342   6.578   6.721
 2672TIP3    H129575   2.313   6.657   6.674
 2672TIP3    H229576   2.275   6.510   6.704
 2673TIP3   OH229577   3.583   7.085   6.381
 2673TIP3    H129578   3.615   7.178   6.398
 2673TIP3    H229579   3.680   7.078   6.357
 2674TIP3   OH229580   1.949   6.819   7.615
 2674TIP3    H129581   1.905   6.810   7.528
 2674TIP3    H229582   1.957   6.724   7.637
 2675TIP3   OH229583   1.929   7.088   7.296
 2675TIP3    H129584   2.025   7.083   7.290
 2675TIP3    H229585   1.917   7.170   7.346
 2676TIP3   OH229586   3.744   7.162   7.863
 2676TIP3    H129587   3.739   7.065   7.859
 2676TIP3    H229588   3.659   7.185   7.904
 2677TIP3   OH229589   2.844   7.118   7.748
 2677TIP3    H129590   2.854   7.199   7.800
 2677TIP3    H229591   2.759   7.079   7.776
 2678TIP3   OH229592   3.469   6.318   7.924
 2678TIP3    H129593   3.427   6.371   7.854
 2678TIP3    H229594   3.475   6.223   7.903
 2679TIP3   OH229595   2.178   6.951   7.710
 2679TIP3    H129596   2.200   6.913   7.798
 2679TIP3    H229597   2.092   6.912   7.687
 2680TIP3   OH229598   2.446   5.797   7.305
 2680TIP3    H129599   2.355   5.785   7.268
 2680TIP3    H229600   2.433   5.880   7.353
 2681TIP3   OH229601   2.910   5.764   7.641
 2681TIP3    H129602   2.949   5.722   7.720
 2681TIP3    H229603   2.813   5.752   7.655
 2682TIP3   OH229604   3.212   6.141   7.719
 2682TIP3    H129605   3.170   6.123   7.808
 2682TIP3    H229606   3.199   6.236   7.703
 2683TIP3   OH229607   3.308   6.630   6.311
 2683TIP3    H129608   3.320   6.608   6.218
 2683TIP3    H229609   3.395   6.669   6.324
 2684TIP3   OH229610   2.456   6.295   7.429
 2684TIP3    H129611   2.382   6.293   7.493
 2684TIP3    H229612   2.450   6.385   7.392
 2685TIP3   OH229613   2.452   6.307   6.915
 2685TIP3    H129614   2.358   6.281   6.902
 2685TIP3    H229615   2.490   6.276   6.830
 2686TIP3   OH229616   3.002   6.354   6.792
 2686TIP3    H129617   2.964   6.439   6.759
 2686TIP3    H229618   3.074   6.339   6.727
 2687TIP3   OH229619   2.911   6.377   7.936
 2687TIP3    H129620   2.856   6.301   7.968
 2687TIP3    H229621   2.993   6.366   7.987
 2688TIP3   OH229622   3.105   6.305   7.077
 2688TIP3    H129623   3.081   6.362   7.001
 2688TIP3    H229624   3.117   6.220   7.030
 2689TIP3   OH229625   2.219   6.320   7.599
 2689TIP3    H129626   2.226   6.361   7.687
 2689TIP3    H229627   2.174   6.237   7.619
 2690TIP3   OH229628   2.559   6.071   6.289
 2690TIP3    H129629   2.515   6.016   6.356
 2690TIP3    H229630   2.485   6.092   6.231
 2691TIP3   OH229631   1.884   6.030   6.997
 2691TIP3    H129632   1.953   6.027   7.066
 2691TIP3    H229633   1.929   5.994   6.918
 2692TIP3   OH229634   2.018   6.108   6.541
 2692TIP3    H129635   2.061   6.164   6.474
 2692TIP3    H229636   1.938   6.161   6.559
 2693TIP3   OH229637   3.034   6.463   7.538
 2693TIP3    H129638   3.062   6.397   7.471
 2693TIP3    H229639   2.980   6.411   7.600
 2694TIP3   OH229640   2.707   6.062   7.018
 2694TIP3    H129641   2.613   6.062   7.047
 2694TIP3    H229642   2.756   6.046   7.100
 2695TIP3   OH229643   2.188   6.217   6.905
 2695TIP3    H129644   2.100   6.229   6.862
 2695TIP3    H229645   2.219   6.135   6.864
 2696TIP3   OH229646   2.550   6.223   6.670
 2696TIP3    H129647   2.646   6.229   6.684
 2696TIP3    H229648   2.531   6.286   6.599
 2697TIP3   OH229649   3.150   5.986   7.343
 2697TIP3    H129650   3.078   5.990   7.410
 2697TIP3    H229651   3.099   5.961   7.263
 2698TIP3   OH229652   2.423   6.341   6.426
 2698TIP3    H129653   2.366   6.302   6.358
 2698TIP3    H229654   2.505   6.360   6.378
 2699TIP3   OH229655   2.237   6.799   7.931
 2699TIP3    H129656   2.307   6.821   7.994
 2699TIP3    H229657   2.158   6.805   7.989
 2700TIP3   OH229658   2.836   6.337   7.207
 2700TIP3    H129659   2.895   6.283   7.153
 2700TIP3    H229660   2.821   6.282   7.285
 2701TIP3   OH229661   2.338   5.952   6.850
 2701TIP3    H129662   2.306   5.859   6.848
 2701TIP3    H229663   2.417   5.945   6.794
 2702TIP3   OH229664   2.699   6.170   7.447
 2702TIP3    H129665   2.616   6.222   7.457
 2702TIP3    H229666   2.755   6.205   7.519
 2703TIP3   OH229667   2.762   6.784   6.615
 2703TIP3    H129668   2.676   6.748   6.583
 2703TIP3    H229669   2.739   6.806   6.708
 2704TIP3   OH229670   3.477   6.709   7.497
 2704TIP3    H129671   3.534   6.759   7.436
 2704TIP3    H229672   3.391   6.719   7.451
 2705TIP3   OH229673   2.906   6.821   7.740
 2705TIP3    H129674   2.872   6.777   7.820
 2705TIP3    H229675   2.883   6.913   7.752
 2706TIP3   OH229676   3.216   6.265   6.605
 2706TIP3    H129677   3.306   6.250   6.638
 2706TIP3    H229678   3.224   6.342   6.547
 2707TIP3   OH229679   2.269   6.731   7.197
 2707TIP3    H129680   2.338   6.725   7.128
 2707TIP3    H229681   2.276   6.645   7.243
 2708TIP3   OH229682   1.968   6.572   7.724
 2708TIP3    H129683   1.986   6.528   7.809
 2708TIP3    H229684   1.907   6.511   7.680
 2709TIP3   OH229685   2.670   6.527   7.942
 2709TIP3    H129686   2.638   6.498   7.855
 2709TIP3    H229687   2.763   6.497   7.941
 2710TIP3   OH229688   3.138   7.070   7.730
 2710TIP3    H129689   3.044   7.075   7.711
 2710TIP3    H229690   3.133   7.085   7.828
 2711TIP3   OH229691   3.705   6.865   7.857
 2711TIP3    H129692   3.615   6.885   7.821
 2711TIP3    H229693   3.759   6.860   7.775
 2712TIP3   OH229694   3.547   7.163   6.626
 2712TIP3    H129695   3.493   7.088   6.655
 2712TIP3    H229696   3.549   7.144   6.531
 2713TIP3   OH229697   3.254   6.643   7.328
 2713TIP3    H129698   3.160   6.622   7.315
 2713TIP3    H229699   3.298   6.569   7.281
 2714TIP3   OH229700   2.509   7.075   6.930
 2714TIP3    H129701   2.558   7.157   6.913
 2714TIP3    H229702   2.419   7.099   6.904
 2715TIP3   OH229703   2.082   6.558   6.402
 2715TIP3    H129704   2.143   6.629   6.425
 2715TIP3    H229705   1.995   6.596   6.418
 2716TIP3   OH229706   2.651   6.843   6.891
 2716TIP3    H129707   2.620   6.935   6.898
 2716TIP3    H229708   2.576   6.795   6.932
 2717TIP3   OH229709   2.723   7.231   7.498
 2717TIP3    H129710   2.738   7.327   7.491
 2717TIP3    H229711   2.755   7.217   7.589
 2718TIP3   OH229712   3.047   6.863   7.491
 2718TIP3    H129713   3.012   6.841   7.580
 2718TIP3    H229714   3.110   6.791   7.474
 2719TIP3   OH229715   2.134   6.046   7.679
 2719TIP3    H129716   2.043   6.081   7.676
 2719TIP3    H229717   2.122   5.961   7.724
 2720TIP3   OH229718   2.095   7.221   7.521
 2720TIP3    H129719   2.124   7.130   7.524
 2720TIP3    H229720   2.116   7.255   7.609
 2721TIP3   OH229721   2.579   7.024   6.494
 2721TIP3    H129722   2.593   6.978   6.575
 2721TIP3    H229723   2.572   7.120   6.515
 2722TIP3   OH229724   3.006   6.021   7.571
 2722TIP3    H129725   3.075   6.029   7.638
 2722TIP3    H229726   2.967   5.934   7.593
 2723TIP3   OH229727   3.084   5.980   6.678
 2723TIP3    H129728   3.102   6.034   6.599
 2723TIP3    H229729   3.139   6.024   6.744
 2724TIP3   OH229730   2.803   6.157   6.765
 2724TIP3    H129731   2.883   6.213   6.767
 2724TIP3    H229732   2.779   6.143   6.858
 2725TIP3   OH229733   2.860   6.258   7.682
 2725TIP3    H129734   2.865   6.313   7.763
 2725TIP3    H229735   2.923   6.186   7.693
 2726TIP3   OH229736   2.890   5.861   6.856
 2726TIP3    H129737   2.857   5.927   6.919
 2726TIP3    H229738   2.958   5.916   6.809
 2727TIP3   OH229739   2.617   0.000   6.581
 2727TIP3    H129740   2.594   0.071   6.517
 2727TIP3    H229741   2.564   0.032   6.655
 2728TIP3   OH229742   2.456   5.969   6.527
 2728TIP3    H129743   2.450   6.060   6.561
 2728TIP3    H229744   2.549   5.948   6.550
 2729TIP3   OH229745   3.479   6.040   7.767
 2729TIP3    H129746   3.383   6.042   7.756
 2729TIP3    H229747   3.513   6.032   7.675
 2730TIP3   OH229748   3.339   6.424   7.170
 2730TIP3    H129749   3.257   6.379   7.142
 2730TIP3    H229750   3.387   6.354   7.220
 2731TIP3   OH229751   2.111   6.279   6.343
 2731TIP3    H129752   2.112   6.375   6.361
 2731TIP3    H229753   2.023   6.260   6.309
 2732TIP3   OH229754   2.194   5.761   7.216
 2732TIP3    H129755   2.174   5.763   7.120
 2732TIP3    H229756   2.153   5.677   7.242
 2733TIP3   OH229757   2.090   7.154   6.827
 2733TIP3    H129758   2.005   7.199   6.829
 2733TIP3    H229759   2.141   7.203   6.761
 2734TIP3   OH229760   2.506   7.281   8.145
 2734TIP3    H129761   2.591   7.239   8.159
 2734TIP3    H229762   2.496   7.266   8.049
 2735TIP3   OH229763   3.137   7.116   7.982
 2735TIP3    H129764   3.090   7.045   8.029
 2735TIP3    H229765   3.199   7.150   8.047
 2736TIP3   OH229766   3.344   7.236   6.281
 2736TIP3    H129767   3.375   7.160   6.331
 2736TIP3    H229768   3.416   7.260   6.224
 2737TIP3   OH229769   2.002   6.793   8.059
 2737TIP3    H129770   2.019   6.703   8.026
 2737TIP3    H229771   1.929   6.823   8.001
 2738TIP3   OH229772   2.676   6.794   7.995
 2738TIP3    H129773   2.639   6.824   7.910
 2738TIP3    H229774   2.682   6.695   7.986
 2739TIP3   OH229775   3.244   6.779   7.738
 2739TIP3    H129776   3.322   6.838   7.728
 2739TIP3    H229777   3.173   6.844   7.741
 2740TIP3   OH229778   2.094   6.520   7.998
 2740TIP3    H129779   2.134   6.433   7.989
 2740TIP3    H229780   2.070   6.520   8.093
 2741TIP3   OH229781   2.565   6.631   6.505
 2741TIP3    H129782   2.508   6.581   6.566
 2741TIP3    H229783   2.581   6.563   6.437
 2742TIP3   OH229784   2.484   6.413   7.734
 2742TIP3    H129785   2.424   6.485   7.760
 2742TIP3    H229786   2.523   6.450   7.652
 2743TIP3   OH229787   2.666   6.457   6.323
 2743TIP3    H129788   2.647   6.436   6.231
 2743TIP3    H229789   2.762   6.458   6.329
 2744TIP3   OH229790   2.990   6.670   8.074
 2744TIP3    H129791   3.086   6.668   8.055
 2744TIP3    H229792   2.974   6.591   8.128
 2745TIP3   OH229793   2.525   6.152   7.838
 2745TIP3    H129794   2.536   6.080   7.774
 2745TIP3    H229795   2.520   6.232   7.783
 2746TIP3   OH229796   2.564   5.989   7.594
 2746TIP3    H129797   2.615   6.035   7.524
 2746TIP3    H229798   2.475   5.981   7.553
 2747TIP3   OH229799   2.719   6.537   7.619
 2747TIP3    H129800   2.795   6.520   7.562
 2747TIP3    H229801   2.683   6.621   7.585
 2748TIP3   OH229802   3.160   6.312   8.109
 2748TIP3    H129803   3.180   6.218   8.113
 2748TIP3    H229804   3.246   6.355   8.118
 2749TIP3   OH229805   3.294   6.590   7.930
 2749TIP3    H129806   3.266   6.665   7.873
 2749TIP3    H229807   3.390   6.594   7.913
 2750TIP3   OH229808   2.371   6.275   8.034
 2750TIP3    H129809   2.293   6.219   8.013
 2750TIP3    H229810   2.435   6.240   7.968
 2751TIP3   OH229811   2.643   5.732   7.635
 2751TIP3    H129812   2.626   5.829   7.624
 2751TIP3    H229813   2.568   5.696   7.584
 2752TIP3   OH229814   2.771   6.166   7.996
 2752TIP3    H129815   2.740   6.143   8.086
 2752TIP3    H229816   2.692   6.146   7.941
 2753TIP3   OH229817   3.043   6.081   7.907
 2753TIP3    H129818   2.945   6.085   7.917
 2753TIP3    H229819   3.067   6.015   7.974
 2754TIP3   OH229820   3.200   5.943   8.095
 2754TIP3    H129821   3.195   5.845   8.099
 2754TIP3    H229822   3.174   5.971   8.186
 2755TIP3   OH229823   2.179   6.069   8.006
 2755TIP3    H129824   2.204   5.995   7.947
 2755TIP3    H229825   2.171   6.025   8.093
 2756TIP3   OH229826   2.665   5.671   7.904
 2756TIP3    H129827   2.733   5.600   7.901
 2756TIP3    H229828   2.654   5.687   7.808
 2757TIP3   OH229829   2.700   5.832   8.113
 2757TIP3    H129830   2.684   5.782   8.029
 2757TIP3    H229831   2.642   5.910   8.103
 2758TIP3   OH229832   2.008   6.985   6.376
 2758TIP3    H129833   2.102   6.994   6.401
 2758TIP3    H229834   2.009   6.919   6.304
 2759TIP3   OH229835   3.521   6.945   8.119
 2759TIP3    H129836   3.430   6.941   8.157
 2759TIP3    H229837   3.559   7.024   8.163
 2760TIP3   OH229838   3.663   6.856   7.352
 2760TIP3    H129839   3.743   6.818   7.312
 2760TIP3    H229840   3.677   6.950   7.331
 2761TIP3   OH229841   3.511   7.157   7.575
 2761TIP3    H129842   3.441   7.171   7.640
 2761TIP3    H229843   3.464   7.103   7.506
 2762TIP3   OH229844   3.557   6.289   6.345
 2762TIP3    H129845   3.564   6.363   6.280
 2762TIP3    H229846   3.530   6.217   6.289
 2763TIP3   OH229847   3.469   6.434   6.904
 2763TIP3    H129848   3.453   6.338   6.904
 2763TIP3    H229849   3.438   6.457   6.994
 2764TIP3   OH229850   1.969   6.642   7.312
 2764TIP3    H129851   1.987   6.633   7.216
 2764TIP3    H229852   2.058   6.624   7.348
 2765TIP3   OH229853   3.554   6.627   7.872
 2765TIP3    H129854   3.619   6.555   7.890
 2765TIP3    H229855   3.612   6.706   7.875
 2766TIP3   OH229856   3.706   6.419   7.937
 2766TIP3    H129857   3.618   6.379   7.928
 2766TIP3    H229858   3.765   6.342   7.935
 2767TIP3   OH229859   3.438   6.190   6.754
 2767TIP3    H129860   3.465   6.096   6.767
 2767TIP3    H229861   3.516   6.230   6.715
 2768TIP3   OH229862   3.499   6.245   7.297
 2768TIP3    H129863   3.595   6.269   7.293
 2768TIP3    H229864   3.480   6.261   7.389
 2769TIP3   OH229865   3.506   6.322   7.580
 2769TIP3    H129866   3.417   6.360   7.594
 2769TIP3    H229867   3.553   6.403   7.549
 2770TIP3   OH229868   1.931   6.170   7.926
 2770TIP3    H129869   2.025   6.151   7.947
 2770TIP3    H229870   1.885   6.089   7.957
 2771TIP3   OH229871   3.732   5.724   8.108
 2771TIP3    H129872   3.768   5.656   8.048
 2771TIP3    H229873   3.744   5.806   8.057
 2772TIP3   OH229874   3.503   5.919   6.756
 2772TIP3    H129875   3.522   5.875   6.842
 2772TIP3    H229876   3.440   5.855   6.714
 2773TIP3   OH229877   2.051   6.001   7.213
 2773TIP3    H129878   2.097   5.918   7.239
 2773TIP3    H229879   2.105   6.070   7.252
 2774TIP3   OH229880   1.879   6.300   7.317
 2774TIP3    H129881   1.935   6.276   7.240
 2774TIP3    H229882   1.925   6.381   7.344
 2775TIP3   OH229883   3.685   5.936   7.944
 2775TIP3    H129884   3.590   5.958   7.942
 2775TIP3    H229885   3.690   5.878   7.866
 2776TIP3   OH229886   1.916   5.931   6.728
 2776TIP3    H129887   1.822   5.944   6.708
 2776TIP3    H229888   1.958   5.972   6.650
 2777TIP3   OH229889   1.911   5.793   7.554
 2777TIP3    H129890   1.844   5.773   7.622
 2777TIP3    H229891   1.865   5.860   7.499
 2778TIP3   OH229892   2.134   7.118   7.971
 2778TIP3    H129893   2.048   7.132   7.926
 2778TIP3    H229894   2.106   7.103   8.062
 2779TIP3   OH229895   2.428   7.212   7.605
 2779TIP3    H129896   2.384   7.290   7.568
 2779TIP3    H229897   2.515   7.212   7.561
 2780TIP3   OH229898   3.586   5.745   7.729
 2780TIP3    H129899   3.503   5.771   7.687
 2780TIP3    H229900   3.605   5.662   7.678
 2781TIP3   OH229901   2.344   7.248   7.135
 2781TIP3    H129902   2.305   7.172   7.181
 2781TIP3    H229903   2.403   7.284   7.204
 2782TIP3   OH229904   2.926   5.886   7.159
 2782TIP3    H129905   2.858   5.822   7.186
 2782TIP3    H229906   2.981   5.833   7.100
 2783TIP3   OH229907   3.440   5.691   7.166
 2783TIP3    H129908   3.501   5.750   7.114
 2783TIP3    H229909   3.351   5.727   7.142
 2784TIP3   OH229910   3.606   5.815   6.993
 2784TIP3    H129911   3.675   5.758   6.952
 2784TIP3    H229912   3.656   5.898   7.008
 2785TIP3   OH229913   2.164   5.749   6.942
 2785TIP3    H129914   2.083   5.729   6.891
 2785TIP3    H229915   2.210   5.663   6.938
 2786TIP3   OH229916   2.611   5.740   6.922
 2786TIP3    H129917   2.701   5.777   6.914
 2786TIP3    H229918   2.607   5.719   7.015
 2787TIP3   OH229919   3.181   5.743   7.085
 2787TIP3    H129920   3.177   5.754   6.989
 2787TIP3    H229921   3.144   5.652   7.097
 2788TIP3   OH229922   3.307   5.747   6.659
 2788TIP3    H129923   3.235   5.806   6.634
 2788TIP3    H229924   3.261   5.661   6.673
 2789TIP3   OH229925   2.720   5.943   6.610
 2789TIP3    H129926   2.752   5.885   6.681
 2789TIP3    H229927   2.734   6.030   6.654
 2790TIP3   OH229928   2.151   5.802   7.888
 2790TIP3    H129929   2.113   5.723   7.931
 2790TIP3    H229930   2.243   5.799   7.925
 2791TIP3   OH229931   2.352   5.742   8.053
 2791TIP3    H129932   2.440   5.707   8.028
 2791TIP3    H229933   2.314   5.661   8.094
 2792TIP3   OH229934   3.192   5.670   8.067
 2792TIP3    H129935   3.202   5.622   8.152
 2792TIP3    H229936   3.284   5.668   8.032
 2793TIP3   OH229937   3.498  -0.033   7.948
 2793TIP3    H129938   3.431  -0.047   7.880
 2793TIP3    H229939   3.508   0.064   7.947
 2794TIP3   OH229940   4.957   6.661   6.931
 2794TIP3    H129941   4.957   6.759   6.925
 2794TIP3    H229942   4.885   6.638   6.870
 2795TIP3   OH229943   4.843   6.588   7.279
 2795TIP3    H129944   4.841   6.523   7.351
 2795TIP3    H229945   4.809   6.538   7.203
 2796TIP3   OH229946   4.078   6.555   7.435
 2796TIP3    H129947   4.087   6.487   7.505
 2796TIP3    H229948   4.153   6.613   7.456
 2797TIP3   OH229949   5.213   6.883   7.107
 2797TIP3    H129950   5.173   6.811   7.156
 2797TIP3    H229951   5.215   6.954   7.173
 2798TIP3   OH229952   4.173   7.000   7.288
 2798TIP3    H129953   4.139   6.915   7.253
 2798TIP3    H229954   4.268   6.981   7.289
 2799TIP3   OH229955   3.835   6.360   6.829
 2799TIP3    H129956   3.791   6.446   6.835
 2799TIP3    H229957   3.777   6.303   6.780
 2800TIP3   OH229958   3.905   6.577   7.042
 2800TIP3    H129959   3.932   6.498   7.092
 2800TIP3    H229960   3.980   6.591   6.983
 2801TIP3   OH229961   4.679   6.826   7.326
 2801TIP3    H129962   4.714   6.765   7.260
 2801TIP3    H229963   4.760   6.845   7.377
 2802TIP3   OH229964   5.541   5.994   7.400
 2802TIP3    H129965   5.558   6.054   7.476
 2802TIP3    H229966   5.596   6.036   7.333
 2803TIP3   OH229967   4.997   6.275   7.357
 2803TIP3    H129968   5.014   6.179   7.357
 2803TIP3    H229969   4.987   6.289   7.261
 2804TIP3   OH229970   4.308   6.084   7.079
 2804TIP3    H129971   4.319   6.168   7.030
 2804TIP3    H229972   4.268   6.026   7.011
 2805TIP3   OH229973   5.084   6.092   6.917
 2805TIP3    H129974   5.151   6.060   6.982
 2805TIP3    H229975   5.137   6.148   6.860
 2806TIP3   OH229976   3.971   6.324   7.154
 2806TIP3    H129977   4.039   6.270   7.198
 2806TIP3    H229978   3.983   6.294   7.063
 2807TIP3   OH229979   4.487   6.479   7.084
 2807TIP3    H129980   4.554   6.422   7.124
 2807TIP3    H229981   4.436   6.414   7.032
 2808TIP3   OH229982   5.585   6.135   7.627
 2808TIP3    H129983   5.524   6.212   7.617
 2808TIP3    H229984   5.589   6.128   7.723
 2809TIP3   OH229985   4.199   5.974   7.483
 2809TIP3    H129986   4.172   6.031   7.408
 2809TIP3    H229987   4.131   5.997   7.551
 2810TIP3   OH229988   4.930   6.921   6.841
 2810TIP3    H129989   4.902   6.895   6.752
 2810TIP3    H229990   4.897   7.013   6.843
 2811TIP3   OH229991   4.451   6.736   7.509
 2811TIP3    H129992   4.380   6.801   7.529
 2811TIP3    H229993   4.522   6.796   7.479
 2812TIP3   OH229994   5.263   6.027   7.116
 2812TIP3    H129995   5.242   5.949   7.168
 2812TIP3    H229996   5.329   6.070   7.172
 2813TIP3   OH229997   4.156   6.160   7.286
 2813TIP3    H129998   4.219   6.228   7.317
 2813TIP3    H229999   4.208   6.118   7.213
 2814TIP3   OH230000   4.297   6.938   7.588
 2814TIP3    H130001   4.291   7.028   7.553
 2814TIP3    H230002   4.208   6.929   7.631
 2815TIP3   OH230003   3.896   6.906   6.677
 2815TIP3    H130004   3.881   6.925   6.585
 2815TIP3    H230005   3.913   6.989   6.725
 2816TIP3   OH230006   5.265   7.068   7.348
 2816TIP3    H130007   5.167   7.075   7.358
 2816TIP3    H230008   5.292   7.158   7.324
 2817TIP3   OH230009   5.297   5.895   7.483
 2817TIP3    H130010   5.224   5.958   7.475
 2817TIP3    H230011   5.368   5.938   7.432
 2818TIP3   OH230012   4.594   5.707   7.231
 2818TIP3    H130013   4.580   5.610   7.223
 2818TIP3    H230014   4.506   5.737   7.260
 2819TIP3   OH230015   5.093   7.215   6.985
 2819TIP3    H130016   5.150   7.154   6.935
 2819TIP3    H230017   5.132   7.298   6.959
 2820TIP3   OH230018   5.219   7.029   6.852
 2820TIP3    H130019   5.178   6.963   6.795
 2820TIP3    H230020   5.216   6.986   6.940
 2821TIP3   OH230021   5.374   6.902   7.704
 2821TIP3    H130022   5.388   6.833   7.635
 2821TIP3    H230023   5.397   6.984   7.657
 2822TIP3   OH230024   4.827   6.590   6.682
 2822TIP3    H130025   4.754   6.645   6.646
 2822TIP3    H230026   4.892   6.594   6.610
 2823TIP3   OH230027   5.562   6.527   7.503
 2823TIP3    H130028   5.496   6.599   7.515
 2823TIP3    H230029   5.611   6.553   7.424
 2824TIP3   OH230030   5.165   6.609   6.774
 2824TIP3    H130031   5.092   6.633   6.835
 2824TIP3    H230032   5.214   6.542   6.826
 2825TIP3   OH230033   5.161   6.424   7.683
 2825TIP3    H130034   5.163   6.504   7.738
 2825TIP3    H230035   5.097   6.455   7.615
 2826TIP3   OH230036   4.328   6.673   6.969
 2826TIP3    H130037   4.297   6.637   6.881
 2826TIP3    H230038   4.392   6.604   6.997
 2827TIP3   OH230039   4.461   7.014   7.232
 2827TIP3    H130040   4.461   6.959   7.152
 2827TIP3    H230041   4.538   6.977   7.279
 2828TIP3   OH230042   4.362   6.548   7.330
 2828TIP3    H130043   4.418   6.559   7.250
 2828TIP3    H230044   4.401   6.614   7.392
 2829TIP3   OH230045   5.006   7.104   7.403
 2829TIP3    H130046   4.971   7.167   7.465
 2829TIP3    H230047   4.977   7.019   7.442
 2830TIP3   OH230048   4.457   6.991   7.800
 2830TIP3    H130049   4.415   7.066   7.848
 2830TIP3    H230050   4.390   6.969   7.730
 2831TIP3   OH230051   5.055   6.526   6.541
 2831TIP3    H130052   5.110   6.545   6.621
 2831TIP3    H230053   5.097   6.577   6.472
 2832TIP3   OH230054   4.151   6.607   7.716
 2832TIP3    H130055   4.156   6.674   7.787
 2832TIP3    H230056   4.057   6.617   7.694
 2833TIP3   OH230057   4.822   7.196   6.895
 2833TIP3    H130058   4.874   7.232   6.967
 2833TIP3    H230059   4.773   7.271   6.858
 2834TIP3   OH230060   4.280   7.187   7.874
 2834TIP3    H130061   4.274   7.183   7.776
 2834TIP3    H230062   4.186   7.180   7.900
 2835TIP3   OH230063   4.224   6.584   6.733
 2835TIP3    H130064   4.205   6.654   6.670
 2835TIP3    H230065   4.168   6.513   6.700
 2836TIP3   OH230066   3.835   6.819   7.615
 2836TIP3    H130067   3.791   6.811   7.528
 2836TIP3    H230068   3.842   6.724   7.637
 2837TIP3   OH230069   3.813   7.089   7.297
 2837TIP3    H130070   3.909   7.081   7.288
 2837TIP3    H230071   3.808   7.171   7.346
 2838TIP3   OH230072   5.632   7.161   7.865
 2838TIP3    H130073   5.623   7.065   7.858
 2838TIP3    H230074   5.546   7.187   7.903
 2839TIP3   OH230075   4.729   7.118   7.748
 2839TIP3    H130076   4.739   7.199   7.800
 2839TIP3    H230077   4.644   7.079   7.776
 2840TIP3   OH230078   5.332   6.289   7.900
 2840TIP3    H130079   5.303   6.351   7.832
 2840TIP3    H230080   5.348   6.203   7.862
 2841TIP3   OH230081   4.063   6.952   7.710
 2841TIP3    H130082   4.085   6.913   7.797
 2841TIP3    H230083   3.977   6.911   7.687
 2842TIP3   OH230084   4.331   5.797   7.304
 2842TIP3    H130085   4.241   5.785   7.268
 2842TIP3    H230086   4.319   5.881   7.353
 2843TIP3   OH230087   4.796   5.764   7.641
 2843TIP3    H130088   4.835   5.722   7.720
 2843TIP3    H230089   4.698   5.752   7.655
 2844TIP3   OH230090   5.121   6.146   7.726
 2844TIP3    H130091   5.071   6.128   7.810
 2844TIP3    H230092   5.109   6.241   7.709
 2845TIP3   OH230093   4.342   6.294   7.429
 2845TIP3    H130094   4.268   6.293   7.493
 2845TIP3    H230095   4.337   6.386   7.393
 2846TIP3   OH230096   4.337   6.305   6.918
 2846TIP3    H130097   4.243   6.283   6.902
 2846TIP3    H230098   4.377   6.280   6.833
 2847TIP3   OH230099   4.886   6.355   6.790
 2847TIP3    H130100   4.847   6.439   6.758
 2847TIP3    H230101   4.959   6.341   6.728
 2848TIP3   OH230102   4.797   6.377   7.937
 2848TIP3    H130103   4.744   6.300   7.968
 2848TIP3    H230104   4.881   6.366   7.985
 2849TIP3   OH230105   4.992   6.305   7.076
 2849TIP3    H130106   4.965   6.361   7.001
 2849TIP3    H230107   5.003   6.220   7.030
 2850TIP3   OH230108   4.104   6.320   7.599
 2850TIP3    H130109   4.111   6.361   7.687
 2850TIP3    H230110   4.060   6.237   7.619
 2851TIP3   OH230111   3.770   6.032   6.994
 2851TIP3    H130112   3.836   6.028   7.067
 2851TIP3    H230113   3.817   5.992   6.919
 2852TIP3   OH230114   4.913   6.464   7.534
 2852TIP3    H130115   4.951   6.396   7.475
 2852TIP3    H230116   4.867   6.411   7.601
 2853TIP3   OH230117   4.591   6.062   7.018
 2853TIP3    H130118   4.498   6.062   7.049
 2853TIP3    H230119   4.642   6.045   7.099
 2854TIP3   OH230120   4.075   6.218   6.900
 2854TIP3    H130121   3.985   6.231   6.865
 2854TIP3    H230122   4.102   6.131   6.866
 2855TIP3   OH230123   5.033   5.985   7.341
 2855TIP3    H130124   4.965   5.990   7.411
 2855TIP3    H230125   4.983   5.960   7.262
 2856TIP3   OH230126   4.122   6.799   7.931
 2856TIP3    H130127   4.193   6.821   7.994
 2856TIP3    H230128   4.043   6.805   7.989
 2857TIP3   OH230129   4.723   6.338   7.207
 2857TIP3    H130130   4.781   6.284   7.153
 2857TIP3    H230131   4.707   6.282   7.285
 2858TIP3   OH230132   4.221   5.953   6.843
 2858TIP3    H130133   4.192   5.860   6.851
 2858TIP3    H230134   4.303   5.943   6.794
 2859TIP3   OH230135   4.586   6.170   7.448
 2859TIP3    H130136   4.503   6.222   7.457
 2859TIP3    H230137   4.641   6.205   7.520
 2860TIP3   OH230138   4.645   6.782   6.620
 2860TIP3    H130139   4.561   6.750   6.582
 2860TIP3    H230140   4.619   6.806   6.710
 2861TIP3   OH230141   5.362   6.713   7.497
 2861TIP3    H130142   5.419   6.762   7.436
 2861TIP3    H230143   5.276   6.718   7.451
 2862TIP3   OH230144   5.027   6.077   6.434
 2862TIP3    H130145   4.933   6.089   6.423
 2862TIP3    H230146   5.056   6.163   6.469
 2863TIP3   OH230147   4.791   6.820   7.740
 2863TIP3    H130148   4.759   6.777   7.821
 2863TIP3    H230149   4.769   6.913   7.753
 2864TIP3   OH230150   5.103   6.264   6.603
 2864TIP3    H130151   5.194   6.254   6.636
 2864TIP3    H230152   5.104   6.346   6.549
 2865TIP3   OH230153   4.154   6.731   7.197
 2865TIP3    H130154   4.223   6.724   7.128
 2865TIP3    H230155   4.161   6.645   7.242
 2866TIP3   OH230156   4.858   6.934   6.529
 2866TIP3    H130157   4.820   7.022   6.552
 2866TIP3    H230158   4.776   6.880   6.538
 2867TIP3   OH230159   3.853   6.573   7.724
 2867TIP3    H130160   3.874   6.528   7.809
 2867TIP3    H230161   3.793   6.510   7.680
 2868TIP3   OH230162   4.555   6.527   7.942
 2868TIP3    H130163   4.524   6.498   7.855
 2868TIP3    H230164   4.648   6.497   7.941
 2869TIP3   OH230165   5.023   7.067   7.730
 2869TIP3    H130166   4.929   7.076   7.711
 2869TIP3    H230167   5.020   7.086   7.827
 2870TIP3   OH230168   5.593   6.870   7.856
 2870TIP3    H130169   5.502   6.886   7.821
 2870TIP3    H230170   5.645   6.858   7.774
 2871TIP3   OH230171   5.436   7.158   6.621
 2871TIP3    H130172   5.377   7.087   6.652
 2871TIP3    H230173   5.440   7.140   6.527
 2872TIP3   OH230174   5.140   6.644   7.326
 2872TIP3    H130175   5.046   6.623   7.315
 2872TIP3    H230176   5.183   6.568   7.283
 2873TIP3   OH230177   4.395   7.074   6.932
 2873TIP3    H130178   4.444   7.156   6.915
 2873TIP3    H230179   4.306   7.097   6.905
 2874TIP3   OH230180   4.539   6.843   6.894
 2874TIP3    H130181   4.506   6.935   6.896
 2874TIP3    H230182   4.461   6.795   6.928
 2875TIP3   OH230183   4.609   7.231   7.498
 2875TIP3    H130184   4.623   7.327   7.491
 2875TIP3    H230185   4.640   7.217   7.588
 2876TIP3   OH230186   4.933   6.863   7.491
 2876TIP3    H130187   4.898   6.841   7.580
 2876TIP3    H230188   4.996   6.791   7.474
 2877TIP3   OH230189   5.162   6.958   6.395
 2877TIP3    H130190   5.190   6.923   6.482
 2877TIP3    H230191   5.066   6.954   6.408
 2878TIP3   OH230192   4.020   6.046   7.679
 2878TIP3    H130193   3.930   6.081   7.676
 2878TIP3    H230194   4.008   5.961   7.724
 2879TIP3   OH230195   5.244   6.828   6.623
 2879TIP3    H130196   5.217   6.754   6.680
 2879TIP3    H230197   5.337   6.837   6.647
 2880TIP3   OH230198   3.978   7.221   7.522
 2880TIP3    H130199   4.010   7.130   7.523
 2880TIP3    H230200   4.004   7.254   7.609
 2881TIP3   OH230201   4.893   6.023   7.574
 2881TIP3    H130202   4.964   6.029   7.638
 2881TIP3    H230203   4.854   5.935   7.594
 2882TIP3   OH230204   4.971   5.983   6.683
 2882TIP3    H130205   4.992   6.031   6.601
 2882TIP3    H230206   5.026   6.025   6.749
 2883TIP3   OH230207   4.745   7.213   6.583
 2883TIP3    H130208   4.652   7.238   6.570
 2883TIP3    H230209   4.787   7.240   6.500
 2884TIP3   OH230210   4.690   6.154   6.763
 2884TIP3    H130211   4.767   6.213   6.768
 2884TIP3    H230212   4.662   6.142   6.855
 2885TIP3   OH230213   4.744   6.257   7.684
 2885TIP3    H130214   4.753   6.313   7.763
 2885TIP3    H230215   4.811   6.188   7.693
 2886TIP3   OH230216   4.777   5.861   6.857
 2886TIP3    H130217   4.741   5.928   6.918
 2886TIP3    H230218   4.843   5.916   6.809
 2887TIP3   OH230219   4.468   0.005   6.561
 2887TIP3    H130220   4.491   0.087   6.517
 2887TIP3    H230221   4.453   0.032   6.653
 2888TIP3   OH230222   5.362   6.043   7.767
 2888TIP3    H130223   5.270   6.077   7.756
 2888TIP3    H230224   5.394   6.045   7.676
 2889TIP3   OH230225   5.222   6.424   7.173
 2889TIP3    H130226   5.142   6.378   7.142
 2889TIP3    H230227   5.271   6.354   7.222
 2890TIP3   OH230228   4.080   5.762   7.216
 2890TIP3    H130229   4.060   5.763   7.120
 2890TIP3    H230230   4.038   5.677   7.242
 2891TIP3   OH230231   3.971   7.152   6.818
 2891TIP3    H130232   3.889   7.201   6.831
 2891TIP3    H230233   4.029   7.207   6.765
 2892TIP3   OH230234   4.392   7.282   8.145
 2892TIP3    H130235   4.476   7.239   8.160
 2892TIP3    H230236   4.382   7.266   8.049
 2893TIP3   OH230237   4.750   7.144   6.326
 2893TIP3    H130238   4.679   7.198   6.294
 2893TIP3    H230239   4.822   7.173   6.268
 2894TIP3   OH230240   5.022   7.115   7.982
 2894TIP3    H130241   4.976   7.045   8.030
 2894TIP3    H230242   5.085   7.150   8.046
 2895TIP3   OH230243   5.278   7.192   6.367
 2895TIP3    H130244   5.245   7.107   6.334
 2895TIP3    H230245   5.274   7.242   6.282
 2896TIP3   OH230246   3.887   6.793   8.059
 2896TIP3    H130247   3.904   6.703   8.026
 2896TIP3    H230248   3.815   6.824   8.001
 2897TIP3   OH230249   4.561   6.793   7.996
 2897TIP3    H130250   4.524   6.824   7.910
 2897TIP3    H230251   4.568   6.695   7.986
 2898TIP3   OH230252   5.128   6.782   7.734
 2898TIP3    H130253   5.208   6.838   7.730
 2898TIP3    H230254   5.058   6.849   7.742
 2899TIP3   OH230255   3.975   6.519   7.997
 2899TIP3    H130256   4.020   6.434   7.989
 2899TIP3    H230257   3.957   6.521   8.093
 2900TIP3   OH230258   4.369   6.413   7.734
 2900TIP3    H130259   4.309   6.485   7.760
 2900TIP3    H230260   4.408   6.450   7.652
 2901TIP3   OH230261   4.877   6.670   8.073
 2901TIP3    H130262   4.973   6.668   8.055
 2901TIP3    H230263   4.861   6.591   8.128
 2902TIP3   OH230264   5.481   6.687   6.269
 2902TIP3    H130265   5.463   6.643   6.186
 2902TIP3    H230266   5.490   6.779   6.244
 2903TIP3   OH230267   4.409   6.152   7.838
 2903TIP3    H130268   4.421   6.080   7.774
 2903TIP3    H230269   4.405   6.232   7.783
 2904TIP3   OH230270   4.450   5.989   7.594
 2904TIP3    H130271   4.501   6.035   7.524
 2904TIP3    H230272   4.361   5.981   7.553
 2905TIP3   OH230273   4.604   6.537   7.618
 2905TIP3    H130274   4.679   6.521   7.561
 2905TIP3    H230275   4.568   6.621   7.586
 2906TIP3   OH230276   5.046   6.314   8.116
 2906TIP3    H130277   5.067   6.220   8.107
 2906TIP3    H230278   5.134   6.356   8.115
 2907TIP3   OH230279   5.175   6.595   7.929
 2907TIP3    H130280   5.155   6.667   7.867
 2907TIP3    H230281   5.272   6.587   7.916
 2908TIP3   OH230282   4.257   6.275   8.034
 2908TIP3    H130283   4.179   6.219   8.013
 2908TIP3    H230284   4.321   6.240   7.968
 2909TIP3   OH230285   4.528   5.732   7.635
 2909TIP3    H130286   4.512   5.829   7.624
 2909TIP3    H230287   4.454   5.696   7.584
 2910TIP3   OH230288   4.656   6.166   7.997
 2910TIP3    H130289   4.625   6.144   8.086
 2910TIP3    H230290   4.578   6.147   7.941
 2911TIP3   OH230291   4.927   6.079   7.903
 2911TIP3    H130292   4.831   6.085   7.916
 2911TIP3    H230293   4.955   6.016   7.972
 2912TIP3   OH230294   5.084   5.943   8.095
 2912TIP3    H130295   5.081   5.845   8.099
 2912TIP3    H230296   5.059   5.972   8.187
 2913TIP3   OH230297   4.065   6.069   8.006
 2913TIP3    H130298   4.090   5.995   7.947
 2913TIP3    H230299   4.056   6.025   8.093
 2914TIP3   OH230300   4.550   5.671   7.904
 2914TIP3    H130301   4.618   5.600   7.901
 2914TIP3    H230302   4.540   5.687   7.808
 2915TIP3   OH230303   4.585   5.832   8.113
 2915TIP3    H130304   4.569   5.782   8.029
 2915TIP3    H230305   4.527   5.910   8.102
 2916TIP3   OH230306   3.967   6.962   6.310
 2916TIP3    H130307   3.997   6.973   6.401
 2916TIP3    H230308   3.904   6.889   6.308
 2917TIP3   OH230309   5.403   6.952   8.112
 2917TIP3    H130310   5.317   6.939   8.158
 2917TIP3    H230311   5.444   7.025   8.164
 2918TIP3   OH230312   5.538   6.773   6.662
 2918TIP3    H130313   5.618   6.819   6.685
 2918TIP3    H230314   5.536   6.702   6.731
 2919TIP3   OH230315   5.572   6.587   6.850
 2919TIP3    H130316   5.498   6.534   6.887
 2919TIP3    H230317   5.633   6.594   6.925
 2920TIP3   OH230318   5.549   6.854   7.351
 2920TIP3    H130319   5.629   6.816   7.313
 2920TIP3    H230320   5.560   6.950   7.334
 2921TIP3   OH230321   5.399   7.144   7.580
 2921TIP3    H130322   5.330   7.179   7.635
 2921TIP3    H230323   5.348   7.105   7.505
 2922TIP3   OH230324   5.607   6.569   6.488
 2922TIP3    H130325   5.547   6.600   6.416
 2922TIP3    H230326   5.591   6.636   6.557
 2923TIP3   OH230327   5.350   6.434   6.906
 2923TIP3    H130328   5.342   6.337   6.906
 2923TIP3    H230329   5.319   6.458   6.995
 2924TIP3   OH230330   3.854   6.642   7.312
 2924TIP3    H130331   3.872   6.634   7.216
 2924TIP3    H230332   3.944   6.624   7.348
 2925TIP3   OH230333   5.445   6.639   7.843
 2925TIP3    H130334   5.486   6.561   7.887
 2925TIP3    H230335   5.501   6.710   7.877
 2926TIP3   OH230336   5.609   6.404   7.885
 2926TIP3    H130337   5.519   6.391   7.922
 2926TIP3    H230338   5.655   6.332   7.932
 2927TIP3   OH230339   5.385   6.248   7.299
 2927TIP3    H130340   5.481   6.269   7.294
 2927TIP3    H230341   5.368   6.262   7.394
 2928TIP3   OH230342   5.390   6.318   7.568
 2928TIP3    H130343   5.305   6.347   7.609
 2928TIP3    H230344   5.435   6.405   7.556
 2929TIP3   OH230345   3.816   6.170   7.925
 2929TIP3    H130346   3.910   6.153   7.946
 2929TIP3    H230347   3.774   6.088   7.959
 2930TIP3   OH230348   5.620   5.721   8.108
 2930TIP3    H130349   5.654   5.655   8.047
 2930TIP3    H230350   5.629   5.804   8.057
 2931TIP3   OH230351   3.936   6.001   7.213
 2931TIP3    H130352   3.983   5.918   7.239
 2931TIP3    H230353   3.991   6.070   7.252
 2932TIP3   OH230354   3.764   6.300   7.319
 2932TIP3    H130355   3.819   6.276   7.242
 2932TIP3    H230356   3.811   6.382   7.343
 2933TIP3   OH230357   5.571   5.931   7.946
 2933TIP3    H130358   5.478   5.963   7.941
 2933TIP3    H230359   5.574   5.879   7.864
 2934TIP3   OH230360   3.800   5.930   6.723
 2934TIP3    H130361   3.705   5.944   6.712
 2934TIP3    H230362   3.847   5.972   6.653
 2935TIP3   OH230363   3.797   5.792   7.554
 2935TIP3    H130364   3.730   5.772   7.621
 2935TIP3    H230365   3.751   5.859   7.499
 2936TIP3   OH230366   4.018   7.119   7.972
 2936TIP3    H130367   3.934   7.132   7.926
 2936TIP3    H230368   3.991   7.102   8.063
 2937TIP3   OH230369   4.314   7.212   7.604
 2937TIP3    H130370   4.270   7.290   7.568
 2937TIP3    H230371   4.400   7.212   7.562
 2938TIP3   OH230372   5.473   5.741   7.729
 2938TIP3    H130373   5.390   5.772   7.689
 2938TIP3    H230374   5.490   5.660   7.676
 2939TIP3   OH230375   4.229   7.248   7.135
 2939TIP3    H130376   4.191   7.172   7.181
 2939TIP3    H230377   4.288   7.283   7.204
 2940TIP3   OH230378   4.812   5.886   7.159
 2940TIP3    H130379   4.744   5.822   7.184
 2940TIP3    H230380   4.867   5.833   7.099
 2941TIP3   OH230381   5.324   5.692   7.167
 2941TIP3    H130382   5.387   5.750   7.117
 2941TIP3    H230383   5.238   5.728   7.140
 2942TIP3   OH230384   5.495   5.814   6.999
 2942TIP3    H130385   5.561   5.759   6.952
 2942TIP3    H230386   5.540   5.898   7.006
 2943TIP3   OH230387   4.048   5.751   6.941
 2943TIP3    H130388   3.968   5.727   6.891
 2943TIP3    H230389   4.095   5.665   6.938
 2944TIP3   OH230390   4.496   5.743   6.921
 2944TIP3    H130391   4.586   5.777   6.915
 2944TIP3    H230392   4.492   5.720   7.014
 2945TIP3   OH230393   5.065   5.743   7.087
 2945TIP3    H130394   5.061   5.754   6.991
 2945TIP3    H230395   5.028   5.652   7.098
 2946TIP3   OH230396   5.196   5.746   6.655
 2946TIP3    H130397   5.121   5.804   6.639
 2946TIP3    H230398   5.151   5.661   6.673
 2947TIP3   OH230399   4.122   5.927   6.364
 2947TIP3    H130400   4.160   5.851   6.316
 2947TIP3    H230401   4.184   5.946   6.434
 2948TIP3   OH230402   4.037   5.802   7.888
 2948TIP3    H130403   3.999   5.723   7.931
 2948TIP3    H230404   4.128   5.799   7.925
 2949TIP3   OH230405   4.238   5.741   8.053
 2949TIP3    H130406   4.326   5.707   8.028
 2949TIP3    H230407   4.200   5.661   8.094
 2950TIP3   OH230408   5.078   5.670   8.067
 2950TIP3    H130409   5.088   5.622   8.152
 2950TIP3    H230410   5.169   5.667   8.032
 2951TIP3   OH230411   5.382  -0.032   7.949
 2951TIP3    H130412   5.319  -0.046   7.877
 2951TIP3    H230413   5.395   0.064   7.948
 2952TIP3   OH230414   6.842   6.660   6.931
 2952TIP3    H130415   6.846   6.759   6.927
 2952TIP3    H230416   6.769   6.641   6.873
 2953TIP3   OH230417   6.729   6.588   7.278
 2953TIP3    H130418   6.727   6.524   7.350
 2953TIP3    H230419   6.696   6.537   7.202
 2954TIP3   OH230420   5.964   6.558   7.434
 2954TIP3    H130421   5.972   6.488   7.503
 2954TIP3    H230422   6.041   6.612   7.457
 2955TIP3   OH230423   7.099   6.881   7.107
 2955TIP3    H130424   7.058   6.810   7.157
 2955TIP3    H230425   7.102   6.953   7.172
 2956TIP3   OH230426   6.055   7.000   7.280
 2956TIP3    H130427   6.031   6.908   7.254
 2956TIP3    H230428   6.151   6.983   7.292
 2957TIP3   OH230429   6.565   6.826   7.326
 2957TIP3    H130430   6.600   6.765   7.260
 2957TIP3    H230431   6.646   6.845   7.377
 2958TIP3   OH230432   6.884   6.275   7.356
 2958TIP3    H130433   6.900   6.179   7.355
 2958TIP3    H230434   6.874   6.289   7.259
 2959TIP3   OH230435   6.197   6.082   7.079
 2959TIP3    H130436   6.207   6.167   7.034
 2959TIP3    H230437   6.154   6.026   7.010
 2960TIP3   OH230438   6.970   6.095   6.919
 2960TIP3    H130439   7.035   6.060   6.985
 2960TIP3    H230440   7.027   6.145   6.863
 2961TIP3   OH230441   5.857   6.323   7.157
 2961TIP3    H130442   5.925   6.267   7.199
 2961TIP3    H230443   5.861   6.296   7.065
 2962TIP3   OH230444   6.373   6.478   7.081
 2962TIP3    H130445   6.440   6.422   7.125
 2962TIP3    H230446   6.319   6.411   7.034
 2963TIP3   OH230447   6.086   5.974   7.485
 2963TIP3    H130448   6.058   6.030   7.410
 2963TIP3    H230449   6.016   5.997   7.551
 2964TIP3   OH230450   6.814   6.920   6.839
 2964TIP3    H130451   6.787   6.898   6.750
 2964TIP3    H230452   6.783   7.013   6.847
 2965TIP3   OH230453   6.337   6.736   7.509
 2965TIP3    H130454   6.266   6.800   7.530
 2965TIP3    H230455   6.407   6.796   7.479
 2966TIP3   OH230456   7.119   6.024   7.127
 2966TIP3    H130457   7.123   5.942   7.177
 2966TIP3    H230458   7.197   6.070   7.166
 2967TIP3   OH230459   6.041   6.162   7.284
 2967TIP3    H130460   6.105   6.228   7.318
 2967TIP3    H230461   6.095   6.116   7.214
 2968TIP3   OH230462   6.182   6.937   7.587
 2968TIP3    H130463   6.177   7.029   7.555
 2968TIP3    H230464   6.095   6.929   7.633
 2969TIP3   OH230465   7.131   7.061   7.355
 2969TIP3    H130466   7.035   7.079   7.360
 2969TIP3    H230467   7.171   7.144   7.323
 2970TIP3   OH230468   7.162   5.909   7.464
 2970TIP3    H130469   7.092   5.976   7.468
 2970TIP3    H230470   7.237   5.956   7.424
 2971TIP3   OH230471   6.479   5.706   7.229
 2971TIP3    H130472   6.466   5.610   7.224
 2971TIP3    H230473   6.392   5.737   7.261
 2972TIP3   OH230474   6.980   7.217   6.984
 2972TIP3    H130475   7.037   7.154   6.936
 2972TIP3    H230476   7.018   7.302   6.961
 2973TIP3   OH230477   7.103   7.033   6.853
 2973TIP3    H130478   7.067   6.963   6.798
 2973TIP3    H230479   7.103   6.986   6.940
 2974TIP3   OH230480   7.234   6.911   7.716
 2974TIP3    H130481   7.261   6.841   7.654
 2974TIP3    H230482   7.278   6.985   7.670
 2975TIP3   OH230483   7.047   6.605   6.769
 2975TIP3    H130484   6.982   6.635   6.836
 2975TIP3    H230485   7.099   6.544   6.827
 2976TIP3   OH230486   7.048   6.425   7.682
 2976TIP3    H130487   7.044   6.505   7.737
 2976TIP3    H230488   6.984   6.452   7.614
 2977TIP3   OH230489   6.215   6.675   6.964
 2977TIP3    H130490   6.182   6.635   6.880
 2977TIP3    H230491   6.274   6.604   6.998
 2978TIP3   OH230492   6.344   7.013   7.232
 2978TIP3    H130493   6.347   6.958   7.153
 2978TIP3    H230494   6.424   6.978   7.279
 2979TIP3   OH230495   6.247   6.548   7.329
 2979TIP3    H130496   6.305   6.559   7.251
 2979TIP3    H230497   6.284   6.614   7.391
 2980TIP3   OH230498   6.884   7.105   7.401
 2980TIP3    H130499   6.858   7.167   7.467
 2980TIP3    H230500   6.862   7.018   7.443
 2981TIP3   OH230501   6.342   6.991   7.800
 2981TIP3    H130502   6.301   7.066   7.848
 2981TIP3    H230503   6.276   6.969   7.730
 2982TIP3   OH230504   6.935   6.526   6.545
 2982TIP3    H130505   6.995   6.544   6.621
 2982TIP3    H230506   6.977   6.574   6.473
 2983TIP3   OH230507   6.036   6.607   7.717
 2983TIP3    H130508   6.041   6.673   7.788
 2983TIP3    H230509   5.942   6.616   7.694
 2984TIP3   OH230510   6.707   7.197   6.890
 2984TIP3    H130511   6.760   7.230   6.963
 2984TIP3    H230512   6.659   7.275   6.861
 2985TIP3   OH230513   6.166   7.187   7.873
 2985TIP3    H130514   6.159   7.183   7.776
 2985TIP3    H230515   6.072   7.180   7.900
 2986TIP3   OH230516   6.110   6.579   6.733
 2986TIP3    H130517   6.086   6.653   6.676
 2986TIP3    H230518   6.051   6.509   6.704
 2987TIP3   OH230519   5.722   6.819   7.613
 2987TIP3    H130520   5.674   6.809   7.530
 2987TIP3    H230521   5.727   6.724   7.638
 2988TIP3   OH230522   5.680   7.093   7.306
 2988TIP3    H130523   5.763   7.064   7.339
 2988TIP3    H230524   5.670   7.178   7.354
 2989TIP3   OH230525   6.615   7.118   7.748
 2989TIP3    H130526   6.625   7.199   7.799
 2989TIP3    H230527   6.530   7.079   7.776
 2990TIP3   OH230528   7.190   6.324   7.912
 2990TIP3    H130529   7.183   6.361   7.824
 2990TIP3    H230530   7.239   6.241   7.894
 2991TIP3   OH230531   5.949   6.950   7.708
 2991TIP3    H130532   5.970   6.913   7.796
 2991TIP3    H230533   5.862   6.909   7.689
 2992TIP3   OH230534   6.216   5.796   7.307
 2992TIP3    H130535   6.127   5.784   7.268
 2992TIP3    H230536   6.203   5.881   7.352
 2993TIP3   OH230537   6.681   5.764   7.641
 2993TIP3    H130538   6.721   5.723   7.720
 2993TIP3    H230539   6.584   5.752   7.655
 2994TIP3   OH230540   7.007   6.144   7.727
 2994TIP3    H130541   6.954   6.128   7.809
 2994TIP3    H230542   6.995   6.239   7.710
 2995TIP3   OH230543   6.227   6.294   7.427
 2995TIP3    H130544   6.153   6.293   7.492
 2995TIP3    H230545   6.224   6.386   7.394
 2996TIP3   OH230546   6.221   6.306   6.914
 2996TIP3    H130547   6.130   6.279   6.897
 2996TIP3    H230548   6.263   6.276   6.833
 2997TIP3   OH230549   6.771   6.355   6.785
 2997TIP3    H130550   6.735   6.441   6.763
 2997TIP3    H230551   6.847   6.343   6.727
 2998TIP3   OH230552   6.682   6.378   7.937
 2998TIP3    H130553   6.630   6.300   7.968
 2998TIP3    H230554   6.766   6.365   7.985
 2999TIP3   OH230555   6.875   6.306   7.078
 2999TIP3    H130556   6.853   6.362   7.002
 2999TIP3    H230557   6.888   6.220   7.033
 3000TIP3   OH230558   5.990   6.320   7.599
 3000TIP3    H130559   5.996   6.361   7.687
 3000TIP3    H230560   5.945   6.237   7.618
 3001TIP3   OH230561   6.798   6.463   7.534
 3001TIP3    H130562   6.836   6.395   7.475
 3001TIP3    H230563   6.751   6.411   7.601
 3002TIP3   OH230564   6.475   6.062   7.017
 3002TIP3    H130565   6.382   6.062   7.049
 3002TIP3    H230566   6.528   6.045   7.096
 3003TIP3   OH230567   6.913   5.982   7.344
 3003TIP3    H130568   6.846   5.990   7.413
 3003TIP3    H230569   6.864   5.962   7.263
 3004TIP3   OH230570   6.194   6.338   6.426
 3004TIP3    H130571   6.139   6.304   6.353
 3004TIP3    H230572   6.273   6.361   6.376
 3005TIP3   OH230573   6.009   6.799   7.930
 3005TIP3    H130574   6.079   6.821   7.994
 3005TIP3    H230575   5.929   6.805   7.988
 3006TIP3   OH230576   6.608   6.338   7.206
 3006TIP3    H130577   6.668   6.283   7.154
 3006TIP3    H230578   6.592   6.283   7.284
 3007TIP3   OH230579   6.109   5.952   6.851
 3007TIP3    H130580   6.075   5.861   6.849
 3007TIP3    H230581   6.188   5.945   6.796
 3008TIP3   OH230582   6.471   6.170   7.448
 3008TIP3    H130583   6.389   6.222   7.457
 3008TIP3    H230584   6.526   6.205   7.520
 3009TIP3   OH230585   6.529   6.792   6.617
 3009TIP3    H130586   6.449   6.748   6.587
 3009TIP3    H230587   6.509   6.805   6.712
 3010TIP3   OH230588   7.218   6.712   7.497
 3010TIP3    H130589   7.291   6.730   7.433
 3010TIP3    H230590   7.142   6.716   7.437
 3011TIP3   OH230591   6.678   6.820   7.740
 3011TIP3    H130592   6.644   6.777   7.819
 3011TIP3    H230593   6.657   6.913   7.752
 3012TIP3   OH230594   6.041   6.733   7.199
 3012TIP3    H130595   6.110   6.724   7.129
 3012TIP3    H230596   6.047   6.646   7.243
 3013TIP3   OH230597   6.742   6.942   6.521
 3013TIP3    H130598   6.704   7.026   6.555
 3013TIP3    H230599   6.667   6.883   6.541
 3014TIP3   OH230600   5.742   6.574   7.722
 3014TIP3    H130601   5.755   6.529   7.808
 3014TIP3    H230602   5.677   6.512   7.683
 3015TIP3   OH230603   6.441   6.528   7.942
 3015TIP3    H130604   6.410   6.498   7.855
 3015TIP3    H230605   6.534   6.497   7.941
 3016TIP3   OH230606   6.909   7.067   7.731
 3016TIP3    H130607   6.815   7.074   7.710
 3016TIP3    H230608   6.905   7.086   7.827
 3017TIP3   OH230609   7.021   6.642   7.326
 3017TIP3    H130610   6.927   6.620   7.313
 3017TIP3    H230611   7.068   6.568   7.285
 3018TIP3   OH230612   6.278   7.073   6.928
 3018TIP3    H130613   6.329   7.154   6.918
 3018TIP3    H230614   6.189   7.100   6.904
 3019TIP3   OH230615   5.858   6.564   6.391
 3019TIP3    H130616   5.917   6.625   6.432
 3019TIP3    H230617   5.768   6.585   6.420
 3020TIP3   OH230618   6.423   6.842   6.890
 3020TIP3    H130619   6.392   6.934   6.898
 3020TIP3    H230620   6.347   6.796   6.932
 3021TIP3   OH230621   6.494   7.231   7.499
 3021TIP3    H130622   6.509   7.326   7.491
 3021TIP3    H230623   6.527   7.217   7.589
 3022TIP3   OH230624   6.822   6.863   7.492
 3022TIP3    H130625   6.783   6.840   7.579
 3022TIP3    H230626   6.882   6.790   7.474
 3023TIP3   OH230627   5.905   6.046   7.679
 3023TIP3    H130628   5.814   6.081   7.676
 3023TIP3    H230629   5.893   5.961   7.725
 3024TIP3   OH230630   5.868   7.218   7.517
 3024TIP3    H130631   5.896   7.128   7.530
 3024TIP3    H230632   5.885   7.256   7.605
 3025TIP3   OH230633   6.342   7.025   6.489
 3025TIP3    H130634   6.366   6.977   6.568
 3025TIP3    H230635   6.352   7.116   6.520
 3026TIP3   OH230636   6.774   6.022   7.574
 3026TIP3    H130637   6.848   6.030   7.636
 3026TIP3    H230638   6.738   5.934   7.595
 3027TIP3   OH230639   6.621   7.198   6.566
 3027TIP3    H130640   6.540   7.248   6.571
 3027TIP3    H230641   6.673   7.248   6.501
 3028TIP3   OH230642   6.575   6.158   6.764
 3028TIP3    H130643   6.654   6.213   6.772
 3028TIP3    H230644   6.548   6.142   6.856
 3029TIP3   OH230645   6.633   6.258   7.684
 3029TIP3    H130646   6.641   6.314   7.763
 3029TIP3    H230647   6.698   6.187   7.693
 3030TIP3   OH230648   6.354  -0.002   6.568
 3030TIP3    H130649   6.377   0.076   6.513
 3030TIP3    H230650   6.339   0.031   6.656
 3031TIP3   OH230651   7.237   6.014   7.746
 3031TIP3    H130652   7.156   6.073   7.755
 3031TIP3    H230653   7.276   6.054   7.668
 3032TIP3   OH230654   7.109   6.423   7.176
 3032TIP3    H130655   7.028   6.379   7.144
 3032TIP3    H230656   7.153   6.352   7.223
 3033TIP3   OH230657   5.965   5.762   7.215
 3033TIP3    H130658   5.945   5.764   7.118
 3033TIP3    H230659   5.924   5.678   7.241
 3034TIP3   OH230660   5.861   7.156   6.830
 3034TIP3    H130661   5.774   7.200   6.829
 3034TIP3    H230662   5.913   7.203   6.764
 3035TIP3   OH230663   6.277   7.282   8.145
 3035TIP3    H130664   6.362   7.239   8.159
 3035TIP3    H230665   6.267   7.266   8.049
 3036TIP3   OH230666   6.662   7.239   6.295
 3036TIP3    H130667   6.586   7.183   6.289
 3036TIP3    H230668   6.727   7.202   6.236
 3037TIP3   OH230669   6.911   7.117   7.983
 3037TIP3    H130670   6.863   7.046   8.030
 3037TIP3    H230671   6.973   7.148   8.048
 3038TIP3   OH230672   5.776   6.796   8.058
 3038TIP3    H130673   5.790   6.704   8.027
 3038TIP3    H230674   5.699   6.822   8.004
 3039TIP3   OH230675   6.446   6.793   7.996
 3039TIP3    H130676   6.410   6.824   7.910
 3039TIP3    H230677   6.453   6.695   7.986
 3040TIP3   OH230678   7.013   6.778   7.738
 3040TIP3    H130679   7.091   6.838   7.729
 3040TIP3    H230680   6.944   6.846   7.742
 3041TIP3   OH230681   5.869   6.521   7.999
 3041TIP3    H130682   5.903   6.432   7.988
 3041TIP3    H230683   5.839   6.520   8.092
 3042TIP3   OH230684   6.255   6.414   7.734
 3042TIP3    H130685   6.195   6.485   7.760
 3042TIP3    H230686   6.294   6.450   7.652
 3043TIP3   OH230687   6.762   6.671   8.075
 3043TIP3    H130688   6.856   6.668   8.056
 3043TIP3    H230689   6.747   6.591   8.127
 3044TIP3   OH230690   6.297   6.152   7.838
 3044TIP3    H130691   6.307   6.080   7.774
 3044TIP3    H230692   6.291   6.232   7.783
 3045TIP3   OH230693   6.336   5.989   7.594
 3045TIP3    H130694   6.387   6.035   7.524
 3045TIP3    H230695   6.246   5.981   7.553
 3046TIP3   OH230696   6.489   6.537   7.618
 3046TIP3    H130697   6.565   6.521   7.561
 3046TIP3    H230698   6.454   6.621   7.586
 3047TIP3   OH230699   6.934   6.315   8.115
 3047TIP3    H130700   6.956   6.221   8.108
 3047TIP3    H230701   7.021   6.356   8.112
 3048TIP3   OH230702   7.065   6.596   7.932
 3048TIP3    H130703   7.036   6.665   7.869
 3048TIP3    H230704   7.158   6.587   7.911
 3049TIP3   OH230705   6.143   6.275   8.034
 3049TIP3    H130706   6.064   6.219   8.013
 3049TIP3    H230707   6.206   6.240   7.968
 3050TIP3   OH230708   6.414   5.732   7.635
 3050TIP3    H130709   6.397   5.829   7.625
 3050TIP3    H230710   6.339   5.696   7.584
 3051TIP3   OH230711   6.542   6.166   7.997
 3051TIP3    H130712   6.510   6.144   8.086
 3051TIP3    H230713   6.464   6.147   7.941
 3052TIP3   OH230714   6.809   6.081   7.903
 3052TIP3    H130715   6.713   6.084   7.918
 3052TIP3    H230716   6.842   6.018   7.970
 3053TIP3   OH230717   6.978   5.940   8.096
 3053TIP3    H130718   6.964   5.843   8.100
 3053TIP3    H230719   6.946   5.972   8.184
 3054TIP3   OH230720   5.952   6.069   8.006
 3054TIP3    H130721   5.975   5.995   7.947
 3054TIP3    H230722   5.943   6.024   8.093
 3055TIP3   OH230723   6.436   5.671   7.904
 3055TIP3    H130724   6.505   5.601   7.901
 3055TIP3    H230725   6.425   5.687   7.808
 3056TIP3   OH230726   6.471   5.832   8.113
 3056TIP3    H130727   6.455   5.782   8.029
 3056TIP3    H230728   6.413   5.910   8.102
 3057TIP3   OH230729   7.278   7.139   7.583
 3057TIP3    H130730   7.210   7.182   7.635
 3057TIP3    H230731   7.229   7.102   7.507
 3058TIP3   OH230732   7.187   6.440   6.916
 3058TIP3    H130733   7.219   6.349   6.919
 3058TIP3    H230734   7.201   6.467   7.009
 3059TIP3   OH230735   5.741   6.647   7.310
 3059TIP3    H130736   5.761   6.628   7.217
 3059TIP3    H230737   5.828   6.623   7.349
 3060TIP3   OH230738  -0.053   6.164   7.295
 3060TIP3    H130739   0.036   6.200   7.283
 3060TIP3    H230740  -0.073   6.227   7.365
 3061TIP3   OH230741   7.278   6.321   7.599
 3061TIP3    H130742   7.186   6.350   7.610
 3061TIP3    H230743   7.315   6.392   7.544
 3062TIP3   OH230744   5.705   6.165   7.926
 3062TIP3    H130745   5.798   6.148   7.949
 3062TIP3    H230746   5.656   6.087   7.960
 3063TIP3   OH230747   7.184   5.889   6.820
 3063TIP3    H130748   7.276   5.873   6.846
 3063TIP3    H230749   7.189   5.846   6.733
 3064TIP3   OH230750   5.823   6.001   7.215
 3064TIP3    H130751   5.869   5.918   7.240
 3064TIP3    H230752   5.877   6.070   7.254
 3065TIP3   OH230753   5.649   6.301   7.314
 3065TIP3    H130754   5.708   6.276   7.240
 3065TIP3    H230755   5.696   6.380   7.346
 3066TIP3   OH230756   5.682   5.793   7.555
 3066TIP3    H130757   5.614   5.773   7.622
 3066TIP3    H230758   5.636   5.860   7.500
 3067TIP3   OH230759   5.905   7.119   7.971
 3067TIP3    H130760   5.819   7.129   7.927
 3067TIP3    H230761   5.878   7.103   8.062
 3068TIP3   OH230762   6.195   7.210   7.599
 3068TIP3    H130763   6.156   7.293   7.570
 3068TIP3    H230764   6.286   7.212   7.564
 3069TIP3   OH230765   6.109   7.249   7.139
 3069TIP3    H130766   6.088   7.167   7.182
 3069TIP3    H230767   6.175   7.286   7.202
 3070TIP3   OH230768   6.695   5.887   7.154
 3070TIP3    H130769   6.629   5.822   7.185
 3070TIP3    H230770   6.755   5.834   7.101
 3071TIP3   OH230771   7.211   5.690   7.167
 3071TIP3    H130772   7.270   5.750   7.120
 3071TIP3    H230773   7.123   5.727   7.145
 3072TIP3   OH230774   5.934   5.750   6.942
 3072TIP3    H130775   5.854   5.729   6.890
 3072TIP3    H230776   5.980   5.664   6.939
 3073TIP3   OH230777   5.830   5.743   6.540
 3073TIP3    H130778   5.853   5.798   6.462
 3073TIP3    H230779   5.750   5.788   6.568
 3074TIP3   OH230780   6.386   5.740   6.918
 3074TIP3    H130781   6.473   5.782   6.920
 3074TIP3    H230782   6.376   5.722   7.013
 3075TIP3   OH230783   6.951   5.740   7.084
 3075TIP3    H130784   6.949   5.755   6.989
 3075TIP3    H230785   6.913   5.649   7.097
 3076TIP3   OH230786   7.074   5.742   6.640
 3076TIP3    H130787   7.002   5.804   6.635
 3076TIP3    H230788   7.030   5.659   6.667
 3077TIP3   OH230789   5.922   5.803   7.889
 3077TIP3    H130790   5.884   5.723   7.930
 3077TIP3    H230791   6.014   5.799   7.925
 3078TIP3   OH230792   6.123   5.742   8.052
 3078TIP3    H130793   6.211   5.706   8.028
 3078TIP3    H230794   6.084   5.662   8.093
 3079TIP3   OH230795   6.965   5.672   8.066
 3079TIP3    H130796   6.971   5.623   8.151
 3079TIP3    H230797   7.057   5.668   8.032
 3080TIP3   OH230798   7.270  -0.030   7.950
 3080TIP3    H130799   7.210  -0.048   7.876
 3080TIP3    H230800   7.279   0.067   7.944
 3081TIP3   OH230801   1.056   0.782   8.263
 3081TIP3    H130802   1.127   0.785   8.331
 3081TIP3    H230803   1.092   0.713   8.207
 3082TIP3   OH230804   1.280   0.855   8.414
 3082TIP3    H130805   1.322   0.881   8.499
 3082TIP3    H230806   1.318   0.916   8.349
 3083TIP3   OH230807   1.652   0.051   8.410
 3083TIP3    H130808   1.561   0.068   8.437
 3083TIP3    H230809   1.680   0.135   8.373
 3084TIP3   OH230810   1.769   1.480   8.241
 3084TIP3    H130811   1.782   1.573   8.266
 3084TIP3    H230812   1.862   1.451   8.249
 3085TIP3   OH230813   1.309   1.754   8.315
 3085TIP3    H130814   1.357   1.681   8.271
 3085TIP3    H230815   1.318   1.728   8.409
 3086TIP3   OH230816   1.433   0.970   8.204
 3086TIP3    H130817   1.427   0.953   8.106
 3086TIP3    H230818   1.516   1.018   8.206
 3087TIP3   OH230819   0.988   0.361   8.256
 3087TIP3    H130820   0.959   0.363   8.348
 3087TIP3    H230821   0.959   0.273   8.227
 3088TIP3   OH230822   0.672   0.407   8.171
 3088TIP3    H130823   0.625   0.359   8.242
 3088TIP3    H230824   0.601   0.440   8.114
 3089TIP3   OH230825   0.142   0.457   8.413
 3089TIP3    H130826   0.180   0.518   8.348
 3089TIP3    H230827   0.057   0.494   8.442
 3090TIP3   OH230828   0.530   0.682   8.310
 3090TIP3    H130829   0.489   0.640   8.232
 3090TIP3    H230830   0.617   0.702   8.268
 3091TIP3   OH230831   1.258   0.421   8.318
 3091TIP3    H130832   1.162   0.433   8.309
 3091TIP3    H230833   1.289   0.502   8.361
 3092TIP3   OH230834   1.331   0.609   8.485
 3092TIP3    H130835   1.421   0.595   8.518
 3092TIP3    H230836   1.337   0.690   8.431
 3093TIP3   OH230837   1.082   1.282   8.401
 3093TIP3    H130838   1.049   1.363   8.440
 3093TIP3    H230839   1.014   1.219   8.428
 3094TIP3   OH230840   1.834   0.628   8.447
 3094TIP3    H130841   1.770   0.592   8.382
 3094TIP3    H230842   1.834   0.723   8.424
 3095TIP3   OH230843   0.191   0.905   8.282
 3095TIP3    H130844   0.252   0.977   8.316
 3095TIP3    H230845   0.105   0.944   8.302
 3096TIP3   OH230846   1.392   1.308   8.283
 3096TIP3    H130847   1.424   1.274   8.367
 3096TIP3    H230848   1.297   1.294   8.296
 3097TIP3   OH230849   1.835   1.749   8.304
 3097TIP3    H130850   1.912   1.809   8.300
 3097TIP3    H230851   1.768   1.811   8.339
 3098TIP3   OH230852   0.810   1.417   8.130
 3098TIP3    H130853   0.813   1.337   8.076
 3098TIP3    H230854   0.766   1.380   8.211
 3099TIP3   OH230855   0.689   1.369   8.374
 3099TIP3    H130856   0.706   1.323   8.457
 3099TIP3    H230857   0.695   1.461   8.407
 3100TIP3   OH230858   0.323   1.093   8.417
 3100TIP3    H130859   0.268   1.132   8.485
 3100TIP3    H230860   0.389   1.167   8.403
 3101TIP3   OH230861   0.924   1.515   8.377
 3101TIP3    H130862   0.868   1.572   8.434
 3101TIP3    H230863   1.001   1.574   8.376
 3102TIP3   OH230864   0.704   1.642   8.456
 3102TIP3    H130865   0.711   1.720   8.395
 3102TIP3    H230866   0.678   1.683   8.540
 3103TIP3   OH230867   0.556   0.300   8.390
 3103TIP3    H130868   0.542   0.386   8.430
 3103TIP3    H230869   0.647   0.287   8.423
 3104TIP3   OH230870   0.390   1.362   8.313
 3104TIP3    H130871   0.455   1.425   8.347
 3104TIP3    H230872   0.447   1.315   8.249
 3105TIP3   OH230873   0.221   0.629   8.229
 3105TIP3    H130874   0.215   0.724   8.225
 3105TIP3    H230875   0.136   0.598   8.193
 3106TIP3   OH230876   1.004   1.606   8.141
 3106TIP3    H130877   0.934   1.545   8.180
 3106TIP3    H230878   1.078   1.545   8.147
 3107TIP3   OH230879   1.458   1.580   8.157
 3107TIP3    H130880   1.490   1.508   8.214
 3107TIP3    H230881   1.540   1.603   8.109
 3108TIP3   OH230882   0.550   1.170   8.149
 3108TIP3    H130883   0.570   1.096   8.207
 3108TIP3    H230884   0.625   1.163   8.087
 3109TIP3   OH230885   1.094   1.288   8.125
 3109TIP3    H130886   1.070   1.291   8.220
 3109TIP3    H230887   1.076   1.191   8.109
 3110TIP3   OH230888   0.666   0.972   8.380
 3110TIP3    H130889   0.629   0.920   8.453
 3110TIP3    H230890   0.704   0.905   8.318
 3111TIP3   OH230891   0.776   0.794   8.208
 3111TIP3    H130892   0.764   0.784   8.111
 3111TIP3    H230893   0.874   0.803   8.216
 3112TIP3   OH230894   1.712   1.033   8.158
 3112TIP3    H130895   1.695   0.992   8.071
 3112TIP3    H230896   1.720   1.128   8.132
 3113TIP3   OH230897   0.766   1.865   8.316
 3113TIP3    H130898   0.862   1.878   8.326
 3113TIP3    H230899   0.745   1.929   8.248
 3114TIP3   OH230900   0.121   1.326   8.266
 3114TIP3    H130901   0.216   1.339   8.285
 3114TIP3    H230902   0.126   1.261   8.194
 3115TIP3   OH230903   1.836   0.909   8.364
 3115TIP3    H130904   1.782   0.949   8.292
 3115TIP3    H230905   1.833   0.974   8.437
 3116TIP3   OH230906   1.669   0.638   8.228
 3116TIP3    H130907   1.676   0.701   8.156
 3116TIP3    H230908   1.650   0.554   8.181
 3117TIP3   OH230909   1.592   0.380   8.142
 3117TIP3    H130910   1.652   0.338   8.206
 3117TIP3    H230911   1.507   0.337   8.162
 3118TIP3   OH230912   1.798   0.266   8.295
 3118TIP3    H130913   1.841   0.192   8.246
 3118TIP3    H230914   1.871   0.331   8.305
 3119TIP3   OH230915   0.167   0.075   8.399
 3119TIP3    H130916   0.216   0.141   8.347
 3119TIP3    H230917   0.121   0.134   8.460
 3120TIP3   OH230918   0.336   0.260   8.250
 3120TIP3    H130919   0.390   0.200   8.195
 3120TIP3    H230920   0.402   0.290   8.315
 3121TIP3   OH230921   1.030   1.794   8.334
 3121TIP3    H130922   1.124   1.817   8.320
 3121TIP3    H230923   1.011   1.738   8.257
 3122TIP3   OH230924   0.324   1.760   8.196
 3122TIP3    H130925   0.297   1.784   8.286
 3122TIP3    H230926   0.404   1.705   8.212
 3123TIP3   OH230927   2.944   0.786   8.260
 3123TIP3    H130928   3.010   0.783   8.332
 3123TIP3    H230929   2.976   0.711   8.207
 3124TIP3   OH230930   3.165   0.856   8.414
 3124TIP3    H130931   3.207   0.881   8.500
 3124TIP3    H230932   3.205   0.916   8.349
 3125TIP3   OH230933   3.554   0.051   8.414
 3125TIP3    H130934   3.458   0.040   8.413
 3125TIP3    H230935   3.569   0.128   8.355
 3126TIP3   OH230936   3.654   1.479   8.241
 3126TIP3    H130937   3.668   1.572   8.266
 3126TIP3    H230938   3.746   1.450   8.249
 3127TIP3   OH230939   3.198   1.757   8.318
 3127TIP3    H130940   3.240   1.683   8.269
 3127TIP3    H230941   3.203   1.726   8.409
 3128TIP3   OH230942   3.313   0.982   8.199
 3128TIP3    H130943   3.316   0.946   8.106
 3128TIP3    H230944   3.406   1.012   8.207
 3129TIP3   OH230945   2.874   0.361   8.256
 3129TIP3    H130946   2.845   0.363   8.348
 3129TIP3    H230947   2.844   0.273   8.228
 3130TIP3   OH230948   2.557   0.404   8.170
 3130TIP3    H130949   2.509   0.363   8.244
 3130TIP3    H230950   2.485   0.444   8.118
 3131TIP3   OH230951   1.999   0.439   8.404
 3131TIP3    H130952   2.066   0.501   8.367
 3131TIP3    H230953   1.943   0.505   8.449
 3132TIP3   OH230954   2.435   0.701   8.296
 3132TIP3    H130955   2.375   0.644   8.242
 3132TIP3    H230956   2.519   0.701   8.249
 3133TIP3   OH230957   3.145   0.419   8.319
 3133TIP3    H130958   3.049   0.432   8.308
 3133TIP3    H230959   3.174   0.504   8.359
 3134TIP3   OH230960   3.216   0.608   8.484
 3134TIP3    H130961   3.305   0.599   8.519
 3134TIP3    H230962   3.221   0.690   8.432
 3135TIP3   OH230963   2.970   1.280   8.402
 3135TIP3    H130964   2.935   1.363   8.438
 3135TIP3    H230965   2.899   1.220   8.428
 3136TIP3   OH230966   3.723   0.624   8.449
 3136TIP3    H130967   3.656   0.594   8.383
 3136TIP3    H230968   3.719   0.720   8.426
 3137TIP3   OH230969   2.082   0.912   8.269
 3137TIP3    H130970   2.143   0.966   8.324
 3137TIP3    H230971   1.995   0.934   8.306
 3138TIP3   OH230972   3.279   1.303   8.286
 3138TIP3    H130973   3.313   1.279   8.374
 3138TIP3    H230974   3.184   1.309   8.308
 3139TIP3   OH230975   3.721   1.749   8.305
 3139TIP3    H130976   3.798   1.809   8.300
 3139TIP3    H230977   3.654   1.811   8.339
 3140TIP3   OH230978   2.694   1.417   8.132
 3140TIP3    H130979   2.699   1.340   8.075
 3140TIP3    H230980   2.650   1.378   8.212
 3141TIP3   OH230981   2.572   1.368   8.375
 3141TIP3    H130982   2.592   1.323   8.458
 3141TIP3    H230983   2.582   1.461   8.406
 3142TIP3   OH230984   2.208   1.100   8.415
 3142TIP3    H130985   2.154   1.128   8.488
 3142TIP3    H230986   2.276   1.171   8.403
 3143TIP3   OH230987   2.813   1.512   8.379
 3143TIP3    H130988   2.754   1.572   8.431
 3143TIP3    H230989   2.886   1.575   8.372
 3144TIP3   OH230990   2.590   1.642   8.456
 3144TIP3    H130991   2.597   1.720   8.395
 3144TIP3    H230992   2.564   1.683   8.539
 3145TIP3   OH230993   2.445   0.295   8.388
 3145TIP3    H130994   2.421   0.384   8.427
 3145TIP3    H230995   2.534   0.291   8.426
 3146TIP3   OH230996   2.278   1.360   8.315
 3146TIP3    H130997   2.345   1.423   8.346
 3146TIP3    H230998   2.332   1.313   8.249
 3147TIP3   OH230999   2.111   0.629   8.219
 3147TIP3    H131000   2.112   0.720   8.253
 3147TIP3    H231001   2.019   0.607   8.204
 3148TIP3   OH231002   2.892   1.607   8.143
 3148TIP3    H131003   2.823   1.541   8.171
 3148TIP3    H231004   2.963   1.547   8.118
 3149TIP3   OH231005   3.345   1.578   8.158
 3149TIP3    H131006   3.378   1.507   8.215
 3149TIP3    H231007   3.425   1.603   8.109
 3150TIP3   OH231008   2.437   1.172   8.149
 3150TIP3    H131009   2.452   1.095   8.207
 3150TIP3    H231010   2.511   1.162   8.087
 3151TIP3   OH231011   2.991   1.278   8.131
 3151TIP3    H131012   2.946   1.298   8.216
 3151TIP3    H231013   2.949   1.190   8.109
 3152TIP3   OH231014   2.556   0.972   8.384
 3152TIP3    H131015   2.509   0.919   8.450
 3152TIP3    H231016   2.583   0.904   8.319
 3153TIP3   OH231017   2.668   0.797   8.207
 3153TIP3    H131018   2.650   0.784   8.111
 3153TIP3    H231019   2.765   0.803   8.214
 3154TIP3   OH231020   3.593   1.033   8.159
 3154TIP3    H131021   3.584   0.992   8.070
 3154TIP3    H231022   3.610   1.127   8.132
 3155TIP3   OH231023   2.651   1.868   8.319
 3155TIP3    H131024   2.748   1.876   8.323
 3155TIP3    H231025   2.633   1.928   8.245
 3156TIP3   OH231026   2.004   1.326   8.263
 3156TIP3    H131027   2.100   1.335   8.284
 3156TIP3    H231028   2.010   1.258   8.192
 3157TIP3   OH231029   3.722   0.906   8.366
 3157TIP3    H131030   3.671   0.947   8.293
 3157TIP3    H231031   3.720   0.974   8.437
 3158TIP3   OH231032   3.557   0.634   8.230
 3158TIP3    H131033   3.562   0.699   8.159
 3158TIP3    H231034   3.534   0.554   8.178
 3159TIP3   OH231035   3.477   0.379   8.143
 3159TIP3    H131036   3.538   0.338   8.204
 3159TIP3    H231037   3.392   0.337   8.160
 3160TIP3   OH231038   3.690   0.258   8.307
 3160TIP3    H131039   3.726   0.195   8.240
 3160TIP3    H231040   3.754   0.331   8.297
 3161TIP3   OH231041   2.043   0.068   8.400
 3161TIP3    H131042   2.088   0.136   8.349
 3161TIP3    H231043   1.984   0.125   8.450
 3162TIP3   OH231044   2.220   0.257   8.248
 3162TIP3    H131045   2.279   0.200   8.196
 3162TIP3    H231046   2.281   0.294   8.316
 3163TIP3   OH231047   2.916   1.790   8.336
 3163TIP3    H131048   3.007   1.818   8.316
 3163TIP3    H231049   2.897   1.739   8.255
 3164TIP3   OH231050   2.211   1.761   8.196
 3164TIP3    H131051   2.185   1.785   8.286
 3164TIP3    H231052   2.289   1.702   8.211
 3165TIP3   OH231053   4.827   0.782   8.263
 3165TIP3    H131054   4.898   0.785   8.331
 3165TIP3    H231055   4.863   0.713   8.207
 3166TIP3   OH231056   5.051   0.855   8.414
 3166TIP3    H131057   5.093   0.882   8.499
 3166TIP3    H231058   5.089   0.917   8.348
 3167TIP3   OH231059   5.423   0.051   8.410
 3167TIP3    H131060   5.332   0.068   8.437
 3167TIP3    H231061   5.451   0.135   8.373
 3168TIP3   OH231062   5.542   1.481   8.239
 3168TIP3    H131063   5.554   1.573   8.268
 3168TIP3    H231064   5.634   1.450   8.249
 3169TIP3   OH231065   5.082   1.755   8.317
 3169TIP3    H131066   5.125   1.681   8.269
 3169TIP3    H231067   5.090   1.725   8.409
 3170TIP3   OH231068   5.204   0.970   8.204
 3170TIP3    H131069   5.198   0.952   8.106
 3170TIP3    H231070   5.288   1.018   8.206
 3171TIP3   OH231071   4.759   0.361   8.256
 3171TIP3    H131072   4.731   0.363   8.348
 3171TIP3    H231073   4.730   0.273   8.228
 3172TIP3   OH231074   4.443   0.405   8.169
 3172TIP3    H131075   4.395   0.362   8.243
 3172TIP3    H231076   4.372   0.443   8.116
 3173TIP3   OH231077   3.889   0.439   8.391
 3173TIP3    H131078   3.951   0.503   8.346
 3173TIP3    H231079   3.826   0.508   8.420
 3174TIP3   OH231080   4.309   0.674   8.313
 3174TIP3    H131081   4.255   0.644   8.237
 3174TIP3    H231082   4.389   0.702   8.265
 3175TIP3   OH231083   5.029   0.421   8.317
 3175TIP3    H131084   4.933   0.433   8.309
 3175TIP3    H231085   5.060   0.502   8.361
 3176TIP3   OH231086   5.102   0.609   8.485
 3176TIP3    H131087   5.192   0.595   8.518
 3176TIP3    H231088   5.108   0.690   8.431
 3177TIP3   OH231089   4.855   1.281   8.405
 3177TIP3    H131090   4.819   1.364   8.438
 3177TIP3    H231091   4.784   1.219   8.427
 3178TIP3   OH231092   5.607   0.628   8.448
 3178TIP3    H131093   5.541   0.592   8.384
 3178TIP3    H231094   5.604   0.723   8.424
 3179TIP3   OH231095   3.969   0.905   8.275
 3179TIP3    H131096   4.028   0.969   8.321
 3179TIP3    H231097   3.881   0.937   8.303
 3180TIP3   OH231098   5.165   1.306   8.283
 3180TIP3    H131099   5.195   1.274   8.369
 3180TIP3    H231100   5.069   1.296   8.294
 3181TIP3   OH231101   5.606   1.749   8.304
 3181TIP3    H131102   5.683   1.809   8.300
 3181TIP3    H231103   5.539   1.810   8.341
 3182TIP3   OH231104   4.575   1.418   8.131
 3182TIP3    H131105   4.588   1.340   8.075
 3182TIP3    H231106   4.537   1.378   8.212
 3183TIP3   OH231107   4.458   1.368   8.375
 3183TIP3    H131108   4.477   1.323   8.459
 3183TIP3    H231109   4.467   1.461   8.406
 3184TIP3   OH231110   4.094   1.098   8.416
 3184TIP3    H131111   4.040   1.131   8.487
 3184TIP3    H231112   4.161   1.168   8.403
 3185TIP3   OH231113   4.696   1.513   8.379
 3185TIP3    H131114   4.639   1.573   8.432
 3185TIP3    H231115   4.772   1.573   8.372
 3186TIP3   OH231116   4.475   1.642   8.456
 3186TIP3    H131117   4.482   1.720   8.395
 3186TIP3    H231118   4.450   1.683   8.539
 3187TIP3   OH231119   4.326   0.300   8.391
 3187TIP3    H131120   4.314   0.387   8.428
 3187TIP3    H231121   4.417   0.288   8.423
 3188TIP3   OH231122   4.164   1.360   8.315
 3188TIP3    H131123   4.230   1.423   8.346
 3188TIP3    H231124   4.218   1.313   8.249
 3189TIP3   OH231125   3.995   0.627   8.236
 3189TIP3    H131126   3.997   0.724   8.247
 3189TIP3    H231127   3.910   0.608   8.197
 3190TIP3   OH231128   4.777   1.607   8.143
 3190TIP3    H131129   4.709   1.540   8.171
 3190TIP3    H231130   4.849   1.546   8.119
 3191TIP3   OH231131   5.233   1.580   8.160
 3191TIP3    H131132   5.262   1.505   8.214
 3191TIP3    H231133   5.312   1.602   8.108
 3192TIP3   OH231134   4.322   1.172   8.149
 3192TIP3    H131135   4.339   1.096   8.207
 3192TIP3    H231136   4.397   1.163   8.087
 3193TIP3   OH231137   4.867   1.282   8.127
 3193TIP3    H131138   4.840   1.292   8.219
 3193TIP3    H231139   4.845   1.187   8.110
 3194TIP3   OH231140   4.442   0.972   8.383
 3194TIP3    H131141   4.396   0.920   8.450
 3194TIP3    H231142   4.471   0.904   8.318
 3195TIP3   OH231143   4.550   0.794   8.208
 3195TIP3    H131144   4.536   0.786   8.111
 3195TIP3    H231145   4.647   0.803   8.216
 3196TIP3   OH231146   5.484   1.033   8.158
 3196TIP3    H131147   5.466   0.992   8.071
 3196TIP3    H231148   5.493   1.128   8.132
 3197TIP3   OH231149   4.536   1.868   8.319
 3197TIP3    H131150   4.634   1.876   8.323
 3197TIP3    H231151   4.518   1.928   8.245
 3198TIP3   OH231152   3.890   1.325   8.263
 3198TIP3    H131153   3.985   1.335   8.284
 3198TIP3    H231154   3.896   1.259   8.192
 3199TIP3   OH231155   5.608   0.907   8.364
 3199TIP3    H131156   5.554   0.948   8.292
 3199TIP3    H231157   5.605   0.973   8.437
 3200TIP3   OH231158   5.440   0.638   8.229
 3200TIP3    H131159   5.447   0.701   8.156
 3200TIP3    H231160   5.422   0.554   8.181
 3201TIP3   OH231161   5.363   0.380   8.142
 3201TIP3    H131162   5.424   0.338   8.206
 3201TIP3    H231163   5.278   0.337   8.162
 3202TIP3   OH231164   5.571   0.266   8.296
 3202TIP3    H131165   5.612   0.192   8.246
 3202TIP3    H231166   5.643   0.331   8.303
 3203TIP3   OH231167   3.941   0.078   8.399
 3203TIP3    H131168   3.985   0.141   8.339
 3203TIP3    H231169   3.886   0.141   8.444
 3204TIP3   OH231170   4.104   0.256   8.252
 3204TIP3    H131171   4.162   0.201   8.194
 3204TIP3    H231172   4.172   0.292   8.313
 3205TIP3   OH231173   4.802   1.790   8.336
 3205TIP3    H131174   4.893   1.818   8.316
 3205TIP3    H231175   4.783   1.739   8.255
 3206TIP3   OH231176   4.097   1.761   8.196
 3206TIP3    H131177   4.070   1.785   8.286
 3206TIP3    H231178   4.174   1.702   8.211
 3207TIP3   OH231179   6.713   0.782   8.262
 3207TIP3    H131180   6.784   0.785   8.330
 3207TIP3    H231181   6.748   0.712   8.206
 3208TIP3   OH231182   6.932   0.856   8.417
 3208TIP3    H131183   6.978   0.882   8.499
 3208TIP3    H231184   6.970   0.916   8.351
 3209TIP3   OH231185   6.968   1.756   8.315
 3209TIP3    H131186   7.011   1.681   8.268
 3209TIP3    H231187   6.974   1.727   8.407
 3210TIP3   OH231188   7.094   0.964   8.206
 3210TIP3    H131189   7.085   0.950   8.108
 3210TIP3    H231190   7.170   1.022   8.208
 3211TIP3   OH231191   6.645   0.361   8.257
 3211TIP3    H131192   6.616   0.363   8.348
 3211TIP3    H231193   6.615   0.273   8.227
 3212TIP3   OH231194   6.328   0.405   8.170
 3212TIP3    H131195   6.280   0.362   8.243
 3212TIP3    H231196   6.257   0.443   8.116
 3213TIP3   OH231197   5.779   0.442   8.409
 3213TIP3    H131198   5.833   0.507   8.360
 3213TIP3    H231199   5.714   0.503   8.447
 3214TIP3   OH231200   6.196   0.675   8.312
 3214TIP3    H131201   6.141   0.644   8.238
 3214TIP3    H231202   6.276   0.702   8.263
 3215TIP3   OH231203   6.919   0.420   8.317
 3215TIP3    H131204   6.822   0.429   8.308
 3215TIP3    H231205   6.943   0.504   8.361
 3216TIP3   OH231206   6.987   0.613   8.486
 3216TIP3    H131207   7.077   0.591   8.513
 3216TIP3    H231208   6.994   0.692   8.430
 3217TIP3   OH231209   6.740   1.280   8.406
 3217TIP3    H131210   6.705   1.364   8.438
 3217TIP3    H231211   6.669   1.219   8.427
 3218TIP3   OH231212   5.854   0.907   8.273
 3218TIP3    H131213   5.914   0.968   8.323
 3218TIP3    H231214   5.766   0.935   8.304
 3219TIP3   OH231215   7.047   1.306   8.283
 3219TIP3    H131216   7.079   1.274   8.368
 3219TIP3    H231217   6.952   1.295   8.294
 3220TIP3   OH231218   6.461   1.420   8.133
 3220TIP3    H131219   6.473   1.342   8.076
 3220TIP3    H231220   6.422   1.376   8.212
 3221TIP3   OH231221   6.346   1.361   8.375
 3221TIP3    H131222   6.363   1.318   8.459
 3221TIP3    H231223   6.351   1.456   8.402
 3222TIP3   OH231224   5.980   1.098   8.416
 3222TIP3    H131225   5.925   1.130   8.487
 3222TIP3    H231226   6.046   1.168   8.403
 3223TIP3   OH231227   6.582   1.512   8.377
 3223TIP3    H131228   6.530   1.571   8.431
 3223TIP3    H231229   6.660   1.570   8.369
 3224TIP3   OH231230   6.338   1.613   8.420
 3224TIP3    H131231   6.356   1.698   8.373
 3224TIP3    H231232   6.299   1.627   8.507
 3225TIP3   OH231233   6.214   0.298   8.389
 3225TIP3    H131234   6.197   0.385   8.428
 3225TIP3    H231235   6.305   0.289   8.424
 3226TIP3   OH231236   6.050   1.361   8.316
 3226TIP3    H131237   6.116   1.423   8.345
 3226TIP3    H231238   6.103   1.313   8.249
 3227TIP3   OH231239   5.883   0.628   8.231
 3227TIP3    H131240   5.881   0.724   8.250
 3227TIP3    H231241   5.795   0.607   8.201
 3228TIP3   OH231242   6.663   1.606   8.142
 3228TIP3    H131243   6.595   1.539   8.168
 3228TIP3    H231244   6.736   1.546   8.118
 3229TIP3   OH231245   7.118   1.581   8.167
 3229TIP3    H131246   7.148   1.503   8.217
 3229TIP3    H231247   7.194   1.599   8.108
 3230TIP3   OH231248   6.208   1.173   8.150
 3230TIP3    H131249   6.225   1.098   8.208
 3230TIP3    H231250   6.283   1.164   8.088
 3231TIP3   OH231251   6.753   1.282   8.127
 3231TIP3    H131252   6.723   1.293   8.219
 3231TIP3    H231253   6.730   1.188   8.110
 3232TIP3   OH231254   6.327   0.972   8.383
 3232TIP3    H131255   6.282   0.920   8.450
 3232TIP3    H231256   6.357   0.905   8.318
 3233TIP3   OH231257   6.435   0.793   8.208
 3233TIP3    H131258   6.422   0.785   8.111
 3233TIP3    H231259   6.533   0.803   8.216
 3234TIP3   OH231260   6.423   1.868   8.328
 3234TIP3    H131261   6.521   1.877   8.320
 3234TIP3    H231262   6.404   1.922   8.247
 3235TIP3   OH231263   5.775   1.325   8.263
 3235TIP3    H131264   5.871   1.335   8.284
 3235TIP3    H231265   5.781   1.258   8.192
 3236TIP3   OH231266   7.247   0.376   8.142
 3236TIP3    H131267   7.307   0.343   8.208
 3236TIP3    H231268   7.159   0.339   8.161
 3237TIP3   OH231269   5.815   0.067   8.401
 3237TIP3    H131270   5.859   0.135   8.348
 3237TIP3    H231271   5.754   0.123   8.450
 3238TIP3   OH231272   5.992   0.260   8.248
 3238TIP3    H131273   6.048   0.199   8.195
 3238TIP3    H231274   6.055   0.291   8.316
 3239TIP3   OH231275   6.685   1.790   8.336
 3239TIP3    H131276   6.777   1.818   8.317
 3239TIP3    H231277   6.670   1.739   8.253
 3240TIP3   OH231278   5.984   1.762   8.196
 3240TIP3    H131279   5.953   1.784   8.286
 3240TIP3    H231280   6.059   1.702   8.211
 3241TIP3   OH231281   1.055   2.667   8.263
 3241TIP3    H131282   1.126   2.671   8.331
 3241TIP3    H231283   1.092   2.598   8.207
 3242TIP3   OH231284   1.280   2.740   8.414
 3242TIP3    H131285   1.322   2.768   8.499
 3242TIP3    H231286   1.317   2.802   8.348
 3243TIP3   OH231287   1.656   1.931   8.418
 3243TIP3    H131288   1.562   1.939   8.437
 3243TIP3    H231289   1.676   2.015   8.373
 3244TIP3   OH231290   1.770   3.366   8.243
 3244TIP3    H131291   1.784   3.459   8.268
 3244TIP3    H231292   1.862   3.336   8.250
 3245TIP3   OH231293   1.312   3.641   8.317
 3245TIP3    H131294   1.354   3.567   8.269
 3245TIP3    H231295   1.318   3.611   8.409
 3246TIP3   OH231296   1.433   2.856   8.203
 3246TIP3    H131297   1.427   2.838   8.106
 3246TIP3    H231298   1.516   2.904   8.206
 3247TIP3   OH231299   0.989   2.243   8.256
 3247TIP3    H131300   0.960   2.250   8.349
 3247TIP3    H231301   0.955   2.157   8.230
 3248TIP3   OH231302   0.674   2.284   8.167
 3248TIP3    H131303   0.626   2.247   8.244
 3248TIP3    H231304   0.603   2.328   8.118
 3249TIP3   OH231305   0.141   2.340   8.410
 3249TIP3    H131306   0.183   2.406   8.352
 3249TIP3    H231307   0.058   2.379   8.442
 3250TIP3   OH231308   0.540   2.561   8.312
 3250TIP3    H131309   0.484   2.530   8.238
 3250TIP3    H231310   0.619   2.588   8.264
 3251TIP3   OH231311   1.258   2.305   8.315
 3251TIP3    H131312   1.162   2.318   8.312
 3251TIP3    H231313   1.290   2.386   8.361
 3252TIP3   OH231314   1.330   2.494   8.484
 3252TIP3    H131315   1.420   2.481   8.518
 3252TIP3    H231316   1.336   2.576   8.431
 3253TIP3   OH231317   1.084   3.167   8.405
 3253TIP3    H131318   1.048   3.250   8.438
 3253TIP3    H231319   1.013   3.105   8.427
 3254TIP3   OH231320   1.836   2.514   8.448
 3254TIP3    H131321   1.770   2.478   8.384
 3254TIP3    H231322   1.833   2.609   8.424
 3255TIP3   OH231323   0.191   2.789   8.278
 3255TIP3    H131324   0.257   2.851   8.322
 3255TIP3    H231325   0.108   2.826   8.306
 3256TIP3   OH231326   1.394   3.192   8.284
 3256TIP3    H131327   1.424   3.159   8.369
 3256TIP3    H231328   1.298   3.182   8.294
 3257TIP3   OH231329   1.835   3.635   8.303
 3257TIP3    H131330   1.912   3.695   8.300
 3257TIP3    H231331   1.769   3.696   8.340
 3258TIP3   OH231332   0.804   3.304   8.131
 3258TIP3    H131333   0.816   3.226   8.075
 3258TIP3    H231334   0.766   3.263   8.212
 3259TIP3   OH231335   0.685   3.254   8.375
 3259TIP3    H131336   0.706   3.209   8.458
 3259TIP3    H231337   0.696   3.346   8.406
 3260TIP3   OH231338   0.324   2.982   8.416
 3260TIP3    H131339   0.268   3.016   8.486
 3260TIP3    H231340   0.389   3.054   8.403
 3261TIP3   OH231341   0.925   3.399   8.379
 3261TIP3    H131342   0.868   3.459   8.432
 3261TIP3    H231343   1.001   3.459   8.372
 3262TIP3   OH231344   0.704   3.527   8.456
 3262TIP3    H131345   0.711   3.605   8.395
 3262TIP3    H231346   0.678   3.568   8.538
 3263TIP3   OH231347   0.558   2.186   8.390
 3263TIP3    H131348   0.542   2.272   8.430
 3263TIP3    H231349   0.647   2.171   8.426
 3264TIP3   OH231350   0.390   3.247   8.313
 3264TIP3    H131351   0.456   3.311   8.346
 3264TIP3    H231352   0.446   3.199   8.250
 3265TIP3   OH231353   0.225   2.513   8.226
 3265TIP3    H131354   0.226   2.608   8.246
 3265TIP3    H231355   0.136   2.491   8.197
 3266TIP3   OH231356   1.006   3.492   8.143
 3266TIP3    H131357   0.938   3.426   8.171
 3266TIP3    H231358   1.078   3.431   8.119
 3267TIP3   OH231359   1.461   3.466   8.160
 3267TIP3    H131360   1.490   3.391   8.214
 3267TIP3    H231361   1.540   3.487   8.108
 3268TIP3   OH231362   0.551   3.057   8.149
 3268TIP3    H131363   0.567   2.981   8.206
 3268TIP3    H231364   0.626   3.048   8.087
 3269TIP3   OH231365   1.098   3.168   8.128
 3269TIP3    H131366   1.068   3.178   8.220
 3269TIP3    H231367   1.074   3.073   8.110
 3270TIP3   OH231368   0.671   2.857   8.382
 3270TIP3    H131369   0.625   2.805   8.450
 3270TIP3    H231370   0.701   2.790   8.318
 3271TIP3   OH231371   0.778   2.680   8.208
 3271TIP3    H131372   0.765   2.671   8.111
 3271TIP3    H231373   0.875   2.689   8.216
 3272TIP3   OH231374   1.713   2.918   8.158
 3272TIP3    H131375   1.695   2.878   8.071
 3272TIP3    H231376   1.721   3.013   8.132
 3273TIP3   OH231377   0.765   3.755   8.321
 3273TIP3    H131378   0.862   3.761   8.323
 3273TIP3    H231379   0.747   3.813   8.245
 3274TIP3   OH231380   0.121   3.211   8.266
 3274TIP3    H131381   0.216   3.223   8.286
 3274TIP3    H231382   0.127   3.145   8.195
 3275TIP3   OH231383   1.836   2.793   8.364
 3275TIP3    H131384   1.784   2.833   8.292
 3275TIP3    H231385   1.834   2.859   8.437
 3276TIP3   OH231386   1.669   2.523   8.228
 3276TIP3    H131387   1.676   2.586   8.156
 3276TIP3    H231388   1.650   2.439   8.180
 3277TIP3   OH231389   1.591   2.264   8.140
 3277TIP3    H131390   1.652   2.224   8.204
 3277TIP3    H231391   1.507   2.225   8.164
 3278TIP3   OH231392   1.798   2.152   8.294
 3278TIP3    H131393   1.842   2.078   8.246
 3278TIP3    H231394   1.871   2.216   8.304
 3279TIP3   OH231395   0.153   1.955   8.394
 3279TIP3    H131396   0.207   2.022   8.350
 3279TIP3    H231397   0.097   2.009   8.451
 3280TIP3   OH231398   0.339   2.150   8.248
 3280TIP3    H131399   0.390   2.086   8.195
 3280TIP3    H231400   0.403   2.175   8.317
 3281TIP3   OH231401   1.030   3.676   8.336
 3281TIP3    H131402   1.121   3.703   8.316
 3281TIP3    H231403   1.011   3.625   8.255
 3282TIP3   OH231404   0.324   3.645   8.196
 3282TIP3    H131405   0.297   3.669   8.286
 3282TIP3    H231406   0.404   3.590   8.211
 3283TIP3   OH231407   2.941   2.667   8.260
 3283TIP3    H131408   3.010   2.671   8.330
 3283TIP3    H231409   2.979   2.597   8.208
 3284TIP3   OH231410   3.166   2.740   8.413
 3284TIP3    H131411   3.207   2.767   8.499
 3284TIP3    H231412   3.203   2.802   8.348
 3285TIP3   OH231413   3.542   1.931   8.418
 3285TIP3    H131414   3.448   1.939   8.437
 3285TIP3    H231415   3.562   2.015   8.373
 3286TIP3   OH231416   3.656   3.366   8.241
 3286TIP3    H131417   3.669   3.459   8.267
 3286TIP3    H231418   3.748   3.336   8.249
 3287TIP3   OH231419   3.198   3.642   8.317
 3287TIP3    H131420   3.239   3.567   8.269
 3287TIP3    H231421   3.203   3.611   8.409
 3288TIP3   OH231422   3.318   2.856   8.203
 3288TIP3    H131423   3.312   2.838   8.106
 3288TIP3    H231424   3.402   2.904   8.206
 3289TIP3   OH231425   2.872   2.246   8.257
 3289TIP3    H131426   2.845   2.248   8.350
 3289TIP3    H231427   2.844   2.158   8.228
 3290TIP3   OH231428   2.557   2.289   8.167
 3290TIP3    H131429   2.512   2.248   8.244
 3290TIP3    H231430   2.483   2.328   8.120
 3291TIP3   OH231431   2.007   2.324   8.407
 3291TIP3    H131432   2.062   2.391   8.361
 3291TIP3    H231433   1.943   2.387   8.447
 3292TIP3   OH231434   2.425   2.561   8.313
 3292TIP3    H131435   2.370   2.530   8.238
 3292TIP3    H231436   2.504   2.588   8.265
 3293TIP3   OH231437   3.144   2.305   8.317
 3293TIP3    H131438   3.048   2.317   8.310
 3293TIP3    H231439   3.175   2.387   8.360
 3294TIP3   OH231440   3.216   2.495   8.485
 3294TIP3    H131441   3.306   2.481   8.518
 3294TIP3    H231442   3.222   2.575   8.431
 3295TIP3   OH231443   2.969   3.166   8.405
 3295TIP3    H131444   2.934   3.250   8.438
 3295TIP3    H231445   2.898   3.105   8.427
 3296TIP3   OH231446   3.722   2.514   8.447
 3296TIP3    H131447   3.655   2.478   8.384
 3296TIP3    H231448   3.719   2.608   8.424
 3297TIP3   OH231449   2.083   2.793   8.273
 3297TIP3    H131450   2.143   2.854   8.322
 3297TIP3    H231451   1.995   2.820   8.304
 3298TIP3   OH231452   3.280   3.193   8.284
 3298TIP3    H131453   3.309   3.159   8.369
 3298TIP3    H231454   3.183   3.182   8.294
 3299TIP3   OH231455   3.721   3.635   8.305
 3299TIP3    H131456   3.798   3.695   8.300
 3299TIP3    H231457   3.654   3.697   8.339
 3300TIP3   OH231458   2.690   3.304   8.131
 3300TIP3    H131459   2.702   3.226   8.075
 3300TIP3    H231460   2.651   3.263   8.212
 3301TIP3   OH231461   2.572   3.254   8.376
 3301TIP3    H131462   2.592   3.209   8.459
 3301TIP3    H231463   2.582   3.346   8.406
 3302TIP3   OH231464   2.208   2.984   8.416
 3302TIP3    H131465   2.154   3.016   8.487
 3302TIP3    H231466   2.275   3.054   8.403
 3303TIP3   OH231467   2.811   3.399   8.380
 3303TIP3    H131468   2.753   3.459   8.432
 3303TIP3    H231469   2.887   3.459   8.372
 3304TIP3   OH231470   2.590   3.528   8.456
 3304TIP3    H131471   2.597   3.605   8.395
 3304TIP3    H231472   2.562   3.568   8.539
 3305TIP3   OH231473   2.443   2.186   8.390
 3305TIP3    H131474   2.427   2.272   8.430
 3305TIP3    H231475   2.532   2.171   8.426
 3306TIP3   OH231476   2.278   3.246   8.315
 3306TIP3    H131477   2.344   3.309   8.347
 3306TIP3    H231478   2.332   3.199   8.249
 3307TIP3   OH231479   2.112   2.513   8.229
 3307TIP3    H131480   2.111   2.608   8.250
 3307TIP3    H231481   2.023   2.492   8.202
 3308TIP3   OH231482   2.892   3.492   8.143
 3308TIP3    H131483   2.824   3.426   8.171
 3308TIP3    H231484   2.964   3.431   8.119
 3309TIP3   OH231485   3.347   3.466   8.160
 3309TIP3    H131486   3.376   3.391   8.214
 3309TIP3    H231487   3.426   3.487   8.108
 3310TIP3   OH231488   2.436   3.058   8.150
 3310TIP3    H131489   2.453   2.981   8.207
 3310TIP3    H231490   2.511   3.050   8.087
 3311TIP3   OH231491   2.984   3.167   8.128
 3311TIP3    H131492   2.954   3.178   8.220
 3311TIP3    H231493   2.959   3.073   8.110
 3312TIP3   OH231494   2.557   2.857   8.382
 3312TIP3    H131495   2.511   2.806   8.450
 3312TIP3    H231496   2.585   2.789   8.318
 3313TIP3   OH231497   2.665   2.678   8.207
 3313TIP3    H131498   2.650   2.671   8.111
 3313TIP3    H231499   2.762   2.689   8.218
 3314TIP3   OH231500   3.598   2.918   8.158
 3314TIP3    H131501   3.580   2.878   8.071
 3314TIP3    H231502   3.607   3.013   8.132
 3315TIP3   OH231503   2.651   3.754   8.319
 3315TIP3    H131504   2.748   3.762   8.323
 3315TIP3    H231505   2.633   3.814   8.245
 3316TIP3   OH231506   2.004   3.211   8.263
 3316TIP3    H131507   2.099   3.221   8.285
 3316TIP3    H231508   2.010   3.144   8.191
 3317TIP3   OH231509   3.722   2.792   8.365
 3317TIP3    H131510   3.669   2.833   8.292
 3317TIP3    H231511   3.719   2.858   8.437
 3318TIP3   OH231512   3.555   2.523   8.228
 3318TIP3    H131513   3.561   2.587   8.156
 3318TIP3    H231514   3.536   2.439   8.180
 3319TIP3   OH231515   3.478   2.266   8.141
 3319TIP3    H131516   3.538   2.223   8.205
 3319TIP3    H231517   3.393   2.224   8.161
 3320TIP3   OH231518   3.684   2.152   8.295
 3320TIP3    H131519   3.727   2.078   8.246
 3320TIP3    H231520   3.757   2.216   8.304
 3321TIP3   OH231521   2.044   1.956   8.400
 3321TIP3    H131522   2.090   2.022   8.347
 3321TIP3    H231523   1.985   2.013   8.449
 3322TIP3   OH231524   2.225   2.151   8.247
 3322TIP3    H131525   2.275   2.086   8.195
 3322TIP3    H231526   2.289   2.176   8.316
 3323TIP3   OH231527   2.917   3.675   8.336
 3323TIP3    H131528   3.007   3.703   8.316
 3323TIP3    H231529   2.897   3.624   8.254
 3324TIP3   OH231530   2.211   3.647   8.197
 3324TIP3    H131531   2.185   3.671   8.287
 3324TIP3    H231532   2.289   3.588   8.211
 3325TIP3   OH231533   4.828   2.670   8.262
 3325TIP3    H131534   4.898   2.670   8.331
 3325TIP3    H231535   4.863   2.598   8.208
 3326TIP3   OH231536   5.049   2.743   8.414
 3326TIP3    H131537   5.094   2.766   8.499
 3326TIP3    H231538   5.090   2.801   8.348
 3327TIP3   OH231539   5.428   1.932   8.416
 3327TIP3    H131540   5.334   1.938   8.438
 3327TIP3    H231541   5.447   2.016   8.372
 3328TIP3   OH231542   5.541   3.365   8.241
 3328TIP3    H131543   5.554   3.457   8.267
 3328TIP3    H231544   5.633   3.334   8.250
 3329TIP3   OH231545   5.084   3.642   8.317
 3329TIP3    H131546   5.125   3.567   8.269
 3329TIP3    H231547   5.089   3.611   8.409
 3330TIP3   OH231548   5.203   2.857   8.203
 3330TIP3    H131549   5.197   2.838   8.106
 3330TIP3    H231550   5.287   2.904   8.206
 3331TIP3   OH231551   4.757   2.246   8.257
 3331TIP3    H131552   4.731   2.248   8.350
 3331TIP3    H231553   4.730   2.158   8.228
 3332TIP3   OH231554   4.442   2.287   8.168
 3332TIP3    H131555   4.397   2.246   8.245
 3332TIP3    H231556   4.369   2.328   8.120
 3333TIP3   OH231557   3.893   2.324   8.407
 3333TIP3    H131558   3.947   2.391   8.361
 3333TIP3    H231559   3.829   2.387   8.447
 3334TIP3   OH231560   4.311   2.561   8.311
 3334TIP3    H131561   4.254   2.530   8.239
 3334TIP3    H231562   4.391   2.588   8.264
 3335TIP3   OH231563   5.029   2.304   8.317
 3335TIP3    H131564   4.934   2.318   8.310
 3335TIP3    H231565   5.061   2.387   8.360
 3336TIP3   OH231566   5.101   2.495   8.485
 3336TIP3    H131567   5.191   2.481   8.518
 3336TIP3    H231568   5.108   2.575   8.431
 3337TIP3   OH231569   4.855   3.168   8.405
 3337TIP3    H131570   4.827   3.252   8.444
 3337TIP3    H231571   4.798   3.103   8.447
 3338TIP3   OH231572   5.609   2.513   8.447
 3338TIP3    H131573   5.541   2.479   8.385
 3338TIP3    H231574   5.604   2.608   8.425
 3339TIP3   OH231575   3.969   2.793   8.273
 3339TIP3    H131576   4.028   2.853   8.323
 3339TIP3    H231577   3.881   2.820   8.304
 3340TIP3   OH231578   5.165   3.192   8.284
 3340TIP3    H131579   5.197   3.159   8.369
 3340TIP3    H231580   5.069   3.182   8.296
 3341TIP3   OH231581   5.607   3.635   8.304
 3341TIP3    H131582   5.681   3.695   8.301
 3341TIP3    H231583   5.538   3.695   8.339
 3342TIP3   OH231584   4.585   3.298   8.137
 3342TIP3    H131585   4.582   3.228   8.069
 3342TIP3    H231586   4.525   3.268   8.209
 3343TIP3   OH231587   4.470   3.251   8.376
 3343TIP3    H131588   4.470   3.210   8.464
 3343TIP3    H231589   4.465   3.345   8.406
 3344TIP3   OH231590   4.094   2.984   8.417
 3344TIP3    H131591   4.039   3.016   8.487
 3344TIP3    H231592   4.159   3.055   8.403
 3345TIP3   OH231593   4.698   3.395   8.379
 3345TIP3    H131594   4.640   3.457   8.430
 3345TIP3    H231595   4.772   3.459   8.372
 3346TIP3   OH231596   4.477   3.526   8.455
 3346TIP3    H131597   4.482   3.605   8.396
 3346TIP3    H231598   4.450   3.568   8.538
 3347TIP3   OH231599   4.329   2.186   8.390
 3347TIP3    H131600   4.313   2.272   8.430
 3347TIP3    H231601   4.418   2.171   8.426
 3348TIP3   OH231602   4.165   3.245   8.316
 3348TIP3    H131603   4.229   3.310   8.346
 3348TIP3    H231604   4.217   3.199   8.248
 3349TIP3   OH231605   4.000   2.513   8.226
 3349TIP3    H131606   3.996   2.608   8.252
 3349TIP3    H231607   3.908   2.492   8.204
 3350TIP3   OH231608   4.778   3.492   8.143
 3350TIP3    H131609   4.709   3.426   8.169
 3350TIP3    H231610   4.850   3.433   8.117
 3351TIP3   OH231611   5.233   3.466   8.160
 3351TIP3    H131612   5.262   3.391   8.214
 3351TIP3    H231613   5.312   3.487   8.108
 3352TIP3   OH231614   4.327   3.060   8.153
 3352TIP3    H131615   4.335   2.979   8.205
 3352TIP3    H231616   4.394   3.046   8.084
 3353TIP3   OH231617   4.859   3.168   8.127
 3353TIP3    H131618   4.855   3.179   8.222
 3353TIP3    H231619   4.850   3.071   8.108
 3354TIP3   OH231620   4.445   2.859   8.382
 3354TIP3    H131621   4.396   2.807   8.449
 3354TIP3    H231622   4.470   2.788   8.318
 3355TIP3   OH231623   4.550   2.681   8.207
 3355TIP3    H131624   4.538   2.671   8.111
 3355TIP3    H231625   4.647   2.687   8.216
 3356TIP3   OH231626   5.484   2.918   8.158
 3356TIP3    H131627   5.466   2.878   8.071
 3356TIP3    H231628   5.493   3.013   8.132
 3357TIP3   OH231629   4.536   3.753   8.319
 3357TIP3    H131630   4.633   3.761   8.323
 3357TIP3    H231631   4.518   3.813   8.245
 3358TIP3   OH231632   3.890   3.211   8.263
 3358TIP3    H131633   3.985   3.221   8.284
 3358TIP3    H231634   3.896   3.144   8.192
 3359TIP3   OH231635   5.607   2.792   8.365
 3359TIP3    H131636   5.555   2.833   8.292
 3359TIP3    H231637   5.605   2.858   8.437
 3360TIP3   OH231638   5.440   2.523   8.228
 3360TIP3    H131639   5.447   2.586   8.156
 3360TIP3    H231640   5.421   2.439   8.181
 3361TIP3   OH231641   5.364   2.266   8.141
 3361TIP3    H131642   5.423   2.223   8.205
 3361TIP3    H231643   5.278   2.224   8.161
 3362TIP3   OH231644   5.571   2.151   8.297
 3362TIP3    H131645   5.612   2.078   8.245
 3362TIP3    H231646   5.642   2.216   8.302
 3363TIP3   OH231647   3.929   1.957   8.400
 3363TIP3    H131648   3.976   2.022   8.346
 3363TIP3    H231649   3.870   2.014   8.449
 3364TIP3   OH231650   4.112   2.154   8.244
 3364TIP3    H131651   4.161   2.084   8.197
 3364TIP3    H231652   4.175   2.176   8.315
 3365TIP3   OH231653   4.802   3.672   8.337
 3365TIP3    H131654   4.892   3.703   8.317
 3365TIP3    H231655   4.783   3.626   8.253
 3366TIP3   OH231656   4.098   3.646   8.196
 3366TIP3    H131657   4.071   3.671   8.286
 3366TIP3    H231658   4.174   3.588   8.211
 3367TIP3   OH231659   6.713   2.667   8.263
 3367TIP3    H131660   6.785   2.671   8.330
 3367TIP3    H231661   6.748   2.598   8.206
 3368TIP3   OH231662   6.932   2.741   8.418
 3368TIP3    H131663   6.979   2.768   8.499
 3368TIP3    H231664   6.970   2.801   8.351
 3369TIP3   OH231665   6.968   3.642   8.315
 3369TIP3    H131666   7.011   3.567   8.268
 3369TIP3    H231667   6.973   3.612   8.407
 3370TIP3   OH231668   7.091   2.852   8.205
 3370TIP3    H131669   7.085   2.835   8.108
 3370TIP3    H231670   7.172   2.905   8.209
 3371TIP3   OH231671   6.644   2.247   8.256
 3371TIP3    H131672   6.619   2.249   8.349
 3371TIP3    H231673   6.616   2.159   8.227
 3372TIP3   OH231674   6.329   2.290   8.169
 3372TIP3    H131675   6.281   2.246   8.241
 3372TIP3    H231676   6.260   2.329   8.114
 3373TIP3   OH231677   5.785   2.326   8.413
 3373TIP3    H131678   5.829   2.394   8.357
 3373TIP3    H231679   5.713   2.385   8.446
 3374TIP3   OH231680   6.196   2.554   8.314
 3374TIP3    H131681   6.141   2.532   8.236
 3374TIP3    H231682   6.274   2.589   8.265
 3375TIP3   OH231683   6.917   2.306   8.315
 3375TIP3    H131684   6.821   2.315   8.309
 3375TIP3    H231685   6.943   2.388   8.361
 3376TIP3   OH231686   6.988   2.498   8.488
 3376TIP3    H131687   7.079   2.477   8.512
 3376TIP3    H231688   6.995   2.576   8.429
 3377TIP3   OH231689   6.740   3.166   8.409
 3377TIP3    H131690   6.705   3.250   8.437
 3377TIP3    H231691   6.669   3.103   8.426
 3378TIP3   OH231692   5.854   2.793   8.273
 3378TIP3    H131693   5.914   2.853   8.323
 3378TIP3    H231694   5.766   2.821   8.304
 3379TIP3   OH231695   7.048   3.190   8.283
 3379TIP3    H131696   7.080   3.159   8.368
 3379TIP3    H231697   6.953   3.181   8.294
 3380TIP3   OH231698   6.461   3.305   8.133
 3380TIP3    H131699   6.473   3.228   8.076
 3380TIP3    H231700   6.422   3.262   8.212
 3381TIP3   OH231701   6.345   3.254   8.376
 3381TIP3    H131702   6.361   3.206   8.457
 3381TIP3    H231703   6.351   3.347   8.404
 3382TIP3   OH231704   5.981   2.984   8.417
 3382TIP3    H131705   5.925   3.016   8.487
 3382TIP3    H231706   6.046   3.055   8.403
 3383TIP3   OH231707   6.581   3.398   8.384
 3383TIP3    H131708   6.524   3.465   8.425
 3383TIP3    H231709   6.658   3.457   8.368
 3384TIP3   OH231710   6.366   3.528   8.463
 3384TIP3    H131711   6.368   3.602   8.395
 3384TIP3    H231712   6.329   3.576   8.537
 3385TIP3   OH231713   6.216   2.183   8.393
 3385TIP3    H131714   6.220   2.277   8.410
 3385TIP3    H231715   6.308   2.168   8.421
 3386TIP3   OH231716   6.050   3.245   8.317
 3386TIP3    H131717   6.116   3.308   8.345
 3386TIP3    H231718   6.103   3.198   8.249
 3387TIP3   OH231719   5.883   2.512   8.233
 3387TIP3    H131720   5.881   2.609   8.248
 3387TIP3    H231721   5.795   2.493   8.199
 3388TIP3   OH231722   6.663   3.491   8.144
 3388TIP3    H131723   6.594   3.425   8.168
 3388TIP3    H231724   6.735   3.431   8.119
 3389TIP3   OH231725   7.118   3.467   8.167
 3389TIP3    H131726   7.148   3.389   8.217
 3389TIP3    H231727   7.194   3.484   8.108
 3390TIP3   OH231728   6.208   3.057   8.149
 3390TIP3    H131729   6.224   2.981   8.207
 3390TIP3    H231730   6.282   3.048   8.087
 3391TIP3   OH231731   6.754   3.168   8.127
 3391TIP3    H131732   6.724   3.178   8.218
 3391TIP3    H231733   6.730   3.073   8.110
 3392TIP3   OH231734   6.328   2.857   8.382
 3392TIP3    H131735   6.282   2.807   8.450
 3392TIP3    H231736   6.357   2.789   8.318
 3393TIP3   OH231737   6.435   2.680   8.208
 3393TIP3    H131738   6.422   2.671   8.111
 3393TIP3    H231739   6.532   2.689   8.216
 3394TIP3   OH231740   6.422   3.752   8.319
 3394TIP3    H131741   6.519   3.762   8.322
 3394TIP3    H231742   6.404   3.813   8.245
 3395TIP3   OH231743   5.775   3.211   8.263
 3395TIP3    H131744   5.871   3.220   8.284
 3395TIP3    H231745   5.781   3.144   8.192
 3396TIP3   OH231746   7.248   2.261   8.138
 3396TIP3    H131747   7.308   2.226   8.206
 3396TIP3    H231748   7.161   2.223   8.161
 3397TIP3   OH231749   5.819   1.958   8.404
 3397TIP3    H131750   5.859   2.021   8.344
 3397TIP3    H231751   5.753   2.011   8.448
 3398TIP3   OH231752   5.995   2.150   8.250
 3398TIP3    H131753   6.043   2.086   8.193
 3398TIP3    H231754   6.065   2.176   8.310
 3399TIP3   OH231755   6.687   3.672   8.338
 3399TIP3    H131756   6.777   3.704   8.317
 3399TIP3    H231757   6.668   3.626   8.253
 3400TIP3   OH231758   5.986   3.652   8.201
 3400TIP3    H131759   5.958   3.653   8.293
 3400TIP3    H231760   6.059   3.586   8.206
 3401TIP3   OH231761   1.056   4.553   8.263
 3401TIP3    H131762   1.126   4.556   8.331
 3401TIP3    H231763   1.092   4.484   8.207
 3402TIP3   OH231764   1.280   4.626   8.414
 3402TIP3    H131765   1.322   4.653   8.499
 3402TIP3    H231766   1.317   4.688   8.348
 3403TIP3   OH231767   1.655   3.817   8.416
 3403TIP3    H131768   1.561   3.826   8.437
 3403TIP3    H231769   1.676   3.901   8.372
 3404TIP3   OH231770   1.770   5.252   8.241
 3404TIP3    H131771   1.784   5.345   8.267
 3404TIP3    H231772   1.862   5.222   8.249
 3405TIP3   OH231773   1.312   5.527   8.317
 3405TIP3    H131774   1.354   5.453   8.269
 3405TIP3    H231775   1.318   5.497   8.409
 3406TIP3   OH231776   1.433   4.741   8.203
 3406TIP3    H131777   1.427   4.724   8.106
 3406TIP3    H231778   1.516   4.789   8.206
 3407TIP3   OH231779   0.986   4.132   8.257
 3407TIP3    H131780   0.959   4.134   8.350
 3407TIP3    H231781   0.958   4.043   8.228
 3408TIP3   OH231782   0.673   4.173   8.168
 3408TIP3    H131783   0.625   4.133   8.244
 3408TIP3    H231784   0.601   4.214   8.118
 3409TIP3   OH231785   0.142   4.226   8.410
 3409TIP3    H131786   0.183   4.292   8.352
 3409TIP3    H231787   0.058   4.265   8.442
 3410TIP3   OH231788   0.540   4.446   8.312
 3410TIP3    H131789   0.484   4.415   8.238
 3410TIP3    H231790   0.619   4.474   8.264
 3411TIP3   OH231791   1.258   4.190   8.317
 3411TIP3    H131792   1.162   4.203   8.310
 3411TIP3    H231793   1.290   4.272   8.360
 3412TIP3   OH231794   1.331   4.380   8.485
 3412TIP3    H131795   1.421   4.367   8.518
 3412TIP3    H231796   1.337   4.461   8.431
 3413TIP3   OH231797   1.084   5.052   8.405
 3413TIP3    H131798   1.048   5.136   8.438
 3413TIP3    H231799   1.013   4.991   8.427
 3414TIP3   OH231800   1.836   4.400   8.447
 3414TIP3    H131801   1.769   4.363   8.385
 3414TIP3    H231802   1.830   4.494   8.424
 3415TIP3   OH231803   0.192   4.675   8.278
 3415TIP3    H131804   0.257   4.736   8.322
 3415TIP3    H231805   0.108   4.711   8.306
 3416TIP3   OH231806   1.394   5.078   8.284
 3416TIP3    H131807   1.423   5.044   8.369
 3416TIP3    H231808   1.298   5.067   8.294
 3417TIP3   OH231809   1.835   5.520   8.305
 3417TIP3    H131810   1.912   5.580   8.300
 3417TIP3    H231811   1.768   5.582   8.339
 3418TIP3   OH231812   0.804   5.190   8.131
 3418TIP3    H131813   0.816   5.112   8.075
 3418TIP3    H231814   0.766   5.149   8.212
 3419TIP3   OH231815   0.685   5.139   8.375
 3419TIP3    H131816   0.706   5.094   8.458
 3419TIP3    H231817   0.696   5.232   8.406
 3420TIP3   OH231818   0.324   4.868   8.416
 3420TIP3    H131819   0.268   4.902   8.486
 3420TIP3    H231820   0.389   4.940   8.403
 3421TIP3   OH231821   0.925   5.284   8.379
 3421TIP3    H131822   0.868   5.344   8.432
 3421TIP3    H231823   1.001   5.344   8.372
 3422TIP3   OH231824   0.704   5.413   8.455
 3422TIP3    H131825   0.711   5.491   8.395
 3422TIP3    H231826   0.679   5.454   8.539
 3423TIP3   OH231827   0.558   4.072   8.390
 3423TIP3    H131828   0.542   4.158   8.429
 3423TIP3    H231829   0.647   4.057   8.426
 3424TIP3   OH231830   0.390   5.133   8.314
 3424TIP3    H131831   0.457   5.195   8.347
 3424TIP3    H231832   0.446   5.085   8.249
 3425TIP3   OH231833   0.225   4.399   8.226
 3425TIP3    H131834   0.226   4.494   8.246
 3425TIP3    H231835   0.136   4.377   8.197
 3426TIP3   OH231836   1.006   5.378   8.143
 3426TIP3    H131837   0.938   5.311   8.171
 3426TIP3    H231838   1.078   5.317   8.119
 3427TIP3   OH231839   1.461   5.351   8.160
 3427TIP3    H131840   1.490   5.276   8.214
 3427TIP3    H231841   1.540   5.373   8.108
 3428TIP3   OH231842   0.551   4.943   8.149
 3428TIP3    H131843   0.567   4.867   8.206
 3428TIP3    H231844   0.626   4.934   8.087
 3429TIP3   OH231845   1.098   5.053   8.128
 3429TIP3    H131846   1.068   5.063   8.220
 3429TIP3    H231847   1.074   4.959   8.110
 3430TIP3   OH231848   0.670   4.742   8.382
 3430TIP3    H131849   0.625   4.690   8.450
 3430TIP3    H231850   0.701   4.675   8.318
 3431TIP3   OH231851   0.778   4.566   8.208
 3431TIP3    H131852   0.765   4.557   8.111
 3431TIP3    H231853   0.875   4.575   8.216
 3432TIP3   OH231854   1.713   4.804   8.158
 3432TIP3    H131855   1.695   4.763   8.071
 3432TIP3    H231856   1.721   4.899   8.132
 3433TIP3   OH231857   0.765   5.639   8.318
 3433TIP3    H131858   0.862   5.646   8.324
 3433TIP3    H231859   0.748   5.700   8.246
 3434TIP3   OH231860   0.121   5.097   8.266
 3434TIP3    H131861   0.216   5.109   8.286
 3434TIP3    H231862   0.127   5.030   8.195
 3435TIP3   OH231863   1.838   4.678   8.364
 3435TIP3    H131864   1.782   4.718   8.292
 3435TIP3    H231865   1.832   4.744   8.437
 3436TIP3   OH231866   1.669   4.408   8.228
 3436TIP3    H131867   1.676   4.472   8.156
 3436TIP3    H231868   1.650   4.325   8.181
 3437TIP3   OH231869   1.592   4.151   8.141
 3437TIP3    H131870   1.652   4.109   8.205
 3437TIP3    H231871   1.507   4.110   8.161
 3438TIP3   OH231872   1.799   4.037   8.295
 3438TIP3    H131873   1.842   3.964   8.247
 3438TIP3    H231874   1.871   4.102   8.304
 3439TIP3   OH231875   0.152   3.841   8.394
 3439TIP3    H131876   0.207   3.908   8.350
 3439TIP3    H231877   0.097   3.895   8.451
 3440TIP3   OH231878   0.339   4.036   8.248
 3440TIP3    H131879   0.390   3.971   8.195
 3440TIP3    H231880   0.404   4.061   8.316
 3441TIP3   OH231881   1.030   5.562   8.336
 3441TIP3    H131882   1.121   5.589   8.316
 3441TIP3    H231883   1.011   5.510   8.255
 3442TIP3   OH231884   0.324   5.532   8.194
 3442TIP3    H131885   0.297   5.555   8.285
 3442TIP3    H231886   0.403   5.477   8.210
 3443TIP3   OH231887   2.937   4.553   8.263
 3443TIP3    H131888   3.012   4.576   8.323
 3443TIP3    H231889   2.976   4.495   8.196
 3444TIP3   OH231890   3.165   4.622   8.412
 3444TIP3    H131891   3.206   4.653   8.498
 3444TIP3    H231892   3.202   4.688   8.349
 3445TIP3   OH231893   3.542   3.817   8.418
 3445TIP3    H131894   3.447   3.825   8.437
 3445TIP3    H231895   3.562   3.901   8.373
 3446TIP3   OH231896   3.656   5.252   8.241
 3446TIP3    H131897   3.669   5.345   8.267
 3446TIP3    H231898   3.748   5.222   8.249
 3447TIP3   OH231899   3.198   5.527   8.317
 3447TIP3    H131900   3.239   5.453   8.269
 3447TIP3    H231901   3.203   5.497   8.409
 3448TIP3   OH231902   3.318   4.739   8.204
 3448TIP3    H131903   3.313   4.725   8.105
 3448TIP3    H231904   3.401   4.790   8.206
 3449TIP3   OH231905   2.876   4.134   8.261
 3449TIP3    H131906   2.840   4.131   8.350
 3449TIP3    H231907   2.846   4.047   8.227
 3450TIP3   OH231908   2.559   4.178   8.173
 3450TIP3    H131909   2.510   4.130   8.243
 3450TIP3    H231910   2.488   4.212   8.116
 3451TIP3   OH231911   2.008   4.211   8.409
 3451TIP3    H131912   2.060   4.276   8.359
 3451TIP3    H231913   1.941   4.271   8.447
 3452TIP3   OH231914   2.418   4.454   8.311
 3452TIP3    H131915   2.372   4.412   8.235
 3452TIP3    H231916   2.502   4.473   8.265
 3453TIP3   OH231917   3.143   4.189   8.318
 3453TIP3    H131918   3.047   4.194   8.306
 3453TIP3    H231919   3.184   4.267   8.359
 3454TIP3   OH231920   3.220   4.380   8.484
 3454TIP3    H131921   3.309   4.364   8.521
 3454TIP3    H231922   3.235   4.464   8.435
 3455TIP3   OH231923   2.969   5.052   8.405
 3455TIP3    H131924   2.934   5.135   8.438
 3455TIP3    H231925   2.898   4.990   8.427
 3456TIP3   OH231926   3.721   4.400   8.448
 3456TIP3    H131927   3.655   4.363   8.384
 3456TIP3    H231928   3.719   4.494   8.424
 3457TIP3   OH231929   2.088   4.672   8.285
 3457TIP3    H131930   2.140   4.749   8.318
 3457TIP3    H231931   1.996   4.705   8.300
 3458TIP3   OH231932   3.280   5.078   8.284
 3458TIP3    H131933   3.309   5.044   8.369
 3458TIP3    H231934   3.183   5.067   8.294
 3459TIP3   OH231935   3.721   5.520   8.305
 3459TIP3    H131936   3.798   5.580   8.300
 3459TIP3    H231937   3.654   5.582   8.339
 3460TIP3   OH231938   2.690   5.189   8.131
 3460TIP3    H131939   2.702   5.111   8.075
 3460TIP3    H231940   2.651   5.149   8.212
 3461TIP3   OH231941   2.572   5.139   8.375
 3461TIP3    H131942   2.592   5.094   8.459
 3461TIP3    H231943   2.582   5.232   8.406
 3462TIP3   OH231944   2.210   4.866   8.417
 3462TIP3    H131945   2.153   4.903   8.486
 3462TIP3    H231946   2.275   4.939   8.403
 3463TIP3   OH231947   2.810   5.284   8.380
 3463TIP3    H131948   2.753   5.344   8.432
 3463TIP3    H231949   2.886   5.344   8.372
 3464TIP3   OH231950   2.590   5.413   8.456
 3464TIP3    H131951   2.597   5.491   8.395
 3464TIP3    H231952   2.564   5.454   8.539
 3465TIP3   OH231953   2.444   4.073   8.389
 3465TIP3    H131954   2.428   4.157   8.431
 3465TIP3    H231955   2.532   4.055   8.425
 3466TIP3   OH231956   2.278   5.129   8.316
 3466TIP3    H131957   2.343   5.194   8.346
 3466TIP3    H231958   2.333   5.086   8.248
 3467TIP3   OH231959   2.113   4.402   8.235
 3467TIP3    H131960   2.105   4.498   8.243
 3467TIP3    H231961   2.027   4.376   8.200
 3468TIP3   OH231962   2.892   5.378   8.143
 3468TIP3    H131963   2.824   5.311   8.171
 3468TIP3    H231964   2.964   5.317   8.119
 3469TIP3   OH231965   3.347   5.352   8.160
 3469TIP3    H131966   3.376   5.276   8.214
 3469TIP3    H231967   3.426   5.373   8.108
 3470TIP3   OH231968   2.436   4.941   8.149
 3470TIP3    H131969   2.454   4.867   8.207
 3470TIP3    H231970   2.511   4.935   8.087
 3471TIP3   OH231971   2.984   5.053   8.128
 3471TIP3    H131972   2.954   5.064   8.220
 3471TIP3    H231973   2.959   4.959   8.110
 3472TIP3   OH231974   2.554   4.741   8.380
 3472TIP3    H131975   2.517   4.691   8.453
 3472TIP3    H231976   2.587   4.674   8.317
 3473TIP3   OH231977   2.664   4.562   8.209
 3473TIP3    H131978   2.649   4.558   8.111
 3473TIP3    H231979   2.761   4.577   8.214
 3474TIP3   OH231980   3.598   4.804   8.158
 3474TIP3    H131981   3.581   4.763   8.071
 3474TIP3    H231982   3.607   4.899   8.132
 3475TIP3   OH231983   2.650   5.639   8.319
 3475TIP3    H131984   2.748   5.647   8.323
 3475TIP3    H231985   2.633   5.699   8.245
 3476TIP3   OH231986   2.004   5.097   8.263
 3476TIP3    H131987   2.099   5.108   8.284
 3476TIP3    H231988   2.009   5.032   8.191
 3477TIP3   OH231989   3.722   4.678   8.365
 3477TIP3    H131990   3.669   4.719   8.292
 3477TIP3    H231991   3.719   4.744   8.437
 3478TIP3   OH231992   3.550   4.410   8.228
 3478TIP3    H131993   3.563   4.472   8.156
 3478TIP3    H231994   3.538   4.325   8.180
 3479TIP3   OH231995   3.476   4.153   8.143
 3479TIP3    H131996   3.538   4.109   8.204
 3479TIP3    H231997   3.393   4.108   8.160
 3480TIP3   OH231998   3.684   4.037   8.295
 3480TIP3    H131999   3.727   3.964   8.246
 3480TIP3    H232000   3.757   4.102   8.304
 3481TIP3   OH232001   2.043   3.842   8.400
 3481TIP3    H132002   2.090   3.907   8.347
 3481TIP3    H232003   1.984   3.899   8.449
 3482TIP3   OH232004   2.225   4.039   8.247
 3482TIP3    H132005   2.274   3.972   8.195
 3482TIP3    H232006   2.290   4.060   8.317
 3483TIP3   OH232007   2.916   5.562   8.336
 3483TIP3    H132008   3.007   5.589   8.316
 3483TIP3    H232009   2.897   5.510   8.255
 3484TIP3   OH232010   2.211   5.532   8.196
 3484TIP3    H132011   2.185   5.557   8.286
 3484TIP3    H232012   2.289   5.474   8.211
 3485TIP3   OH232013   4.825   4.549   8.266
 3485TIP3    H132014   4.899   4.557   8.330
 3485TIP3    H232015   4.864   4.485   8.205
 3486TIP3   OH232016   5.050   4.628   8.416
 3486TIP3    H132017   5.096   4.653   8.499
 3486TIP3    H232018   5.088   4.686   8.346
 3487TIP3   OH232019   5.429   3.817   8.418
 3487TIP3    H132020   5.335   3.823   8.437
 3487TIP3    H232021   5.446   3.902   8.373
 3488TIP3   OH232022   5.542   5.253   8.242
 3488TIP3    H132023   5.556   5.346   8.266
 3488TIP3    H232024   5.634   5.222   8.250
 3489TIP3   OH232025   5.084   5.527   8.317
 3489TIP3    H132026   5.125   5.451   8.269
 3489TIP3    H232027   5.089   5.497   8.409
 3490TIP3   OH232028   5.241   4.705   8.216
 3490TIP3    H132029   5.197   4.720   8.127
 3490TIP3    H232030   5.287   4.791   8.211
 3491TIP3   OH232031   4.758   4.132   8.257
 3491TIP3    H132032   4.730   4.134   8.350
 3491TIP3    H232033   4.730   4.044   8.228
 3492TIP3   OH232034   4.442   4.173   8.169
 3492TIP3    H132035   4.396   4.133   8.245
 3492TIP3    H232036   4.371   4.214   8.118
 3493TIP3   OH232037   3.893   4.210   8.407
 3493TIP3    H132038   3.947   4.277   8.361
 3493TIP3    H232039   3.829   4.273   8.447
 3494TIP3   OH232040   4.311   4.447   8.312
 3494TIP3    H132041   4.255   4.415   8.238
 3494TIP3    H232042   4.391   4.474   8.263
 3495TIP3   OH232043   5.030   4.191   8.317
 3495TIP3    H132044   4.934   4.205   8.309
 3495TIP3    H232045   5.061   4.273   8.360
 3496TIP3   OH232046   5.101   4.383   8.487
 3496TIP3    H132047   5.192   4.365   8.515
 3496TIP3    H232048   5.108   4.460   8.428
 3497TIP3   OH232049   4.855   5.053   8.407
 3497TIP3    H132050   4.818   5.137   8.438
 3497TIP3    H232051   4.784   4.990   8.425
 3498TIP3   OH232052   5.608   4.399   8.448
 3498TIP3    H132053   5.542   4.363   8.384
 3498TIP3    H232054   5.605   4.493   8.423
 3499TIP3   OH232055   3.969   4.678   8.273
 3499TIP3    H132056   4.028   4.739   8.323
 3499TIP3    H232057   3.881   4.706   8.304
 3500TIP3   OH232058   5.169   5.090   8.293
 3500TIP3    H132059   5.194   5.040   8.369
 3500TIP3    H232060   5.074   5.063   8.286
 3501TIP3   OH232061   5.607   5.520   8.305
 3501TIP3    H132062   5.683   5.580   8.300
 3501TIP3    H232063   5.539   5.582   8.339
 3502TIP3   OH232064   4.572   5.191   8.130
 3502TIP3    H132065   4.590   5.112   8.076
 3502TIP3    H232066   4.537   5.149   8.212
 3503TIP3   OH232067   4.458   5.139   8.375
 3503TIP3    H132068   4.477   5.094   8.459
 3503TIP3    H232069   4.467   5.232   8.406
 3504TIP3   OH232070   4.094   4.869   8.416
 3504TIP3    H132071   4.039   4.902   8.487
 3504TIP3    H232072   4.161   4.940   8.403
 3505TIP3   OH232073   4.696   5.284   8.379
 3505TIP3    H132074   4.639   5.344   8.431
 3505TIP3    H232075   4.772   5.345   8.371
 3506TIP3   OH232076   4.476   5.413   8.456
 3506TIP3    H132077   4.482   5.491   8.395
 3506TIP3    H232078   4.450   5.454   8.539
 3507TIP3   OH232079   4.329   4.071   8.390
 3507TIP3    H132080   4.313   4.157   8.430
 3507TIP3    H232081   4.418   4.057   8.426
 3508TIP3   OH232082   4.164   5.131   8.315
 3508TIP3    H132083   4.230   5.194   8.346
 3508TIP3    H232084   4.218   5.084   8.249
 3509TIP3   OH232085   3.998   4.398   8.230
 3509TIP3    H132086   3.996   4.494   8.250
 3509TIP3    H232087   3.909   4.378   8.201
 3510TIP3   OH232088   4.777   5.378   8.142
 3510TIP3    H132089   4.710   5.311   8.170
 3510TIP3    H232090   4.849   5.316   8.119
 3511TIP3   OH232091   5.234   5.354   8.162
 3511TIP3    H132092   5.259   5.274   8.212
 3511TIP3    H232093   5.312   5.371   8.107
 3512TIP3   OH232094   4.322   4.943   8.149
 3512TIP3    H132095   4.339   4.867   8.207
 3512TIP3    H232096   4.397   4.934   8.087
 3513TIP3   OH232097   4.844   5.061   8.126
 3513TIP3    H132098   4.841   5.062   8.223
 3513TIP3    H232099   4.850   4.963   8.109
 3514TIP3   OH232100   4.443   4.743   8.382
 3514TIP3    H132101   4.397   4.691   8.449
 3514TIP3    H232102   4.472   4.675   8.318
 3515TIP3   OH232103   4.550   4.565   8.208
 3515TIP3    H132104   4.536   4.557   8.111
 3515TIP3    H232105   4.648   4.576   8.215
 3516TIP3   OH232106   5.494   4.805   8.157
 3516TIP3    H132107   5.465   4.764   8.073
 3516TIP3    H232108   5.490   4.900   8.131
 3517TIP3   OH232109   4.536   5.639   8.319
 3517TIP3    H132110   4.634   5.647   8.323
 3517TIP3    H232111   4.518   5.699   8.245
 3518TIP3   OH232112   3.890   5.097   8.263
 3518TIP3    H132113   3.985   5.106   8.284
 3518TIP3    H232114   3.896   5.030   8.192
 3519TIP3   OH232115   5.606   4.678   8.366
 3519TIP3    H132116   5.553   4.719   8.292
 3519TIP3    H232117   5.607   4.746   8.435
 3520TIP3   OH232118   5.440   4.409   8.227
 3520TIP3    H132119   5.443   4.474   8.156
 3520TIP3    H232120   5.421   4.325   8.180
 3521TIP3   OH232121   5.363   4.149   8.139
 3521TIP3    H132122   5.422   4.110   8.206
 3521TIP3    H232123   5.277   4.110   8.161
 3522TIP3   OH232124   5.571   4.035   8.299
 3522TIP3    H132125   5.610   3.964   8.243
 3522TIP3    H232126   5.640   4.104   8.303
 3523TIP3   OH232127   3.929   3.842   8.400
 3523TIP3    H132128   3.976   3.907   8.347
 3523TIP3    H232129   3.870   3.899   8.449
 3524TIP3   OH232130   4.110   4.036   8.247
 3524TIP3    H132131   4.161   3.971   8.195
 3524TIP3    H232132   4.175   4.062   8.316
 3525TIP3   OH232133   4.801   5.563   8.336
 3525TIP3    H132134   4.892   5.589   8.317
 3525TIP3    H232135   4.782   5.511   8.255
 3526TIP3   OH232136   4.097   5.532   8.196
 3526TIP3    H132137   4.070   5.557   8.286
 3526TIP3    H232138   4.174   5.474   8.211
 3527TIP3   OH232139   6.712   4.553   8.263
 3527TIP3    H132140   6.783   4.556   8.330
 3527TIP3    H232141   6.748   4.484   8.207
 3528TIP3   OH232142   6.933   4.626   8.417
 3528TIP3    H132143   6.978   4.654   8.499
 3528TIP3    H232144   6.970   4.688   8.351
 3529TIP3   OH232145   6.968   5.528   8.315
 3529TIP3    H132146   7.011   5.452   8.268
 3529TIP3    H232147   6.973   5.498   8.407
 3530TIP3   OH232148   7.092   4.738   8.205
 3530TIP3    H132149   7.085   4.721   8.108
 3530TIP3    H232150   7.172   4.791   8.208
 3531TIP3   OH232151   6.644   4.132   8.257
 3531TIP3    H132152   6.616   4.134   8.350
 3531TIP3    H232153   6.615   4.044   8.228
 3532TIP3   OH232154   6.328   4.172   8.167
 3532TIP3    H132155   6.284   4.135   8.246
 3532TIP3    H232156   6.258   4.216   8.118
 3533TIP3   OH232157   5.778   4.208   8.406
 3533TIP3    H132158   5.833   4.277   8.361
 3533TIP3    H232159   5.715   4.272   8.447
 3534TIP3   OH232160   6.197   4.446   8.312
 3534TIP3    H132161   6.140   4.415   8.239
 3534TIP3    H232162   6.276   4.473   8.263
 3535TIP3   OH232163   6.917   4.191   8.315
 3535TIP3    H132164   6.821   4.201   8.309
 3535TIP3    H232165   6.943   4.273   8.361
 3536TIP3   OH232166   6.988   4.383   8.486
 3536TIP3    H132167   7.079   4.363   8.512
 3536TIP3    H232168   6.994   4.463   8.430
 3537TIP3   OH232169   6.739   5.052   8.406
 3537TIP3    H132170   6.704   5.136   8.438
 3537TIP3    H232171   6.669   4.991   8.427
 3538TIP3   OH232172   5.854   4.678   8.273
 3538TIP3    H132173   5.914   4.739   8.323
 3538TIP3    H232174   5.766   4.706   8.304
 3539TIP3   OH232175   7.048   5.077   8.283
 3539TIP3    H132176   7.080   5.045   8.368
 3539TIP3    H232177   6.953   5.067   8.294
 3540TIP3   OH232178   6.461   5.189   8.131
 3540TIP3    H132179   6.473   5.111   8.075
 3540TIP3    H232180   6.423   5.149   8.212
 3541TIP3   OH232181   6.343   5.139   8.375
 3541TIP3    H132182   6.363   5.094   8.459
 3541TIP3    H232183   6.353   5.232   8.406
 3542TIP3   OH232184   5.980   4.869   8.416
 3542TIP3    H132185   5.925   4.902   8.487
 3542TIP3    H232186   6.047   4.940   8.403
 3543TIP3   OH232187   6.582   5.284   8.379
 3543TIP3    H132188   6.525   5.345   8.432
 3543TIP3    H232189   6.658   5.345   8.372
 3544TIP3   OH232190   6.361   5.413   8.456
 3544TIP3    H132191   6.368   5.491   8.395
 3544TIP3    H232192   6.335   5.454   8.539
 3545TIP3   OH232193   6.214   4.070   8.391
 3545TIP3    H132194   6.200   4.158   8.430
 3545TIP3    H232195   6.304   4.058   8.426
 3546TIP3   OH232196   6.049   5.131   8.315
 3546TIP3    H132197   6.115   5.194   8.346
 3546TIP3    H232198   6.103   5.084   8.249
 3547TIP3   OH232199   5.883   4.396   8.230
 3547TIP3    H132200   5.883   4.492   8.250
 3547TIP3    H232201   5.794   4.379   8.201
 3548TIP3   OH232202   6.664   5.378   8.142
 3548TIP3    H132203   6.595   5.312   8.170
 3548TIP3    H232204   6.736   5.317   8.119
 3549TIP3   OH232205   7.117   5.352   8.167
 3549TIP3    H132206   7.147   5.274   8.217
 3549TIP3    H232207   7.194   5.369   8.109
 3550TIP3   OH232208   6.208   4.943   8.149
 3550TIP3    H132209   6.224   4.867   8.207
 3550TIP3    H232210   6.282   4.934   8.087
 3551TIP3   OH232211   6.753   5.053   8.127
 3551TIP3    H132212   6.724   5.064   8.219
 3551TIP3    H232213   6.730   4.959   8.110
 3552TIP3   OH232214   6.328   4.743   8.382
 3552TIP3    H132215   6.282   4.691   8.450
 3552TIP3    H232216   6.357   4.675   8.318
 3553TIP3   OH232217   6.435   4.565   8.208
 3553TIP3    H132218   6.422   4.557   8.111
 3553TIP3    H232219   6.533   4.575   8.216
 3554TIP3   OH232220   6.422   5.639   8.319
 3554TIP3    H132221   6.519   5.647   8.323
 3554TIP3    H232222   6.404   5.699   8.245
 3555TIP3   OH232223   5.775   5.096   8.264
 3555TIP3    H132224   5.871   5.106   8.284
 3555TIP3    H232225   5.781   5.030   8.192
 3556TIP3   OH232226   7.248   4.146   8.139
 3556TIP3    H132227   7.308   4.112   8.206
 3556TIP3    H232228   7.161   4.109   8.161
 3557TIP3   OH232229   5.788   3.846   8.429
 3557TIP3    H132230   5.829   3.923   8.391
 3557TIP3    H232231   5.725   3.900   8.475
 3558TIP3   OH232232   6.002   4.046   8.244
 3558TIP3    H132233   6.058   3.987   8.189
 3558TIP3    H232234   6.066   4.071   8.316
 3559TIP3   OH232235   6.686   5.561   8.336
 3559TIP3    H132236   6.778   5.589   8.317
 3559TIP3    H232237   6.668   5.510   8.254
 3560TIP3   OH232238   5.983   5.532   8.196
 3560TIP3    H132239   5.956   5.557   8.286
 3560TIP3    H232240   6.060   5.474   8.211
 3561TIP3   OH232241   1.055   6.438   8.263
 3561TIP3    H132242   1.126   6.442   8.331
 3561TIP3    H232243   1.092   6.369   8.207
 3562TIP3   OH232244   1.280   6.512   8.414
 3562TIP3    H132245   1.322   6.539   8.499
 3562TIP3    H232246   1.317   6.574   8.348
 3563TIP3   OH232247   1.656   5.702   8.418
 3563TIP3    H132248   1.562   5.711   8.437
 3563TIP3    H232249   1.676   5.786   8.373
 3564TIP3   OH232250   1.775   7.134   8.243
 3564TIP3    H132251   1.782   7.228   8.266
 3564TIP3    H232252   1.867   7.105   8.249
 3565TIP3   OH232253   1.433   6.627   8.203
 3565TIP3    H132254   1.427   6.609   8.106
 3565TIP3    H232255   1.516   6.675   8.206
 3566TIP3   OH232256   0.984   6.018   8.256
 3566TIP3    H132257   0.961   6.020   8.350
 3566TIP3    H232258   0.960   5.928   8.229
 3567TIP3   OH232259   0.670   6.052   8.163
 3567TIP3    H132260   0.626   6.020   8.246
 3567TIP3    H232261   0.599   6.103   8.121
 3568TIP3   OH232262   0.142   6.112   8.410
 3568TIP3    H132263   0.183   6.178   8.352
 3568TIP3    H232264   0.058   6.150   8.442
 3569TIP3   OH232265   0.540   6.332   8.312
 3569TIP3    H132266   0.484   6.301   8.238
 3569TIP3    H232267   0.619   6.359   8.264
 3570TIP3   OH232268   1.258   6.075   8.317
 3570TIP3    H132269   1.162   6.089   8.309
 3570TIP3    H232270   1.290   6.158   8.360
 3571TIP3   OH232271   1.330   6.266   8.485
 3571TIP3    H132272   1.420   6.252   8.518
 3571TIP3    H232273   1.337   6.346   8.431
 3572TIP3   OH232274   1.084   6.936   8.406
 3572TIP3    H132275   1.048   7.021   8.436
 3572TIP3    H232276   1.012   6.876   8.428
 3573TIP3   OH232277   1.836   6.285   8.448
 3573TIP3    H132278   1.770   6.249   8.384
 3573TIP3    H232279   1.833   6.380   8.424
 3574TIP3   OH232280   0.191   6.560   8.278
 3574TIP3    H132281   0.257   6.621   8.322
 3574TIP3    H232282   0.108   6.597   8.306
 3575TIP3   OH232283   1.394   6.958   8.280
 3575TIP3    H132284   1.423   6.929   8.367
 3575TIP3    H232285   1.297   6.953   8.293
 3576TIP3   OH232286   0.804   7.074   8.132
 3576TIP3    H132287   0.815   6.995   8.076
 3576TIP3    H232288   0.766   7.033   8.213
 3577TIP3   OH232289   0.681   7.024   8.377
 3577TIP3    H132290   0.706   6.978   8.459
 3577TIP3    H232291   0.695   7.116   8.405
 3578TIP3   OH232292   0.323   6.755   8.415
 3578TIP3    H132293   0.269   6.788   8.486
 3578TIP3    H232294   0.388   6.828   8.403
 3579TIP3   OH232295   0.928   7.167   8.389
 3579TIP3    H132296   0.871   7.231   8.435
 3579TIP3    H232297   1.002   7.228   8.370
 3580TIP3   OH232298   0.708  -0.002   8.457
 3580TIP3    H132299   0.708   0.074   8.396
 3580TIP3    H232300   0.673   0.032   8.539
 3581TIP3   OH232301   0.558   5.958   8.388
 3581TIP3    H132302   0.542   6.043   8.429
 3581TIP3    H232303   0.646   5.942   8.427
 3582TIP3   OH232304   0.389   7.022   8.312
 3582TIP3    H132305   0.457   7.083   8.346
 3582TIP3    H232306   0.445   6.972   8.250
 3583TIP3   OH232307   0.225   6.284   8.225
 3583TIP3    H132308   0.226   6.379   8.246
 3583TIP3    H232309   0.136   6.262   8.197
 3584TIP3   OH232310   1.007   7.257   8.151
 3584TIP3    H132311   0.936   7.193   8.169
 3584TIP3    H232312   1.080   7.204   8.119
 3585TIP3   OH232313   1.479   7.234   8.183
 3585TIP3    H132314   1.504   7.148   8.216
 3585TIP3    H232315   1.549   7.255   8.117
 3586TIP3   OH232316   0.551   6.826   8.149
 3586TIP3    H132317   0.568   6.751   8.207
 3586TIP3    H232318   0.626   6.819   8.087
 3587TIP3   OH232319   1.099   6.940   8.128
 3587TIP3    H132320   1.067   6.952   8.218
 3587TIP3    H232321   1.074   6.846   8.110
 3588TIP3   OH232322   0.670   6.628   8.382
 3588TIP3    H132323   0.625   6.576   8.450
 3588TIP3    H232324   0.701   6.561   8.318
 3589TIP3   OH232325   0.777   6.451   8.208
 3589TIP3    H132326   0.764   6.441   8.111
 3589TIP3    H232327   0.875   6.460   8.216
 3590TIP3   OH232328   1.714   6.689   8.158
 3590TIP3    H132329   1.695   6.649   8.071
 3590TIP3    H232330   1.721   6.784   8.132
 3591TIP3   OH232331   0.122   6.989   8.262
 3591TIP3    H132332   0.217   6.994   8.286
 3591TIP3    H232333   0.127   6.917   8.197
 3592TIP3   OH232334   1.837   6.563   8.365
 3592TIP3    H132335   1.784   6.604   8.292
 3592TIP3    H232336   1.834   6.630   8.437
 3593TIP3   OH232337   1.669   6.294   8.228
 3593TIP3    H132338   1.676   6.358   8.156
 3593TIP3    H232339   1.650   6.210   8.181
 3594TIP3   OH232340   1.592   6.037   8.141
 3594TIP3    H132341   1.652   5.994   8.205
 3594TIP3    H232342   1.507   5.996   8.161
 3595TIP3   OH232343   1.799   5.923   8.295
 3595TIP3    H132344   1.842   5.849   8.246
 3595TIP3    H232345   1.871   5.987   8.304
 3596TIP3   OH232346   0.153   5.727   8.394
 3596TIP3    H132347   0.208   5.794   8.352
 3596TIP3    H232348   0.096   5.780   8.451
 3597TIP3   OH232349   0.340   5.923   8.243
 3597TIP3    H132350   0.391   5.855   8.198
 3597TIP3    H232351   0.401   5.946   8.317
 3598TIP3   OH232352   2.942   6.439   8.262
 3598TIP3    H132353   3.012   6.442   8.331
 3598TIP3    H232354   2.978   6.369   8.206
 3599TIP3   OH232355   3.166   6.512   8.414
 3599TIP3    H132356   3.207   6.539   8.499
 3599TIP3    H232357   3.203   6.574   8.349
 3600TIP3   OH232358   3.542   5.702   8.418
 3600TIP3    H132359   3.448   5.710   8.437
 3600TIP3    H232360   3.562   5.786   8.373
 3601TIP3   OH232361   3.661   7.134   8.252
 3601TIP3    H132362   3.668   7.230   8.254
 3601TIP3    H232363   3.753   7.102   8.243
 3602TIP3   OH232364   3.318   6.628   8.204
 3602TIP3    H132365   3.312   6.612   8.107
 3602TIP3    H232366   3.402   6.675   8.207
 3603TIP3   OH232367   2.872   6.017   8.257
 3603TIP3    H132368   2.845   6.019   8.350
 3603TIP3    H232369   2.844   5.929   8.228
 3604TIP3   OH232370   2.557   6.058   8.169
 3604TIP3    H132371   2.509   6.018   8.245
 3604TIP3    H232372   2.486   6.100   8.118
 3605TIP3   OH232373   2.007   6.096   8.407
 3605TIP3    H132374   2.062   6.163   8.361
 3605TIP3    H232375   1.943   6.158   8.447
 3606TIP3   OH232376   2.425   6.332   8.312
 3606TIP3    H132377   2.369   6.301   8.239
 3606TIP3    H232378   2.504   6.359   8.263
 3607TIP3   OH232379   3.144   6.076   8.315
 3607TIP3    H132380   3.048   6.089   8.309
 3607TIP3    H232381   3.175   6.158   8.360
 3608TIP3   OH232382   3.216   6.266   8.485
 3608TIP3    H132383   3.306   6.252   8.518
 3608TIP3    H232384   3.222   6.347   8.431
 3609TIP3   OH232385   2.970   6.936   8.406
 3609TIP3    H132386   2.934   7.021   8.436
 3609TIP3    H232387   2.898   6.876   8.428
 3610TIP3   OH232388   3.722   6.285   8.448
 3610TIP3    H132389   3.656   6.249   8.384
 3610TIP3    H232390   3.719   6.380   8.424
 3611TIP3   OH232391   2.083   6.564   8.273
 3611TIP3    H132392   2.143   6.624   8.323
 3611TIP3    H232393   1.995   6.592   8.304
 3612TIP3   OH232394   3.281   6.962   8.282
 3612TIP3    H132395   3.308   6.925   8.366
 3612TIP3    H232396   3.184   6.954   8.293
 3613TIP3   OH232397   2.692   7.074   8.131
 3613TIP3    H132398   2.700   6.995   8.075
 3613TIP3    H232399   2.652   7.034   8.212
 3614TIP3   OH232400   2.568   7.024   8.377
 3614TIP3    H132401   2.592   6.978   8.459
 3614TIP3    H232402   2.580   7.117   8.405
 3615TIP3   OH232403   2.208   6.757   8.416
 3615TIP3    H132404   2.154   6.789   8.487
 3615TIP3    H232405   2.274   6.828   8.403
 3616TIP3   OH232406   2.814   7.167   8.391
 3616TIP3    H132407   2.755   7.231   8.436
 3616TIP3    H232408   2.887   7.228   8.369
 3617TIP3   OH232409   2.594  -0.001   8.457
 3617TIP3    H132410   2.592   0.075   8.397
 3617TIP3    H232411   2.558   0.033   8.539
 3618TIP3   OH232412   2.443   5.957   8.390
 3618TIP3    H132413   2.427   6.043   8.430
 3618TIP3    H232414   2.532   5.942   8.426
 3619TIP3   OH232415   2.278   7.019   8.314
 3619TIP3    H132416   2.344   7.083   8.346
 3619TIP3    H232417   2.333   6.971   8.249
 3620TIP3   OH232418   2.112   6.284   8.230
 3620TIP3    H132419   2.111   6.380   8.250
 3620TIP3    H232420   2.023   6.263   8.201
 3621TIP3   OH232421   2.893   7.257   8.152
 3621TIP3    H132422   2.821   7.194   8.169
 3621TIP3    H232423   2.964   7.203   8.119
 3622TIP3   OH232424   3.374   7.238   8.190
 3622TIP3    H132425   3.384   7.146   8.213
 3622TIP3    H232426   3.430   7.252   8.111
 3623TIP3   OH232427   2.437   6.827   8.149
 3623TIP3    H132428   2.454   6.751   8.207
 3623TIP3    H232429   2.511   6.819   8.087
 3624TIP3   OH232430   2.985   6.941   8.128
 3624TIP3    H132431   2.952   6.952   8.218
 3624TIP3    H232432   2.960   6.847   8.111
 3625TIP3   OH232433   2.557   6.628   8.382
 3625TIP3    H132434   2.511   6.577   8.450
 3625TIP3    H232435   2.586   6.561   8.318
 3626TIP3   OH232436   2.664   6.451   8.208
 3626TIP3    H132437   2.650   6.441   8.111
 3626TIP3    H232438   2.762   6.460   8.216
 3627TIP3   OH232439   3.599   6.689   8.158
 3627TIP3    H132440   3.581   6.649   8.071
 3627TIP3    H232441   3.606   6.784   8.132
 3628TIP3   OH232442   2.007   6.985   8.260
 3628TIP3    H132443   2.101   6.993   8.286
 3628TIP3    H232444   2.013   6.914   8.193
 3629TIP3   OH232445   3.722   6.564   8.365
 3629TIP3    H132446   3.669   6.605   8.292
 3629TIP3    H232447   3.719   6.630   8.437
 3630TIP3   OH232448   3.554   6.294   8.228
 3630TIP3    H132449   3.563   6.359   8.158
 3630TIP3    H232450   3.536   6.211   8.180
 3631TIP3   OH232451   3.478   6.036   8.139
 3631TIP3    H132452   3.538   5.995   8.205
 3631TIP3    H232453   3.393   5.995   8.163
 3632TIP3   OH232454   3.684   5.923   8.295
 3632TIP3    H132455   3.727   5.849   8.246
 3632TIP3    H232456   3.757   5.987   8.304
 3633TIP3   OH232457   2.043   5.728   8.400
 3633TIP3    H132458   2.090   5.793   8.347
 3633TIP3    H232459   1.984   5.785   8.449
 3634TIP3   OH232460   2.224   5.921   8.247
 3634TIP3    H132461   2.275   5.857   8.195
 3634TIP3    H232462   2.289   5.947   8.316
 3635TIP3   OH232463   4.828   6.438   8.263
 3635TIP3    H132464   4.900   6.443   8.330
 3635TIP3    H232465   4.865   6.370   8.206
 3636TIP3   OH232466   5.049   6.513   8.415
 3636TIP3    H132467   5.094   6.539   8.498
 3636TIP3    H232468   5.088   6.572   8.348
 3637TIP3   OH232469   5.427   5.701   8.418
 3637TIP3    H132470   5.333   5.711   8.437
 3637TIP3    H232471   5.448   5.785   8.373
 3638TIP3   OH232472   5.546   7.134   8.244
 3638TIP3    H132473   5.553   7.228   8.266
 3638TIP3    H232474   5.639   7.105   8.249
 3639TIP3   OH232475   5.194   6.639   8.204
 3639TIP3    H132476   5.199   6.605   8.110
 3639TIP3    H232477   5.286   6.669   8.207
 3640TIP3   OH232478   4.758   6.017   8.257
 3640TIP3    H132479   4.730   6.019   8.350
 3640TIP3    H232480   4.729   5.929   8.228
 3641TIP3   OH232481   4.442   6.058   8.169
 3641TIP3    H132482   4.395   6.018   8.245
 3641TIP3    H232483   4.371   6.100   8.118
 3642TIP3   OH232484   3.892   6.096   8.407
 3642TIP3    H132485   3.947   6.163   8.361
 3642TIP3    H232486   3.829   6.158   8.447
 3643TIP3   OH232487   4.310   6.332   8.312
 3643TIP3    H132488   4.255   6.301   8.238
 3643TIP3    H232489   4.390   6.359   8.263
 3644TIP3   OH232490   5.030   6.077   8.315
 3644TIP3    H132491   4.934   6.089   8.310
 3644TIP3    H232492   5.062   6.159   8.359
 3645TIP3   OH232493   5.101   6.267   8.487
 3645TIP3    H132494   5.192   6.252   8.516
 3645TIP3    H232495   5.108   6.345   8.430
 3646TIP3   OH232496   4.855   6.936   8.406
 3646TIP3    H132497   4.820   7.021   8.436
 3646TIP3    H232498   4.783   6.876   8.428
 3647TIP3   OH232499   5.609   6.286   8.448
 3647TIP3    H132500   5.542   6.251   8.383
 3647TIP3    H232501   5.604   6.380   8.423
 3648TIP3   OH232502   3.969   6.564   8.273
 3648TIP3    H132503   4.028   6.624   8.323
 3648TIP3    H232504   3.881   6.592   8.304
 3649TIP3   OH232505   5.166   6.959   8.280
 3649TIP3    H132506   5.196   6.927   8.365
 3649TIP3    H232507   5.069   6.953   8.292
 3650TIP3   OH232508   4.577   7.074   8.131
 3650TIP3    H132509   4.586   6.995   8.075
 3650TIP3    H232510   4.538   7.034   8.212
 3651TIP3   OH232511   4.453   7.024   8.377
 3651TIP3    H132512   4.477   6.978   8.459
 3651TIP3    H232513   4.466   7.116   8.405
 3652TIP3   OH232514   4.095   6.756   8.416
 3652TIP3    H132515   4.040   6.786   8.488
 3652TIP3    H232516   4.160   6.828   8.403
 3653TIP3   OH232517   4.700   7.167   8.390
 3653TIP3    H132518   4.642   7.231   8.436
 3653TIP3    H232519   4.773   7.228   8.370
 3654TIP3   OH232520   4.480  -0.002   8.457
 3654TIP3    H132521   4.479   0.074   8.396
 3654TIP3    H232522   4.444   0.032   8.539
 3655TIP3   OH232523   4.329   5.957   8.390
 3655TIP3    H132524   4.313   6.043   8.430
 3655TIP3    H232525   4.418   5.942   8.426
 3656TIP3   OH232526   4.163   7.021   8.313
 3656TIP3    H132527   4.231   7.082   8.346
 3656TIP3    H232528   4.218   6.971   8.249
 3657TIP3   OH232529   3.998   6.284   8.230
 3657TIP3    H132530   3.996   6.380   8.250
 3657TIP3    H232531   3.909   6.263   8.201
 3658TIP3   OH232532   4.778   7.257   8.151
 3658TIP3    H132533   4.707   7.193   8.169
 3658TIP3    H232534   4.851   7.204   8.119
 3659TIP3   OH232535   5.251   7.235   8.183
 3659TIP3    H132536   5.274   7.148   8.216
 3659TIP3    H232537   5.320   7.254   8.117
 3660TIP3   OH232538   4.322   6.827   8.149
 3660TIP3    H132539   4.339   6.751   8.207
 3660TIP3    H232540   4.397   6.819   8.087
 3661TIP3   OH232541   4.870   6.941   8.128
 3661TIP3    H132542   4.838   6.952   8.218
 3661TIP3    H232543   4.846   6.847   8.110
 3662TIP3   OH232544   4.442   6.628   8.382
 3662TIP3    H132545   4.396   6.577   8.450
 3662TIP3    H232546   4.471   6.561   8.318
 3663TIP3   OH232547   4.550   6.451   8.208
 3663TIP3    H132548   4.536   6.441   8.111
 3663TIP3    H232549   4.647   6.460   8.216
 3664TIP3   OH232550   5.502   6.724   8.173
 3664TIP3    H132551   5.474   6.659   8.101
 3664TIP3    H232552   5.492   6.808   8.125
 3665TIP3   OH232553   3.892   6.988   8.261
 3665TIP3    H132554   3.987   6.992   8.285
 3665TIP3    H232555   3.896   6.916   8.194
 3666TIP3   OH232556   5.608   6.562   8.365
 3666TIP3    H132557   5.554   6.602   8.291
 3666TIP3    H232558   5.604   6.630   8.436
 3667TIP3   OH232559   5.440   6.259   8.253
 3667TIP3    H132560   5.444   6.338   8.193
 3667TIP3    H232561   5.418   6.198   8.181
 3668TIP3   OH232562   5.364   6.030   8.137
 3668TIP3    H132563   5.423   5.996   8.206
 3668TIP3    H232564   5.277   5.996   8.162
 3669TIP3   OH232565   5.570   5.922   8.296
 3669TIP3    H132566   5.613   5.849   8.246
 3669TIP3    H232567   5.641   5.989   8.303
 3670TIP3   OH232568   3.929   5.728   8.400
 3670TIP3    H132569   3.976   5.793   8.347
 3670TIP3    H232570   3.870   5.785   8.449
 3671TIP3   OH232571   4.110   5.921   8.247
 3671TIP3    H132572   4.161   5.857   8.195
 3671TIP3    H232573   4.175   5.947   8.316
 3672TIP3   OH232574   6.712   6.439   8.263
 3672TIP3    H132575   6.783   6.442   8.330
 3672TIP3    H232576   6.748   6.369   8.207
 3673TIP3   OH232577   6.933   6.512   8.416
 3673TIP3    H132578   6.978   6.539   8.499
 3673TIP3    H232579   6.970   6.573   8.351
 3674TIP3   OH232580   7.091   6.624   8.205
 3674TIP3    H132581   7.085   6.608   8.108
 3674TIP3    H232582   7.172   6.676   8.209
 3675TIP3   OH232583   6.644   6.017   8.257
 3675TIP3    H132584   6.616   6.019   8.350
 3675TIP3    H232585   6.615   5.929   8.228
 3676TIP3   OH232586   6.328   6.058   8.169
 3676TIP3    H132587   6.281   6.018   8.245
 3676TIP3    H232588   6.257   6.100   8.118
 3677TIP3   OH232589   5.777   6.097   8.406
 3677TIP3    H132590   5.831   6.164   8.360
 3677TIP3    H232591   5.713   6.158   8.447
 3678TIP3   OH232592   6.197   6.332   8.312
 3678TIP3    H132593   6.141   6.301   8.239
 3678TIP3    H232594   6.276   6.359   8.263
 3679TIP3   OH232595   6.917   6.076   8.316
 3679TIP3    H132596   6.821   6.086   8.309
 3679TIP3    H232597   6.943   6.159   8.361
 3680TIP3   OH232598   6.989   6.269   8.486
 3680TIP3    H132599   7.079   6.249   8.513
 3680TIP3    H232600   6.994   6.348   8.430
 3681TIP3   OH232601   6.740   6.936   8.407
 3681TIP3    H132602   6.705   7.022   8.436
 3681TIP3    H232603   6.668   6.876   8.429
 3682TIP3   OH232604   5.855   6.563   8.274
 3682TIP3    H132605   5.914   6.625   8.323
 3682TIP3    H232606   5.766   6.591   8.303
 3683TIP3   OH232607   7.050   6.963   8.284
 3683TIP3    H132608   7.079   6.927   8.367
 3683TIP3    H232609   6.954   6.950   8.292
 3684TIP3   OH232610   6.462   7.074   8.131
 3684TIP3    H132611   6.471   6.995   8.076
 3684TIP3    H232612   6.423   7.034   8.212
 3685TIP3   OH232613   6.339   7.024   8.377
 3685TIP3    H132614   6.363   6.978   8.459
 3685TIP3    H232615   6.352   7.116   8.405
 3686TIP3   OH232616   5.979   6.757   8.416
 3686TIP3    H132617   5.925   6.789   8.487
 3686TIP3    H232618   6.046   6.828   8.403
 3687TIP3   OH232619   6.586   7.167   8.389
 3687TIP3    H132620   6.528   7.230   8.436
 3687TIP3    H232621   6.660   7.228   8.370
 3688TIP3   OH232622   6.365  -0.002   8.457
 3688TIP3    H132623   6.364   0.074   8.397
 3688TIP3    H232624   6.330   0.032   8.539
 3689TIP3   OH232625   6.214   5.957   8.390
 3689TIP3    H132626   6.198   6.043   8.430
 3689TIP3    H232627   6.303   5.943   8.426
 3690TIP3   OH232628   6.049   7.019   8.314
 3690TIP3    H132629   6.115   7.083   8.346
 3690TIP3    H232630   6.104   6.971   8.249
 3691TIP3   OH232631   5.884   6.284   8.229
 3691TIP3    H132632   5.881   6.380   8.249
 3691TIP3    H232633   5.794   6.264   8.201
 3692TIP3   OH232634   6.665   7.258   8.151
 3692TIP3    H132635   6.592   7.194   8.169
 3692TIP3    H232636   6.737   7.203   8.120
 3693TIP3   OH232637   7.153   7.240   8.197
 3693TIP3    H132638   7.151   7.144   8.211
 3693TIP3    H232639   7.199   7.251   8.110
 3694TIP3   OH232640   6.208   6.827   8.149
 3694TIP3    H132641   6.225   6.751   8.207
 3694TIP3    H232642   6.283   6.819   8.087
 3695TIP3   OH232643   6.755   6.941   8.127
 3695TIP3    H132644   6.722   6.953   8.217
 3695TIP3    H232645   6.730   6.847   8.110
 3696TIP3   OH232646   6.328   6.628   8.382
 3696TIP3    H132647   6.282   6.577   8.450
 3696TIP3    H232648   6.357   6.561   8.318
 3697TIP3   OH232649   6.435   6.451   8.208
 3697TIP3    H132650   6.421   6.441   8.111
 3697TIP3    H232651   6.533   6.460   8.216
 3698TIP3   OH232652   5.778   6.985   8.261
 3698TIP3    H132653   5.872   6.993   8.285
 3698TIP3    H232654   5.783   6.914   8.193
 3699TIP3   OH232655   7.250   6.027   8.135
 3699TIP3    H132656   7.307   5.999   8.208
 3699TIP3    H232657   7.162   5.996   8.162
 3700TIP3   OH232658   5.815   5.728   8.400
 3700TIP3    H132659   5.862   5.793   8.347
 3700TIP3    H232660   5.756   5.785   8.449
 3701TIP3   OH232661   5.995   5.921   8.247
 3701TIP3    H132662   6.046   5.857   8.195
 3701TIP3    H232663   6.060   5.947   8.316
 3702TIP3   OH232664   1.183   1.005   0.681
 3702TIP3    H132665   1.187   1.103   0.675
 3702TIP3    H232666   1.115   0.984   0.616
 3703TIP3   OH232667   1.071   0.933   1.030
 3703TIP3    H132668   1.072   0.868   1.102
 3703TIP3    H232669   1.040   0.882   0.955
 3704TIP3   OH232670   0.311   0.899   1.185
 3704TIP3    H132671   0.318   0.830   1.253
 3704TIP3    H232672   0.384   0.958   1.208
 3705TIP3   OH232673   1.441   1.226   0.857
 3705TIP3    H132674   1.399   1.155   0.906
 3705TIP3    H232675   1.443   1.297   0.924
 3706TIP3   OH232676   0.400   1.342   1.037
 3706TIP3    H132677   0.368   1.257   1.002
 3706TIP3    H232678   0.496   1.325   1.039
 3707TIP3   OH232679   0.091   0.699   0.543
 3707TIP3    H132680   0.043   0.779   0.577
 3707TIP3    H232681   0.012   0.645   0.540
 3708TIP3   OH232682   0.132   0.918   0.793
 3708TIP3    H132683   0.160   0.841   0.845
 3708TIP3    H232684   0.206   0.932   0.733
 3709TIP3   OH232685   1.207   1.742   0.937
 3709TIP3    H132686   1.216   1.680   0.860
 3709TIP3    H232687   1.125   1.705   0.971
 3710TIP3   OH232688   0.909   1.170   1.075
 3710TIP3    H132689   0.945   1.109   1.010
 3710TIP3    H232690   0.989   1.189   1.126
 3711TIP3   OH232691   1.769   0.336   1.149
 3711TIP3    H132692   1.787   0.394   1.226
 3711TIP3    H232693   1.825   0.379   1.082
 3712TIP3   OH232694   1.227   0.617   1.108
 3712TIP3    H132695   1.243   0.521   1.109
 3712TIP3    H232696   1.218   0.633   1.012
 3713TIP3   OH232697   0.543   0.429   0.828
 3713TIP3    H132698   0.545   0.511   0.777
 3713TIP3    H232699   0.498   0.368   0.765
 3714TIP3   OH232700   1.311   0.436   0.668
 3714TIP3    H132701   1.378   0.405   0.733
 3714TIP3    H232702   1.368   0.490   0.610
 3715TIP3   OH232703   0.198   0.661   0.897
 3715TIP3    H132704   0.269   0.612   0.944
 3715TIP3    H232705   0.213   0.633   0.807
 3716TIP3   OH232706   0.724   0.821   0.825
 3716TIP3    H132707   0.769   0.771   0.892
 3716TIP3    H232708   0.657   0.760   0.786
 3717TIP3   OH232709   1.814   0.478   1.376
 3717TIP3    H132710   1.751   0.552   1.366
 3717TIP3    H232711   1.817   0.466   1.472
 3718TIP3   OH232712   0.432   0.321   1.231
 3718TIP3    H132713   0.399   0.373   1.156
 3718TIP3    H232714   0.361   0.339   1.298
 3719TIP3   OH232715   1.162   1.260   0.586
 3719TIP3    H132716   1.129   1.237   0.499
 3719TIP3    H232717   1.128   1.354   0.595
 3720TIP3   OH232718   0.681   1.081   1.259
 3720TIP3    H132719   0.609   1.146   1.278
 3720TIP3    H232720   0.751   1.141   1.228
 3721TIP3   OH232721   1.493   0.368   0.864
 3721TIP3    H132722   1.468   0.293   0.920
 3721TIP3    H232723   1.559   0.413   0.920
 3722TIP3   OH232724   0.384   0.505   1.032
 3722TIP3    H132725   0.446   0.571   1.070
 3722TIP3    H232726   0.438   0.460   0.962
 3723TIP3   OH232727   0.523   1.280   1.339
 3723TIP3    H132728   0.520   1.372   1.305
 3723TIP3    H232729   0.434   1.274   1.380
 3724TIP3   OH232730   0.129   1.247   0.416
 3724TIP3    H132731   0.111   1.278   0.325
 3724TIP3    H232732   0.141   1.329   0.469
 3725TIP3   OH232733   1.494   1.410   1.094
 3725TIP3    H132734   1.397   1.421   1.107
 3725TIP3    H232735   1.520   1.502   1.075
 3726TIP3   OH232736   1.529   0.238   1.238
 3726TIP3    H132737   1.454   0.298   1.224
 3726TIP3    H232738   1.597   0.279   1.182
 3727TIP3   OH232739   0.825   0.052   0.970
 3727TIP3    H132740   0.816  -0.045   0.977
 3727TIP3    H232741   0.738   0.078   1.007
 3728TIP3   OH232742   1.321   1.586   0.754
 3728TIP3    H132743   1.362   1.517   0.701
 3728TIP3    H232744   1.358   1.668   0.716
 3729TIP3   OH232745   1.445   1.379   0.603
 3729TIP3    H132746   1.410   1.311   0.543
 3729TIP3    H232747   1.443   1.333   0.689
 3730TIP3   OH232748   1.603   1.240   1.454
 3730TIP3    H132749   1.617   1.175   1.382
 3730TIP3    H232750   1.622   1.325   1.411
 3731TIP3   OH232751   1.050   0.925   0.430
 3731TIP3    H132752   0.984   0.988   0.394
 3731TIP3    H232753   1.122   0.938   0.365
 3732TIP3   OH232754   1.056   0.782   0.139
 3732TIP3    H132755   1.129   0.783   0.202
 3732TIP3    H232756   1.089   0.719   0.074
 3733TIP3   OH232757   1.791   0.871   1.259
 3733TIP3    H132758   1.725   0.943   1.263
 3733TIP3    H232759   1.840   0.894   1.178
 3734TIP3   OH232760   1.395   0.951   0.524
 3734TIP3    H132761   1.322   0.978   0.584
 3734TIP3    H232762   1.443   0.883   0.576
 3735TIP3   OH232763   1.389   0.767   1.435
 3735TIP3    H132764   1.390   0.849   1.487
 3735TIP3    H232765   1.326   0.796   1.366
 3736TIP3   OH232766   0.561   1.018   0.714
 3736TIP3    H132767   0.524   0.979   0.631
 3736TIP3    H232768   0.620   0.947   0.747
 3737TIP3   OH232769   0.687   1.351   0.985
 3737TIP3    H132770   0.690   1.303   0.901
 3737TIP3    H232771   0.768   1.319   1.028
 3738TIP3   OH232772   0.596   0.889   1.079
 3738TIP3    H132773   0.647   0.907   1.000
 3738TIP3    H232774   0.627   0.959   1.142
 3739TIP3   OH232775   1.233   1.447   1.153
 3739TIP3    H132776   1.203   1.512   1.218
 3739TIP3    H232777   1.206   1.362   1.195
 3740TIP3   OH232778   0.685   1.332   1.553
 3740TIP3    H132779   0.647   1.411   1.596
 3740TIP3    H232780   0.619   1.315   1.481
 3741TIP3   OH232781   1.283   0.869   0.290
 3741TIP3    H132782   1.339   0.888   0.370
 3741TIP3    H232783   1.325   0.923   0.220
 3742TIP3   OH232784   0.379   0.950   1.473
 3742TIP3    H132785   0.384   1.020   1.538
 3742TIP3    H232786   0.287   0.960   1.441
 3743TIP3   OH232787   1.053   1.493   0.623
 3743TIP3    H132788   1.093   1.544   0.696
 3743TIP3    H232789   1.001   1.572   0.598
 3744TIP3   OH232790   0.510   1.533   1.622
 3744TIP3    H132791   0.504   1.528   1.525
 3744TIP3    H232792   0.417   1.528   1.650
 3745TIP3   OH232793   1.655   0.060   0.261
 3745TIP3    H132794   1.565   0.062   0.301
 3745TIP3    H232795   1.676   0.148   0.229
 3746TIP3   OH232796   0.458   0.918   0.476
 3746TIP3    H132797   0.429   0.996   0.424
 3746TIP3    H232798   0.390   0.854   0.456
 3747TIP3   OH232799   1.766   1.477   0.116
 3747TIP3    H132800   1.779   1.573   0.129
 3747TIP3    H232801   1.859   1.449   0.109
 3748TIP3   OH232802   0.122   1.148   1.339
 3748TIP3    H132803   0.044   1.160   1.280
 3748TIP3    H232804   0.083   1.071   1.386
 3749TIP3   OH232805   0.068   1.457   1.017
 3749TIP3    H132806   0.152   1.420   1.045
 3749TIP3    H232807   0.040   1.506   1.096
 3750TIP3   OH232808   1.862   1.506   1.610
 3750TIP3    H132809   1.853   1.410   1.611
 3750TIP3    H232810   1.776   1.531   1.653
 3751TIP3   OH232811   0.958   1.462   1.495
 3751TIP3    H132812   0.964   1.543   1.550
 3751TIP3    H232813   0.873   1.424   1.523
 3752TIP3   OH232814   0.983   1.844   0.453
 3752TIP3    H132815   0.997   1.838   0.358
 3752TIP3    H232816   1.007   1.933   0.486
 3753TIP3   OH232817   0.366   1.722   0.660
 3753TIP3    H132818   0.381   1.680   0.748
 3753TIP3    H232819   0.284   1.678   0.635
 3754TIP3   OH232820   1.306   1.755   0.175
 3754TIP3    H132821   1.353   1.678   0.134
 3754TIP3    H232822   1.312   1.730   0.270
 3755TIP3   OH232823   1.277   1.747   0.452
 3755TIP3    H132824   1.183   1.757   0.476
 3755TIP3    H232825   1.302   1.676   0.513
 3756TIP3   OH232826   1.579   0.652   1.657
 3756TIP3    H132827   1.531   0.698   1.586
 3756TIP3    H232828   1.578   0.559   1.628
 3757TIP3   OH232829   0.295   1.296   1.465
 3757TIP3    H132830   0.309   1.259   1.552
 3757TIP3    H232831   0.209   1.257   1.435
 3758TIP3   OH232832   0.562   0.142   1.060
 3758TIP3    H132833   0.473   0.127   1.019
 3758TIP3    H232834   0.545   0.226   1.102
 3759TIP3   OH232835   1.022   0.110   1.394
 3759TIP3    H132836   1.065   0.069   1.470
 3759TIP3    H232837   0.927   0.098   1.411
 3760TIP3   OH232838   1.354   0.488   1.482
 3760TIP3    H132839   1.296   0.472   1.561
 3760TIP3    H232840   1.336   0.580   1.456
 3761TIP3   OH232841   1.436   0.978   0.072
 3761TIP3    H132842   1.437   0.959  -0.023
 3761TIP3    H232843   1.523   1.021   0.083
 3762TIP3   OH232844   0.990   0.363   0.126
 3762TIP3    H132845   0.959   0.359   0.218
 3762TIP3    H232846   0.963   0.275   0.096
 3763TIP3   OH232847   0.569   0.637   1.177
 3763TIP3    H132848   0.498   0.636   1.244
 3763TIP3    H232849   0.566   0.730   1.145
 3764TIP3   OH232850   0.570   0.650   0.666
 3764TIP3    H132851   0.475   0.628   0.653
 3764TIP3    H232852   0.603   0.620   0.578
 3765TIP3   OH232853   1.115   0.700   0.542
 3765TIP3    H132854   1.079   0.784   0.506
 3765TIP3    H232855   1.186   0.684   0.477
 3766TIP3   OH232856   1.025   0.720   1.684
 3766TIP3    H132857   0.972   0.644   1.718
 3766TIP3    H232858   1.107   0.709   1.735
 3767TIP3   OH232859   1.210   0.647   0.827
 3767TIP3    H132860   1.201   0.706   0.751
 3767TIP3    H232861   1.236   0.564   0.781
 3768TIP3   OH232862   0.334   0.664   1.350
 3768TIP3    H132863   0.335   0.704   1.438
 3768TIP3    H232864   0.285   0.582   1.368
 3769TIP3   OH232865   0.686   0.425   0.064
 3769TIP3    H132866   0.633   0.363   0.117
 3769TIP3    H232867   0.625   0.458  -0.001
 3770TIP3   OH232868   0.034   0.403   0.727
 3770TIP3    H132869   0.070   0.372   0.813
 3770TIP3    H232870   0.052   0.329   0.670
 3771TIP3   OH232871   0.127   0.459   0.279
 3771TIP3    H132872   0.180   0.514   0.220
 3771TIP3    H232873   0.055   0.513   0.309
 3772TIP3   OH232874   1.139   0.807   1.282
 3772TIP3    H132875   1.180   0.739   1.225
 3772TIP3    H232876   1.096   0.755   1.351
 3773TIP3   OH232877   0.824   0.423   0.773
 3773TIP3    H132878   0.730   0.398   0.793
 3773TIP3    H232879   0.870   0.380   0.848
 3774TIP3   OH232880   0.304   0.562   0.653
 3774TIP3    H132881   0.216   0.576   0.614
 3774TIP3    H232882   0.331   0.476   0.613
 3775TIP3   OH232883   0.666   0.567   0.419
 3775TIP3    H132884   0.763   0.575   0.428
 3775TIP3    H232885   0.642   0.631   0.350
 3776TIP3   OH232886   1.262   0.328   1.090
 3776TIP3    H132887   1.194   0.333   1.161
 3776TIP3    H232888   1.212   0.299   1.012
 3777TIP3   OH232889   0.536   0.686   0.173
 3777TIP3    H132890   0.485   0.642   0.105
 3777TIP3    H232891   0.622   0.702   0.131
 3778TIP3   OH232892   1.589   1.888   1.724
 3778TIP3    H132893   1.610   1.931   1.639
 3778TIP3    H232894   1.655   1.926   1.783
 3779TIP3   OH232895   0.970   0.681   0.983
 3779TIP3    H132896   1.027   0.625   0.930
 3779TIP3    H232897   0.937   0.620   1.052
 3780TIP3   OH232898   0.445   0.302   0.596
 3780TIP3    H132899   0.422   0.207   0.606
 3780TIP3    H232900   0.527   0.288   0.547
 3781TIP3   OH232901   0.817   0.522   1.193
 3781TIP3    H132902   0.731   0.565   1.210
 3781TIP3    H232903   0.869   0.547   1.272
 3782TIP3   OH232904   0.874   1.135   0.370
 3782TIP3    H132905   0.795   1.089   0.336
 3782TIP3    H232906   0.851   1.148   0.464
 3783TIP3   OH232907   1.591   1.055   1.248
 3783TIP3    H132908   1.648   1.104   1.185
 3783TIP3    H232909   1.505   1.061   1.201
 3784TIP3   OH232910   1.261   0.416   0.185
 3784TIP3    H132911   1.166   0.430   0.168
 3784TIP3    H232912   1.290   0.503   0.218
 3785TIP3   OH232913   1.022   1.161   1.491
 3785TIP3    H132914   0.987   1.120   1.571
 3785TIP3    H232915   0.998   1.254   1.501
 3786TIP3   OH232916   1.331   0.608   0.352
 3786TIP3    H132917   1.421   0.594   0.388
 3786TIP3    H232918   1.339   0.689   0.300
 3787TIP3   OH232919   0.383   1.074   0.946
 3787TIP3    H132920   0.452   1.067   0.878
 3787TIP3    H232921   0.392   0.990   0.994
 3788TIP3   OH232922   1.083   1.283   0.274
 3788TIP3    H132923   1.047   1.368   0.309
 3788TIP3    H232924   1.009   1.221   0.291
 3789TIP3   OH232925   0.082   0.913   1.474
 3789TIP3    H132926   0.105   0.869   1.558
 3789TIP3    H232927   0.021   0.851   1.431
 3790TIP3   OH232928   0.782   0.871   1.691
 3790TIP3    H132929   0.754   0.841   1.604
 3790TIP3    H232930   0.875   0.840   1.693
 3791TIP3   OH232931   1.252   1.402   1.487
 3791TIP3    H132932   1.160   1.422   1.463
 3791TIP3    H232933   1.249   1.435   1.580
 3792TIP3   OH232934   1.815   0.624   0.331
 3792TIP3    H132935   1.767   0.591   0.253
 3792TIP3    H232936   1.831   0.715   0.298
 3793TIP3   OH232937   1.819   1.209   1.607
 3793TIP3    H132938   1.730   1.231   1.570
 3793TIP3    H232939   1.873   1.204   1.525
 3794TIP3   OH232940   1.649   1.506   0.365
 3794TIP3    H132941   1.612   1.423   0.398
 3794TIP3    H232942   1.679   1.486   0.274
 3795TIP3   OH232943   1.370   0.988   1.076
 3795TIP3    H132944   1.276   0.967   1.066
 3795TIP3    H232945   1.412   0.911   1.033
 3796TIP3   OH232946   0.619   1.420   0.686
 3796TIP3    H132947   0.671   1.499   0.666
 3796TIP3    H232948   0.532   1.445   0.653
 3797TIP3   OH232949   0.188   0.902   0.140
 3797TIP3    H132950   0.255   0.965   0.177
 3797TIP3    H232951   0.107   0.939   0.176
 3798TIP3   OH232952   0.764   1.185   0.640
 3798TIP3    H132953   0.735   1.279   0.647
 3798TIP3    H232954   0.688   1.141   0.681
 3799TIP3   OH232955   0.810   1.605   1.278
 3799TIP3    H132956   0.855   1.686   1.248
 3799TIP3    H232957   0.871   1.572   1.347
 3800TIP3   OH232958   0.630   1.686   0.590
 3800TIP3    H132959   0.534   1.702   0.605
 3800TIP3    H232960   0.669   1.768   0.626
 3801TIP3   OH232961   1.161   1.206   1.241
 3801TIP3    H132962   1.127   1.186   1.331
 3801TIP3    H232963   1.225   1.134   1.224
 3802TIP3   OH232964   1.389   1.308   0.153
 3802TIP3    H132965   1.419   1.265   0.235
 3802TIP3    H232966   1.293   1.293   0.160
 3803TIP3   OH232967   1.444   1.661   1.488
 3803TIP3    H132968   1.372   1.615   1.442
 3803TIP3    H232969   1.458   1.735   1.425
 3804TIP3   OH232970   1.841   1.751   0.175
 3804TIP3    H132971   1.911   1.814   0.151
 3804TIP3    H232972   1.769   1.811   0.204
 3805TIP3   OH232973   0.248   0.386   1.424
 3805TIP3    H132974   0.160   0.425   1.432
 3805TIP3    H232975   0.234   0.302   1.472
 3806TIP3   OH232976   1.474   1.173   0.371
 3806TIP3    H132977   1.447   1.096   0.426
 3806TIP3    H232978   1.568   1.181   0.395
 3807TIP3   OH232979   0.223   1.572   1.267
 3807TIP3    H132980   0.237   1.477   1.273
 3807TIP3    H232981   0.236   1.597   1.359
 3808TIP3   OH232982   0.684   1.375   0.242
 3808TIP3    H132983   0.709   1.319   0.316
 3808TIP3    H232984   0.691   1.467   0.275
 3809TIP3   OH232985   0.331   1.098   0.286
 3809TIP3    H132986   0.264   1.137   0.348
 3809TIP3    H232987   0.387   1.175   0.268
 3810TIP3   OH232988   1.121   0.364   1.324
 3810TIP3    H132989   1.193   0.371   1.387
 3810TIP3    H232990   1.085   0.275   1.342
 3811TIP3   OH232991   1.195   0.325   0.436
 3811TIP3    H132992   1.219   0.370   0.352
 3811TIP3    H232993   1.254   0.370   0.498
 3812TIP3   OH232994   0.962   1.537   0.311
 3812TIP3    H132995   0.884   1.594   0.325
 3812TIP3    H232996   1.019   1.592   0.255
 3813TIP3   OH232997   0.916   0.500   0.516
 3813TIP3    H132998   0.998   0.553   0.514
 3813TIP3    H232999   0.894   0.478   0.607
 3814TIP3   OH233000   0.973   0.600   1.435
 3814TIP3    H133001   0.983   0.656   1.514
 3814TIP3    H233002   1.040   0.531   1.444
 3815TIP3   OH233003   1.016   0.210   0.614
 3815TIP3    H133004   0.973   0.275   0.670
 3815TIP3    H233005   1.075   0.261   0.554
 3816TIP3   OH233006   0.697   1.644   0.316
 3816TIP3    H133007   0.720   1.727   0.268
 3816TIP3    H233008   0.679   1.678   0.407
 3817TIP3   OH233009   0.574   0.312   0.273
 3817TIP3    H133010   0.562   0.401   0.312
 3817TIP3    H233011   0.663   0.293   0.307
 3818TIP3   OH233012   1.593   0.388   1.519
 3818TIP3    H133013   1.499   0.419   1.506
 3818TIP3    H233014   1.622   0.386   1.426
 3819TIP3   OH233015   1.451   0.766   0.919
 3819TIP3    H133016   1.370   0.721   0.892
 3819TIP3    H233017   1.500   0.698   0.971
 3820TIP3   OH233018   0.392   1.361   0.178
 3820TIP3    H133019   0.459   1.423   0.211
 3820TIP3    H233020   0.445   1.312   0.112
 3821TIP3   OH233021   0.234   0.635   0.086
 3821TIP3    H133022   0.224   0.725   0.122
 3821TIP3    H233023   0.144   0.601   0.068
 3822TIP3   OH233024   1.560   1.691   1.086
 3822TIP3    H133025   1.549   1.761   1.018
 3822TIP3    H233026   1.656   1.698   1.105
 3823TIP3   OH233027   0.273   0.128   0.971
 3823TIP3    H133028   0.291   0.114   0.875
 3823TIP3    H233029   0.274   0.033   0.996
 3824TIP3   OH233030   0.206   1.497   0.582
 3824TIP3    H133031   0.121   1.541   0.578
 3824TIP3    H233032   0.254   1.544   0.512
 3825TIP3   OH233033   0.158   1.762   1.708
 3825TIP3    H133034   0.194   1.741   1.794
 3825TIP3    H233035   0.101   1.684   1.692
 3826TIP3   OH233036   0.589   1.646   1.872
 3826TIP3    H133037   0.670   1.603   1.903
 3826TIP3    H233038   0.591   1.626   1.777
 3827TIP3   OH233039   1.042   1.611   0.067
 3827TIP3    H133040   0.958   1.561   0.060
 3827TIP3    H233041   1.092   1.563   0.002
 3828TIP3   OH233042   1.243   1.491   1.744
 3828TIP3    H133043   1.212   1.403   1.773
 3828TIP3    H233044   1.322   1.505   1.801
 3829TIP3   OH233045   1.463   1.582   0.030
 3829TIP3    H133046   1.489   1.502   0.079
 3829TIP3    H233047   1.541   1.603  -0.023
 3830TIP3   OH233048   0.120   1.140   1.806
 3830TIP3    H133049   0.134   1.049   1.775
 3830TIP3    H233050   0.044   1.167   1.753
 3831TIP3   OH233051   0.557   1.179   0.024
 3831TIP3    H133052   0.566   1.098   0.073
 3831TIP3    H233053   0.617   1.159  -0.050
 3832TIP3   OH233054   0.789   1.138   1.748
 3832TIP3    H133055   0.755   1.169   1.662
 3832TIP3    H233056   0.796   1.040   1.738
 3833TIP3   OH233057   1.357   1.125   1.487
 3833TIP3    H133058   1.436   1.183   1.480
 3833TIP3    H233059   1.287   1.191   1.492
 3834TIP3   OH233060   0.209   0.863   1.747
 3834TIP3    H133061   0.246   0.773   1.739
 3834TIP3    H233062   0.174   0.856   1.836
 3835TIP3   OH233063   0.671   0.978   0.250
 3835TIP3    H133064   0.624   0.925   0.317
 3835TIP3    H233065   0.704   0.907   0.190
 3836TIP3   OH233066   0.598   0.756   1.484
 3836TIP3    H133067   0.537   0.827   1.510
 3836TIP3    H233068   0.638   0.792   1.402
 3837TIP3   OH233069   0.777   0.800   0.073
 3837TIP3    H133070   0.769   0.779  -0.021
 3837TIP3    H233071   0.875   0.807   0.085
 3838TIP3   OH233072   1.103   1.014   1.819
 3838TIP3    H133073   1.198   1.011   1.804
 3838TIP3    H233074   1.087   0.937   1.876
 3839TIP3   OH233075   1.698   1.043   8.525
 3839TIP3    H133076   1.687   0.993   8.443
 3839TIP3    H233077   1.720   1.133   8.498
 3840TIP3   OH233078   0.639   0.494   1.592
 3840TIP3    H133079   0.650   0.422   1.528
 3840TIP3    H233080   0.631   0.574   1.535
 3841TIP3   OH233081   0.678   0.334   1.342
 3841TIP3    H133082   0.731   0.381   1.274
 3841TIP3    H233083   0.589   0.323   1.301
 3842TIP3   OH233084   0.833   0.880   1.369
 3842TIP3    H133085   0.909   0.864   1.313
 3842TIP3    H233086   0.798   0.964   1.335
 3843TIP3   OH233087   1.270   0.656   1.864
 3843TIP3    H133088   1.296   0.563   1.859
 3843TIP3    H233089   1.357   0.700   1.867
 3844TIP3   OH233090   1.406   0.936   1.679
 3844TIP3    H133091   1.382   1.009   1.619
 3844TIP3    H233092   1.502   0.933   1.663
 3845TIP3   OH233093   0.482   0.621   1.778
 3845TIP3    H133094   0.406   0.560   1.767
 3845TIP3    H233095   0.550   0.582   1.720
 3846TIP3   OH233096   0.744   0.095   1.412
 3846TIP3    H133097   0.736   0.187   1.378
 3846TIP3    H233098   0.686   0.052   1.347
 3847TIP3   OH233099   0.884   0.509   1.743
 3847TIP3    H133100   0.857   0.482   1.833
 3847TIP3    H233101   0.804   0.488   1.692
 3848TIP3   OH233102   1.156   0.424   1.653
 3848TIP3    H133103   1.060   0.427   1.667
 3848TIP3    H233104   1.185   0.361   1.722
 3849TIP3   OH233105   1.312   0.294   1.848
 3849TIP3    H133106   1.310   0.195   1.849
 3849TIP3    H233107   1.288   0.315   1.940
 3850TIP3   OH233108   0.308   0.412   1.756
 3850TIP3    H133109   0.320   0.337   1.694
 3850TIP3    H233110   0.290   0.364   1.839
 3851TIP3   OH233111   0.776   7.311   1.657
 3851TIP3    H133112   0.850   7.251   1.656
 3851TIP3    H233113   0.765   7.337   1.563
 3852TIP3   OH233114   0.814   0.180   1.861
 3852TIP3    H133115   0.800   0.127   1.780
 3852TIP3    H233116   0.754   0.256   1.852
 3853TIP3   OH233117   0.763   1.866   0.174
 3853TIP3    H133118   0.859   1.878   0.190
 3853TIP3    H233119   0.745   1.935   0.110
 3854TIP3   OH233120   0.123   1.326   0.129
 3854TIP3    H133121   0.219   1.336   0.151
 3854TIP3    H233122   0.123   1.268   0.053
 3855TIP3   OH233123   7.337   1.880   0.610
 3855TIP3    H133124   7.247   1.856   0.579
 3855TIP3    H233125   7.346   1.815   0.685
 3856TIP3   OH233126   0.080   1.681   0.809
 3856TIP3    H133127   0.045   1.592   0.832
 3856TIP3    H233128   0.104   1.709   0.899
 3857TIP3   OH233129   1.831   1.757   1.107
 3857TIP3    H133130   1.834   1.773   1.202
 3857TIP3    H233131   1.902   1.815   1.076
 3858TIP3   OH233132   1.793   1.716   1.400
 3858TIP3    H133133   1.741   1.640   1.364
 3858TIP3    H233134   1.838   1.671   1.473
 3859TIP3   OH233135   1.632   1.289   1.864
 3859TIP3    H133136   1.546   1.283   1.908
 3859TIP3    H233137   1.671   1.366   1.911
 3860TIP3   OH233138   1.766   1.121   0.411
 3860TIP3    H133139   1.851   1.162   0.432
 3860TIP3    H233140   1.764   1.049   0.479
 3861TIP3   OH233141   1.800   0.930   0.601
 3861TIP3    H133142   1.726   0.878   0.638
 3861TIP3    H233143   1.861   0.942   0.676
 3862TIP3   OH233144   1.777   1.198   1.098
 3862TIP3    H133145   1.859   1.161   1.061
 3862TIP3    H233146   1.791   1.294   1.081
 3863TIP3   OH233147   1.632   1.490   1.326
 3863TIP3    H133148   1.563   1.524   1.386
 3863TIP3    H233149   1.576   1.451   1.255
 3864TIP3   OH233150   1.831   0.911   0.237
 3864TIP3    H133151   1.772   0.947   0.168
 3864TIP3    H233152   1.823   0.981   0.305
 3865TIP3   OH233153   1.631   0.638   0.100
 3865TIP3    H133154   1.675   0.697   0.037
 3865TIP3    H233155   1.649   0.554   0.054
 3866TIP3   OH233156   1.583   0.776   0.657
 3866TIP3    H133157   1.568   0.681   0.653
 3866TIP3    H233158   1.550   0.799   0.745
 3867TIP3   OH233159   0.086   0.984   1.055
 3867TIP3    H133160   0.105   0.979   0.960
 3867TIP3    H233161   0.173   0.972   1.097
 3868TIP3   OH233162   1.669   0.973   1.624
 3868TIP3    H133163   1.729   0.898   1.641
 3868TIP3    H233164   1.728   1.051   1.626
 3869TIP3   OH233165   1.819   0.761   1.694
 3869TIP3    H133166   1.731   0.723   1.674
 3869TIP3    H233167   1.875   0.683   1.681
 3870TIP3   OH233168   1.591   0.379   0.005
 3870TIP3    H133169   1.651   0.335   0.069
 3870TIP3    H233170   1.504   0.340   0.022
 3871TIP3   OH233171   1.550   0.536   0.504
 3871TIP3    H133172   1.581   0.444   0.515
 3871TIP3    H233173   1.629   0.576   0.462
 3872TIP3   OH233174   1.613   0.592   1.046
 3872TIP3    H133175   1.710   0.613   1.045
 3872TIP3    H233176   1.594   0.603   1.141
 3873TIP3   OH233177   1.619   0.663   1.324
 3873TIP3    H133178   1.532   0.691   1.358
 3873TIP3    H233179   1.663   0.749   1.303
 3874TIP3   OH233180   0.072   0.503   1.679
 3874TIP3    H133181   0.161   0.480   1.707
 3874TIP3    H233182   0.015   0.432   1.716
 3875TIP3   OH233183   1.854   0.066   1.860
 3875TIP3    H133184   1.877  -0.002   1.795
 3875TIP3    H233185   1.854   0.150   1.809
 3876TIP3   OH233186   1.616   0.265   0.508
 3876TIP3    H133187   1.636   0.218   0.592
 3876TIP3    H233188   1.557   0.201   0.461
 3877TIP3   OH233189   0.162   0.351   0.960
 3877TIP3    H133190   0.207   0.266   0.986
 3877TIP3    H233191   0.221   0.413   1.005
 3878TIP3   OH233192   0.052   0.717   1.103
 3878TIP3    H133193   0.053   0.673   1.014
 3878TIP3    H233194   0.058   0.808   1.075
 3879TIP3   OH233195   1.800   0.274   1.695
 3879TIP3    H133196   1.707   0.302   1.689
 3879TIP3    H233197   1.806   0.222   1.613
 3880TIP3   OH233198   1.800   0.268   0.162
 3880TIP3    H133199   1.842   0.197   0.111
 3880TIP3    H233200   1.872   0.334   0.165
 3881TIP3   OH233201   0.075   0.264   0.435
 3881TIP3    H133202  -0.019   0.285   0.445
 3881TIP3    H233203   0.099   0.338   0.375
 3882TIP3   OH233204   1.504   1.766   0.668
 3882TIP3    H133205   1.573   1.734   0.608
 3882TIP3    H233206   1.556   1.815   0.734
 3883TIP3   OH233207   7.348   0.140   1.332
 3883TIP3    H133208   7.267   0.112   1.374
 3883TIP3    H233209   7.305   0.183   1.255
 3884TIP3   OH233210   0.245   1.460   1.723
 3884TIP3    H133211   0.162   1.481   1.678
 3884TIP3    H233212   0.218   1.450   1.813
 3885TIP3   OH233213   0.541   1.556   1.350
 3885TIP3    H133214   0.502   1.640   1.320
 3885TIP3    H233215   0.632   1.565   1.316
 3886TIP3   OH233216   0.973   1.692   1.635
 3886TIP3    H133217   0.986   1.664   1.730
 3886TIP3    H233218   1.061   1.724   1.613
 3887TIP3   OH233219   1.702   0.089   1.470
 3887TIP3    H133220   1.617   0.119   1.433
 3887TIP3    H233221   1.718   0.004   1.424
 3888TIP3   OH233222   0.283   1.879   1.349
 3888TIP3    H133223   0.209   1.929   1.309
 3888TIP3    H233224   0.248   1.860   1.437
 3889TIP3   OH233225   0.525   1.831   1.248
 3889TIP3    H133226   0.440   1.851   1.294
 3889TIP3    H233227   0.525   1.900   1.179
 3890TIP3   OH233228   0.994   1.829   1.178
 3890TIP3    H133229   0.954   1.882   1.107
 3890TIP3    H233230   1.012   1.895   1.245
 3891TIP3   OH233231   1.225   1.713   1.281
 3891TIP3    H133232   1.143   1.737   1.234
 3891TIP3    H233233   1.277   1.793   1.264
 3892TIP3   OH233234   1.488   1.867   1.296
 3892TIP3    H133235   1.480   1.963   1.274
 3892TIP3    H233236   1.509   1.829   1.209
 3893TIP3   OH233237   0.221   1.744   1.040
 3893TIP3    H133238   0.223   1.700   1.128
 3893TIP3    H233239   0.304   1.708   1.002
 3894TIP3   OH233240   0.432   1.615   0.906
 3894TIP3    H133241   0.416   1.522   0.930
 3894TIP3    H233242   0.519   1.631   0.950
 3895TIP3   OH233243   0.688   1.661   0.996
 3895TIP3    H133244   0.713   1.572   0.966
 3895TIP3    H233245   0.698   1.656   1.092
 3896TIP3   OH233246   1.029   0.237   0.905
 3896TIP3    H133247   0.971   0.164   0.935
 3896TIP3    H233248   1.097   0.185   0.857
 3897TIP3   OH233249   1.555   0.037   0.919
 3897TIP3    H133250   1.616   0.092   0.866
 3897TIP3    H233251   1.468   0.071   0.894
 3898TIP3   OH233252   1.724   0.161   0.744
 3898TIP3    H133253   1.787   0.102   0.701
 3898TIP3    H233254   1.773   0.245   0.751
 3899TIP3   OH233255   0.255   0.099   0.699
 3899TIP3    H133256   0.197   0.065   0.634
 3899TIP3    H233257   0.325   0.027   0.699
 3900TIP3   OH233258   0.156   0.065   0.262
 3900TIP3    H133259   0.206   0.131   0.212
 3900TIP3    H233260   0.101   0.123   0.317
 3901TIP3   OH233261   0.784   0.096   0.649
 3901TIP3    H133262   0.858   0.143   0.682
 3901TIP3    H233263   0.729   0.074   0.728
 3902TIP3   OH233264   1.270   0.122   0.850
 3902TIP3    H133265   1.285   0.117   0.755
 3902TIP3    H233266   1.261   0.024   0.862
 3903TIP3   OH233267   1.423   0.094   0.410
 3903TIP3    H133268   1.349   0.149   0.381
 3903TIP3    H233269   1.384   0.006   0.416
 3904TIP3   OH233270   0.146   1.664   0.369
 3904TIP3    H133271   0.083   1.662   0.295
 3904TIP3    H233272   0.150   1.760   0.381
 3905TIP3   OH233273   0.335   0.254   0.116
 3905TIP3    H133274   0.391   0.197   0.062
 3905TIP3    H233275   0.403   0.291   0.176
 3906TIP3   OH233276   0.837   0.287   0.360
 3906TIP3    H133277   0.866   0.228   0.432
 3906TIP3    H233278   0.846   0.372   0.406
 3907TIP3   OH233279   1.030   1.822   0.198
 3907TIP3    H133280   1.126   1.820   0.187
 3907TIP3    H233281   1.013   1.747   0.136
 3908TIP3   OH233282   1.704   1.744   0.472
 3908TIP3    H133283   1.683   1.666   0.415
 3908TIP3    H233284   1.695   1.817   0.409
 3909TIP3   OH233285   0.255   0.146   1.628
 3909TIP3    H133286   0.224   0.071   1.681
 3909TIP3    H233287   0.347   0.146   1.665
 3910TIP3   OH233288   0.439   0.098   1.787
 3910TIP3    H133289   0.534   0.081   1.775
 3910TIP3    H233290   0.424   0.016   1.838
 3911TIP3   OH233291   0.333   1.761   0.062
 3911TIP3    H133292   0.301   1.787   0.150
 3911TIP3    H233293   0.407   1.705   0.080
 3912TIP3   OH233294   1.325   7.343   1.830
 3912TIP3    H133295   1.320   7.281   1.905
 3912TIP3    H233296   1.403   7.318   1.780
 3913TIP3   OH233297   1.628   1.617   1.683
 3913TIP3    H133298   1.547   1.605   1.629
 3913TIP3    H233299   1.617   1.712   1.703
 3914TIP3   OH233300   3.068   1.007   0.686
 3914TIP3    H133301   3.072   1.104   0.671
 3914TIP3    H233302   3.001   0.980   0.621
 3915TIP3   OH233303   2.953   0.937   1.029
 3915TIP3    H133304   2.957   0.869   1.100
 3915TIP3    H233305   2.925   0.881   0.954
 3916TIP3   OH233306   2.193   0.899   1.184
 3916TIP3    H133307   2.201   0.830   1.254
 3916TIP3    H233308   2.268   0.956   1.206
 3917TIP3   OH233309   3.321   1.228   0.857
 3917TIP3    H133310   3.290   1.152   0.907
 3917TIP3    H233311   3.332   1.297   0.925
 3918TIP3   OH233312   2.286   1.343   1.035
 3918TIP3    H133313   2.254   1.257   1.003
 3918TIP3    H233314   2.381   1.325   1.040
 3919TIP3   OH233315   1.949   0.700   0.584
 3919TIP3    H133316   1.906   0.786   0.577
 3919TIP3    H233317   1.893   0.646   0.525
 3920TIP3   OH233318   2.020   0.923   0.797
 3920TIP3    H133319   2.047   0.841   0.843
 3920TIP3    H233320   2.091   0.932   0.731
 3921TIP3   OH233321   3.037   1.740   0.881
 3921TIP3    H133322   3.104   1.673   0.852
 3921TIP3    H233323   3.018   1.711   0.969
 3922TIP3   OH233324   2.799   1.178   1.069
 3922TIP3    H133325   2.822   1.103   1.010
 3922TIP3    H233326   2.861   1.167   1.141
 3923TIP3   OH233327   3.657   0.335   1.150
 3923TIP3    H133328   3.672   0.395   1.226
 3923TIP3    H233329   3.709   0.380   1.082
 3924TIP3   OH233330   3.162   0.617   1.055
 3924TIP3    H133331   3.128   0.538   1.103
 3924TIP3    H233332   3.093   0.631   0.988
 3925TIP3   OH233333   2.425   0.428   0.829
 3925TIP3    H133334   2.434   0.512   0.780
 3925TIP3    H233335   2.383   0.371   0.761
 3926TIP3   OH233336   3.198   0.431   0.665
 3926TIP3    H133337   3.263   0.406   0.734
 3926TIP3    H233338   3.252   0.491   0.611
 3927TIP3   OH233339   2.086   0.668   0.903
 3927TIP3    H133340   2.153   0.613   0.948
 3927TIP3    H233341   2.096   0.637   0.812
 3928TIP3   OH233342   2.601   0.823   0.833
 3928TIP3    H133343   2.668   0.765   0.874
 3928TIP3    H233344   2.549   0.758   0.783
 3929TIP3   OH233345   3.700   0.478   1.379
 3929TIP3    H133346   3.635   0.551   1.365
 3929TIP3    H233347   3.702   0.466   1.475
 3930TIP3   OH233348   2.314   0.321   1.232
 3930TIP3    H133349   2.283   0.375   1.157
 3930TIP3    H233350   2.244   0.340   1.299
 3931TIP3   OH233351   3.041   1.265   0.590
 3931TIP3    H133352   3.016   1.237   0.501
 3931TIP3    H233353   3.012   1.359   0.591
 3932TIP3   OH233354   2.567   1.081   1.257
 3932TIP3    H133355   2.494   1.143   1.279
 3932TIP3    H233356   2.635   1.143   1.229
 3933TIP3   OH233357   3.382   0.365   0.862
 3933TIP3    H133358   3.352   0.295   0.922
 3933TIP3    H233359   3.442   0.415   0.920
 3934TIP3   OH233360   2.269   0.507   1.034
 3934TIP3    H133361   2.334   0.572   1.068
 3934TIP3    H233362   2.322   0.462   0.963
 3935TIP3   OH233363   2.410   1.281   1.339
 3935TIP3    H133364   2.405   1.373   1.305
 3935TIP3    H233365   2.322   1.274   1.384
 3936TIP3   OH233366   2.016   1.243   0.418
 3936TIP3    H133367   1.995   1.276   0.329
 3936TIP3    H233368   2.024   1.327   0.469
 3937TIP3   OH233369   3.378   1.409   1.092
 3937TIP3    H133370   3.283   1.424   1.108
 3937TIP3    H233371   3.409   1.501   1.075
 3938TIP3   OH233372   3.415   0.236   1.238
 3938TIP3    H133373   3.339   0.296   1.226
 3938TIP3    H233374   3.482   0.280   1.182
 3939TIP3   OH233375   2.712   0.046   0.971
 3939TIP3    H133376   2.693  -0.048   0.976
 3939TIP3    H233377   2.629   0.080   1.009
 3940TIP3   OH233378   3.205   1.587   0.755
 3940TIP3    H133379   3.249   1.517   0.701
 3940TIP3    H233380   3.247   1.667   0.715
 3941TIP3   OH233381   3.324   1.381   0.605
 3941TIP3    H133382   3.297   1.311   0.543
 3941TIP3    H233383   3.331   1.331   0.688
 3942TIP3   OH233384   3.488   1.240   1.453
 3942TIP3    H133385   3.501   1.173   1.382
 3942TIP3    H233386   3.509   1.325   1.411
 3943TIP3   OH233387   2.937   0.929   0.429
 3943TIP3    H133388   2.868   0.987   0.391
 3943TIP3    H233389   3.008   0.939   0.363
 3944TIP3   OH233390   2.941   0.782   0.138
 3944TIP3    H133391   3.014   0.783   0.202
 3944TIP3    H233392   2.975   0.718   0.074
 3945TIP3   OH233393   3.676   0.872   1.257
 3945TIP3    H133394   3.610   0.944   1.263
 3945TIP3    H233395   3.725   0.895   1.177
 3946TIP3   OH233396   3.280   0.949   0.526
 3946TIP3    H133397   3.207   0.974   0.587
 3946TIP3    H233398   3.329   0.882   0.577
 3947TIP3   OH233399   3.286   0.777   1.436
 3947TIP3    H133400   3.275   0.855   1.491
 3947TIP3    H233401   3.213   0.790   1.370
 3948TIP3   OH233402   2.443   1.017   0.714
 3948TIP3    H133403   2.411   0.977   0.630
 3948TIP3    H233404   2.505   0.947   0.748
 3949TIP3   OH233405   2.578   1.357   0.982
 3949TIP3    H133406   2.572   1.303   0.901
 3949TIP3    H233407   2.653   1.318   1.029
 3950TIP3   OH233408   2.476   0.890   1.080
 3950TIP3    H133409   2.532   0.901   1.000
 3950TIP3    H233410   2.513   0.957   1.141
 3951TIP3   OH233411   3.114   1.447   1.154
 3951TIP3    H133412   3.094   1.520   1.217
 3951TIP3    H233413   3.109   1.370   1.214
 3952TIP3   OH233414   2.571   1.333   1.552
 3952TIP3    H133415   2.531   1.410   1.598
 3952TIP3    H233416   2.505   1.314   1.481
 3953TIP3   OH233417   3.170   0.868   0.290
 3953TIP3    H133418   3.224   0.888   0.370
 3953TIP3    H233419   3.210   0.923   0.220
 3954TIP3   OH233420   2.265   0.949   1.468
 3954TIP3    H133421   2.270   1.017   1.538
 3954TIP3    H233422   2.172   0.961   1.441
 3955TIP3   OH233423   2.939   1.541   0.641
 3955TIP3    H133424   2.985   1.575   0.717
 3955TIP3    H233425   2.886   1.616   0.611
 3956TIP3   OH233426   2.395   1.536   1.624
 3956TIP3    H133427   2.390   1.527   1.528
 3956TIP3    H233428   2.301   1.525   1.650
 3957TIP3   OH233429   3.532   0.061   0.242
 3957TIP3    H133430   3.456   0.058   0.305
 3957TIP3    H233431   3.565   0.150   0.247
 3958TIP3   OH233432   2.340   0.919   0.475
 3958TIP3    H133433   2.312   0.997   0.423
 3958TIP3    H233434   2.275   0.852   0.451
 3959TIP3   OH233435   3.652   1.477   0.116
 3959TIP3    H133436   3.665   1.573   0.129
 3959TIP3    H233437   3.745   1.449   0.109
 3960TIP3   OH233438   1.950   1.162   1.364
 3960TIP3    H133439   1.905   1.154   1.279
 3960TIP3    H233440   1.957   1.067   1.387
 3961TIP3   OH233441   1.925   1.435   1.043
 3961TIP3    H133442   2.021   1.424   1.041
 3961TIP3    H233443   1.917   1.517   1.094
 3962TIP3   OH233444   2.844   1.460   1.495
 3962TIP3    H133445   2.852   1.542   1.549
 3962TIP3    H233446   2.758   1.424   1.525
 3963TIP3   OH233447   2.888   1.834   0.478
 3963TIP3    H133448   2.880   1.827   0.381
 3963TIP3    H233449   2.891   1.930   0.494
 3964TIP3   OH233450   2.253   1.722   0.660
 3964TIP3    H133451   2.267   1.680   0.748
 3964TIP3    H233452   2.168   1.681   0.636
 3965TIP3   OH233453   3.192   1.754   0.174
 3965TIP3    H133454   3.239   1.678   0.133
 3965TIP3    H233455   3.199   1.730   0.269
 3966TIP3   OH233456   3.164   1.749   0.454
 3966TIP3    H133457   3.068   1.756   0.473
 3966TIP3    H233458   3.189   1.674   0.511
 3967TIP3   OH233459   3.467   0.649   1.661
 3967TIP3    H133460   3.420   0.700   1.591
 3967TIP3    H233461   3.462   0.559   1.625
 3968TIP3   OH233462   2.178   1.293   1.460
 3968TIP3    H133463   2.200   1.256   1.548
 3968TIP3    H233464   2.091   1.253   1.438
 3969TIP3   OH233465   2.446   0.136   1.058
 3969TIP3    H133466   2.356   0.130   1.019
 3969TIP3    H233467   2.433   0.222   1.102
 3970TIP3   OH233468   2.907   0.094   1.393
 3970TIP3    H133469   2.950   0.073   1.476
 3970TIP3    H233470   2.812   0.102   1.416
 3971TIP3   OH233471   3.256   0.490   1.505
 3971TIP3    H133472   3.178   0.472   1.561
 3971TIP3    H233473   3.220   0.566   1.452
 3972TIP3   OH233474   3.321   0.979   0.072
 3972TIP3    H133475   3.325   0.957  -0.022
 3972TIP3    H233476   3.409   1.020   0.085
 3973TIP3   OH233477   2.879   0.361   0.126
 3973TIP3    H133478   2.845   0.359   0.217
 3973TIP3    H233479   2.847   0.276   0.096
 3974TIP3   OH233480   2.456   0.638   1.179
 3974TIP3    H133481   2.382   0.636   1.243
 3974TIP3    H233482   2.451   0.729   1.143
 3975TIP3   OH233483   2.451   0.650   0.666
 3975TIP3    H133484   2.357   0.625   0.651
 3975TIP3    H233485   2.490   0.620   0.581
 3976TIP3   OH233486   3.005   0.699   0.541
 3976TIP3    H133487   2.964   0.783   0.509
 3976TIP3    H233488   3.074   0.684   0.475
 3977TIP3   OH233489   2.914   0.720   1.690
 3977TIP3    H133490   2.857   0.645   1.719
 3977TIP3    H233491   2.995   0.707   1.740
 3978TIP3   OH233492   3.099   0.651   0.816
 3978TIP3    H133493   3.079   0.708   0.742
 3978TIP3    H233494   3.117   0.564   0.777
 3979TIP3   OH233495   2.218   0.664   1.348
 3979TIP3    H133496   2.226   0.704   1.436
 3979TIP3    H233497   2.174   0.581   1.369
 3980TIP3   OH233498   2.574   0.421   0.062
 3980TIP3    H133499   2.514   0.365   0.116
 3980TIP3    H233500   2.508   0.463   0.003
 3981TIP3   OH233501   1.885   0.378   0.744
 3981TIP3    H133502   1.952   0.374   0.815
 3981TIP3    H233503   1.930   0.337   0.668
 3982TIP3   OH233504   2.011   0.443   0.290
 3982TIP3    H133505   2.058   0.503   0.227
 3982TIP3    H233506   1.944   0.509   0.315
 3983TIP3   OH233507   3.011   0.850   1.277
 3983TIP3    H133508   3.059   0.774   1.233
 3983TIP3    H233509   2.989   0.781   1.345
 3984TIP3   OH233510   2.707   0.404   0.765
 3984TIP3    H133511   2.614   0.405   0.797
 3984TIP3    H233512   2.757   0.393   0.848
 3985TIP3   OH233513   2.189   0.560   0.654
 3985TIP3    H133514   2.100   0.575   0.615
 3985TIP3    H233515   2.218   0.477   0.613
 3986TIP3   OH233516   2.553   0.566   0.418
 3986TIP3    H133517   2.649   0.576   0.433
 3986TIP3    H233518   2.529   0.630   0.347
 3987TIP3   OH233519   3.149   0.318   1.090
 3987TIP3    H133520   3.082   0.338   1.161
 3987TIP3    H233521   3.096   0.305   1.012
 3988TIP3   OH233522   2.431   0.688   0.184
 3988TIP3    H133523   2.371   0.648   0.114
 3988TIP3    H233524   2.508   0.704   0.129
 3989TIP3   OH233525   3.468   1.896   1.724
 3989TIP3    H133526   3.495   1.933   1.638
 3989TIP3    H233527   3.539   1.925   1.783
 3990TIP3   OH233528   2.235   1.142   1.679
 3990TIP3    H133529   2.307   1.164   1.742
 3990TIP3    H233530   2.157   1.152   1.738
 3991TIP3   OH233531   2.835   0.679   0.955
 3991TIP3    H133532   2.896   0.625   0.904
 3991TIP3    H233533   2.823   0.627   1.036
 3992TIP3   OH233534   2.336   0.298   0.601
 3992TIP3    H133535   2.304   0.206   0.600
 3992TIP3    H233536   2.414   0.290   0.545
 3993TIP3   OH233537   2.699   0.517   1.196
 3993TIP3    H133538   2.617   0.567   1.209
 3993TIP3    H233539   2.756   0.548   1.270
 3994TIP3   OH233540   2.759   1.134   0.370
 3994TIP3    H133541   2.679   1.088   0.336
 3994TIP3    H233542   2.737   1.146   0.464
 3995TIP3   OH233543   3.475   1.054   1.246
 3995TIP3    H133544   3.534   1.103   1.186
 3995TIP3    H233545   3.390   1.059   1.199
 3996TIP3   OH233546   3.148   0.415   0.183
 3996TIP3    H133547   3.052   0.429   0.169
 3996TIP3    H233548   3.175   0.503   0.218
 3997TIP3   OH233549   2.903   1.163   1.486
 3997TIP3    H133550   2.875   1.120   1.569
 3997TIP3    H233551   2.882   1.255   1.505
 3998TIP3   OH233552   3.217   0.605   0.349
 3998TIP3    H133553   3.305   0.596   0.390
 3998TIP3    H233554   3.224   0.689   0.300
 3999TIP3   OH233555   2.270   1.075   0.947
 3999TIP3    H133556   2.338   1.067   0.878
 3999TIP3    H233557   2.276   0.989   0.993
 4000TIP3   OH233558   2.969   1.283   0.274
 4000TIP3    H133559   2.932   1.367   0.307
 4000TIP3    H233560   2.895   1.220   0.291
 4001TIP3   OH233561   1.968   0.916   1.474
 4001TIP3    H133562   1.986   0.871   1.558
 4001TIP3    H233563   1.907   0.854   1.430
 4002TIP3   OH233564   2.673   0.875   1.688
 4002TIP3    H133565   2.640   0.839   1.605
 4002TIP3    H233566   2.763   0.837   1.692
 4003TIP3   OH233567   3.136   1.406   1.486
 4003TIP3    H133568   3.043   1.424   1.466
 4003TIP3    H233569   3.137   1.432   1.582
 4004TIP3   OH233570   3.712   0.623   0.320
 4004TIP3    H133571   3.643   0.596   0.256
 4004TIP3    H233572   3.712   0.720   0.301
 4005TIP3   OH233573   3.705   1.207   1.609
 4005TIP3    H133574   3.617   1.231   1.570
 4005TIP3    H233575   3.759   1.204   1.529
 4006TIP3   OH233576   3.535   1.506   0.366
 4006TIP3    H133577   3.497   1.423   0.397
 4006TIP3    H233578   3.564   1.486   0.275
 4007TIP3   OH233579   3.253   0.991   1.070
 4007TIP3    H133580   3.161   0.961   1.066
 4007TIP3    H233581   3.298   0.911   1.036
 4008TIP3   OH233582   2.506   1.420   0.686
 4008TIP3    H133583   2.557   1.500   0.665
 4008TIP3    H233584   2.419   1.444   0.653
 4009TIP3   OH233585   2.080   0.917   0.132
 4009TIP3    H133586   2.144   0.970   0.183
 4009TIP3    H233587   1.993   0.933   0.173
 4010TIP3   OH233588   2.651   1.187   0.642
 4010TIP3    H133589   2.617   1.279   0.646
 4010TIP3    H233590   2.576   1.138   0.682
 4011TIP3   OH233591   2.695   1.603   1.276
 4011TIP3    H133592   2.737   1.687   1.251
 4011TIP3    H233593   2.754   1.573   1.348
 4012TIP3   OH233594   2.516   1.687   0.590
 4012TIP3    H133595   2.420   1.700   0.604
 4012TIP3    H233596   2.552   1.770   0.626
 4013TIP3   OH233597   3.070   1.201   1.262
 4013TIP3    H133598   3.015   1.172   1.341
 4013TIP3    H233599   3.115   1.118   1.237
 4014TIP3   OH233600   3.275   1.307   0.152
 4014TIP3    H133601   3.306   1.264   0.234
 4014TIP3    H233602   3.179   1.294   0.162
 4015TIP3   OH233603   3.326   1.665   1.491
 4015TIP3    H133604   3.258   1.615   1.442
 4015TIP3    H233605   3.348   1.734   1.425
 4016TIP3   OH233606   3.727   1.751   0.175
 4016TIP3    H133607   3.796   1.814   0.151
 4016TIP3    H233608   3.655   1.811   0.204
 4017TIP3   OH233609   2.133   0.388   1.432
 4017TIP3    H133610   2.042   0.422   1.425
 4017TIP3    H233611   2.120   0.300   1.472
 4018TIP3   OH233612   3.358   1.175   0.375
 4018TIP3    H133613   3.333   1.095   0.426
 4018TIP3    H233614   3.453   1.181   0.395
 4019TIP3   OH233615   2.096   1.568   1.271
 4019TIP3    H133616   2.125   1.475   1.272
 4019TIP3    H233617   2.121   1.596   1.360
 4020TIP3   OH233618   2.570   1.376   0.242
 4020TIP3    H133619   2.595   1.320   0.317
 4020TIP3    H233620   2.578   1.467   0.277
 4021TIP3   OH233621   2.219   1.099   0.288
 4021TIP3    H133622   2.153   1.138   0.348
 4021TIP3    H233623   2.276   1.175   0.266
 4022TIP3   OH233624   3.001   0.326   1.311
 4022TIP3    H133625   3.065   0.368   1.375
 4022TIP3    H233626   2.963   0.250   1.355
 4023TIP3   OH233627   3.087   0.320   0.433
 4023TIP3    H133628   3.105   0.372   0.352
 4023TIP3    H233629   3.137   0.372   0.499
 4024TIP3   OH233630   2.850   1.541   0.316
 4024TIP3    H133631   2.768   1.593   0.322
 4024TIP3    H233632   2.904   1.591   0.253
 4025TIP3   OH233633   2.805   0.496   0.515
 4025TIP3    H133634   2.882   0.555   0.516
 4025TIP3    H233635   2.779   0.488   0.609
 4026TIP3   OH233636   2.830   0.587   1.456
 4026TIP3    H133637   2.865   0.658   1.512
 4026TIP3    H233638   2.916   0.542   1.434
 4027TIP3   OH233639   2.893   0.205   0.613
 4027TIP3    H133640   2.858   0.275   0.670
 4027TIP3    H233641   2.956   0.257   0.557
 4028TIP3   OH233642   2.587   1.644   0.318
 4028TIP3    H133643   2.604   1.726   0.267
 4028TIP3    H233644   2.563   1.678   0.407
 4029TIP3   OH233645   2.457   0.312   0.275
 4029TIP3    H133646   2.448   0.403   0.309
 4029TIP3    H233647   2.549   0.295   0.303
 4030TIP3   OH233648   3.483   0.386   1.518
 4030TIP3    H133649   3.389   0.418   1.509
 4030TIP3    H233650   3.508   0.386   1.424
 4031TIP3   OH233651   3.343   0.766   0.913
 4031TIP3    H133652   3.256   0.723   0.897
 4031TIP3    H233653   3.383   0.699   0.974
 4032TIP3   OH233654   2.280   1.360   0.179
 4032TIP3    H133655   2.345   1.423   0.211
 4032TIP3    H233656   2.331   1.312   0.111
 4033TIP3   OH233657   2.057   0.650   0.145
 4033TIP3    H133658   2.116   0.718   0.110
 4033TIP3    H233659   2.034   0.606   0.062
 4034TIP3   OH233660   3.446   1.692   1.087
 4034TIP3    H133661   3.434   1.760   1.018
 4034TIP3    H233662   3.541   1.698   1.105
 4035TIP3   OH233663   2.171   0.121   0.972
 4035TIP3    H133664   2.176   0.111   0.874
 4035TIP3    H233665   2.156   0.028   0.995
 4036TIP3   OH233666   2.090   1.497   0.581
 4036TIP3    H133667   2.005   1.542   0.578
 4036TIP3    H233668   2.138   1.544   0.512
 4037TIP3   OH233669   2.012   1.763   1.711
 4037TIP3    H133670   2.073   1.740   1.784
 4037TIP3    H233671   1.971   1.676   1.692
 4038TIP3   OH233672   2.477   1.651   1.870
 4038TIP3    H133673   2.556   1.604   1.903
 4038TIP3    H233674   2.474   1.625   1.776
 4039TIP3   OH233675   2.927   1.611   0.068
 4039TIP3    H133676   2.843   1.561   0.059
 4039TIP3    H233677   2.977   1.565   0.001
 4040TIP3   OH233678   3.131   1.492   1.744
 4040TIP3    H133679   3.100   1.404   1.773
 4040TIP3    H233680   3.207   1.501   1.804
 4041TIP3   OH233681   3.348   1.580   0.028
 4041TIP3    H133682   3.376   1.503   0.081
 4041TIP3    H233683   3.427   1.603  -0.022
 4042TIP3   OH233684   2.002   1.137   1.809
 4042TIP3    H133685   2.019   1.048   1.776
 4042TIP3    H233686   1.928   1.166   1.752
 4043TIP3   OH233687   2.446   1.180   0.026
 4043TIP3    H133688   2.450   1.096   0.072
 4043TIP3    H233689   2.501   1.158  -0.051
 4044TIP3   OH233690   2.678   1.139   1.748
 4044TIP3    H133691   2.640   1.168   1.663
 4044TIP3    H233692   2.681   1.040   1.738
 4045TIP3   OH233693   3.244   1.125   1.489
 4045TIP3    H133694   3.323   1.183   1.480
 4045TIP3    H233695   3.174   1.191   1.493
 4046TIP3   OH233696   2.090   0.861   1.747
 4046TIP3    H133697   2.136   0.777   1.736
 4046TIP3    H233698   2.064   0.864   1.838
 4047TIP3   OH233699   2.558   0.977   0.254
 4047TIP3    H133700   2.506   0.922   0.316
 4047TIP3    H233701   2.586   0.907   0.189
 4048TIP3   OH233702   2.484   0.756   1.482
 4048TIP3    H133703   2.426   0.829   1.509
 4048TIP3    H233704   2.525   0.792   1.402
 4049TIP3   OH233705   2.665   0.800   0.074
 4049TIP3    H133706   2.651   0.778  -0.019
 4049TIP3    H233707   2.763   0.807   0.083
 4050TIP3   OH233708   2.993   1.014   1.822
 4050TIP3    H133709   3.089   1.013   1.807
 4050TIP3    H233710   2.973   0.933   1.873
 4051TIP3   OH233711   3.581   1.043   8.524
 4051TIP3    H133712   3.576   0.992   8.442
 4051TIP3    H233713   3.607   1.133   8.499
 4052TIP3   OH233714   2.518   0.496   1.590
 4052TIP3    H133715   2.536   0.423   1.529
 4052TIP3    H233716   2.522   0.576   1.533
 4053TIP3   OH233717   2.561   0.331   1.343
 4053TIP3    H133718   2.615   0.379   1.276
 4053TIP3    H233719   2.472   0.323   1.302
 4054TIP3   OH233720   2.719   0.879   1.367
 4054TIP3    H133721   2.796   0.862   1.313
 4054TIP3    H233722   2.682   0.963   1.337
 4055TIP3   OH233723   3.161   0.660   1.872
 4055TIP3    H133724   3.178   0.565   1.860
 4055TIP3    H233725   3.248   0.701   1.861
 4056TIP3   OH233726   3.289   0.932   1.676
 4056TIP3    H133727   3.267   1.009   1.619
 4056TIP3    H233728   3.386   0.936   1.664
 4057TIP3   OH233729   2.365   0.619   1.787
 4057TIP3    H133730   2.293   0.560   1.761
 4057TIP3    H233731   2.435   0.589   1.725
 4058TIP3   OH233732   2.633   0.092   1.407
 4058TIP3    H133733   2.623   0.188   1.382
 4058TIP3    H233734   2.567   0.054   1.347
 4059TIP3   OH233735   2.771   0.505   1.743
 4059TIP3    H133736   2.740   0.488   1.834
 4059TIP3    H233737   2.690   0.489   1.692
 4060TIP3   OH233738   3.044   0.420   1.652
 4060TIP3    H133739   2.947   0.429   1.664
 4060TIP3    H233740   3.065   0.358   1.723
 4061TIP3   OH233741   2.178   0.413   1.757
 4061TIP3    H133742   2.205   0.341   1.695
 4061TIP3    H233743   2.173   0.361   1.839
 4062TIP3   OH233744   2.662   7.315   1.657
 4062TIP3    H133745   2.732   7.250   1.660
 4062TIP3    H233746   2.653   7.340   1.563
 4063TIP3   OH233747   2.648   1.867   0.176
 4063TIP3    H133748   2.745   1.877   0.189
 4063TIP3    H233749   2.630   1.934   0.111
 4064TIP3   OH233750   2.006   1.327   0.129
 4064TIP3    H133751   2.102   1.336   0.150
 4064TIP3    H233752   2.009   1.267   0.054
 4065TIP3   OH233753   1.881   1.864   0.626
 4065TIP3    H133754   1.809   1.816   0.580
 4065TIP3    H233755   1.909   1.798   0.692
 4066TIP3   OH233756   1.963   1.677   0.813
 4066TIP3    H133757   1.928   1.589   0.833
 4066TIP3    H233758   1.985   1.710   0.902
 4067TIP3   OH233759   3.718   1.757   1.105
 4067TIP3    H133760   3.716   1.770   1.202
 4067TIP3    H233761   3.789   1.815   1.083
 4068TIP3   OH233762   3.680   1.717   1.396
 4068TIP3    H133763   3.626   1.642   1.363
 4068TIP3    H233764   3.724   1.674   1.469
 4069TIP3   OH233765   3.652   1.120   0.411
 4069TIP3    H133766   3.737   1.162   0.433
 4069TIP3    H233767   3.649   1.049   0.479
 4070TIP3   OH233768   3.687   0.929   0.600
 4070TIP3    H133769   3.612   0.878   0.638
 4070TIP3    H233770   3.747   0.942   0.676
 4071TIP3   OH233771   3.661   1.198   1.096
 4071TIP3    H133772   3.744   1.161   1.061
 4071TIP3    H233773   3.676   1.293   1.081
 4072TIP3   OH233774   3.518   1.489   1.325
 4072TIP3    H133775   3.450   1.523   1.385
 4072TIP3    H233776   3.463   1.448   1.255
 4073TIP3   OH233777   3.715   0.909   0.237
 4073TIP3    H133778   3.658   0.948   0.169
 4073TIP3    H233779   3.710   0.980   0.304
 4074TIP3   OH233780   3.520   0.636   0.102
 4074TIP3    H133781   3.557   0.700   0.038
 4074TIP3    H233782   3.531   0.555   0.050
 4075TIP3   OH233783   3.469   0.776   0.656
 4075TIP3    H133784   3.453   0.681   0.653
 4075TIP3    H233785   3.435   0.798   0.745
 4076TIP3   OH233786   1.969   0.985   1.062
 4076TIP3    H133787   1.988   0.977   0.966
 4076TIP3    H233788   2.059   0.968   1.098
 4077TIP3   OH233789   3.554   0.973   1.614
 4077TIP3    H133790   3.613   0.901   1.642
 4077TIP3    H233791   3.612   1.050   1.628
 4078TIP3   OH233792   3.706   0.763   1.688
 4078TIP3    H133793   3.616   0.724   1.675
 4078TIP3    H233794   3.761   0.683   1.684
 4079TIP3   OH233795   3.480   0.374   0.000
 4079TIP3    H133796   3.536   0.345   0.075
 4079TIP3    H233797   3.387   0.362   0.026
 4080TIP3   OH233798   3.435   0.536   0.503
 4080TIP3    H133799   3.466   0.444   0.518
 4080TIP3    H233800   3.513   0.576   0.465
 4081TIP3   OH233801   3.500   0.590   1.045
 4081TIP3    H133802   3.596   0.614   1.046
 4081TIP3    H233803   3.477   0.603   1.139
 4082TIP3   OH233804   3.506   0.663   1.326
 4082TIP3    H133805   3.417   0.690   1.359
 4082TIP3    H233806   3.547   0.750   1.303
 4083TIP3   OH233807   1.930   0.516   1.678
 4083TIP3    H133808   2.023   0.492   1.693
 4083TIP3    H233809   1.885   0.433   1.705
 4084TIP3   OH233810   3.732   0.064   1.862
 4084TIP3    H133811   3.768   0.004   1.796
 4084TIP3    H233812   3.742   0.152   1.820
 4085TIP3   OH233813   3.505   0.264   0.504
 4085TIP3    H133814   3.522   0.220   0.591
 4085TIP3    H233815   3.441   0.201   0.463
 4086TIP3   OH233816   2.048   0.348   0.959
 4086TIP3    H133817   2.092   0.264   0.987
 4086TIP3    H233818   2.104   0.414   1.002
 4087TIP3   OH233819   1.879   0.644   1.067
 4087TIP3    H133820   1.935   0.619   0.990
 4087TIP3    H233821   1.925   0.724   1.094
 4088TIP3   OH233822   3.688   0.274   1.690
 4088TIP3    H133823   3.594   0.302   1.689
 4088TIP3    H233824   3.691   0.220   1.610
 4089TIP3   OH233825   3.683   0.271   0.156
 4089TIP3    H133826   3.730   0.195   0.118
 4089TIP3    H233827   3.755   0.328   0.179
 4090TIP3   OH233828   1.916   0.265   0.474
 4090TIP3    H133829   1.822   0.287   0.460
 4090TIP3    H233830   1.958   0.317   0.401
 4091TIP3   OH233831   3.389   1.765   0.670
 4091TIP3    H133832   3.457   1.734   0.607
 4091TIP3    H233833   3.441   1.815   0.734
 4092TIP3   OH233834   1.911   0.143   1.306
 4092TIP3    H133835   1.844   0.119   1.371
 4092TIP3    H233836   1.863   0.203   1.246
 4093TIP3   OH233837   2.134   1.458   1.721
 4093TIP3    H133838   2.050   1.477   1.677
 4093TIP3    H233839   2.106   1.449   1.813
 4094TIP3   OH233840   2.425   1.555   1.347
 4094TIP3    H133841   2.390   1.642   1.320
 4094TIP3    H233842   2.517   1.565   1.317
 4095TIP3   OH233843   2.859   1.697   1.637
 4095TIP3    H133844   2.873   1.664   1.729
 4095TIP3    H233845   2.948   1.728   1.613
 4096TIP3   OH233846   3.086   1.825   1.570
 4096TIP3    H133847   3.159   1.766   1.545
 4096TIP3    H233848   3.123   1.868   1.649
 4097TIP3   OH233849   3.586   0.088   1.469
 4097TIP3    H133850   3.502   0.118   1.432
 4097TIP3    H233851   3.604   0.003   1.424
 4098TIP3   OH233852   2.168   1.880   1.348
 4098TIP3    H133853   2.094   1.929   1.308
 4098TIP3    H233854   2.135   1.860   1.437
 4099TIP3   OH233855   2.414   1.837   1.255
 4099TIP3    H133856   2.325   1.852   1.294
 4099TIP3    H233857   2.408   1.896   1.177
 4100TIP3   OH233858   2.884   1.827   1.172
 4100TIP3    H133859   2.838   1.882   1.107
 4100TIP3    H233860   2.898   1.891   1.245
 4101TIP3   OH233861   3.114   1.709   1.270
 4101TIP3    H133862   3.027   1.739   1.239
 4101TIP3    H233863   3.161   1.795   1.265
 4102TIP3   OH233864   3.371   1.868   1.297
 4102TIP3    H133865   3.365   1.964   1.273
 4102TIP3    H233866   3.393   1.830   1.210
 4103TIP3   OH233867   2.112   1.745   1.042
 4103TIP3    H133868   2.104   1.699   1.128
 4103TIP3    H233869   2.193   1.707   1.002
 4104TIP3   OH233870   2.320   1.616   0.907
 4104TIP3    H133871   2.303   1.522   0.930
 4104TIP3    H233872   2.406   1.631   0.953
 4105TIP3   OH233873   2.581   1.664   0.994
 4105TIP3    H133874   2.595   1.572   0.967
 4105TIP3    H233875   2.584   1.659   1.091
 4106TIP3   OH233876   2.915   0.233   0.906
 4106TIP3    H133877   2.854   0.164   0.933
 4106TIP3    H233878   2.983   0.185   0.854
 4107TIP3   OH233879   3.438   0.036   0.919
 4107TIP3    H133880   3.501   0.091   0.867
 4107TIP3    H233881   3.353   0.073   0.895
 4108TIP3   OH233882   3.610   0.161   0.741
 4108TIP3    H133883   3.674   0.102   0.701
 4108TIP3    H233884   3.659   0.245   0.752
 4109TIP3   OH233885   2.159   0.094   0.697
 4109TIP3    H133886   2.083   0.071   0.642
 4109TIP3    H233887   2.209   0.010   0.697
 4110TIP3   OH233888   2.043   0.069   0.268
 4110TIP3    H133889   2.087   0.133   0.210
 4110TIP3    H233890   1.979   0.123   0.317
 4111TIP3   OH233891   2.618   0.076   0.671
 4111TIP3    H133892   2.702   0.125   0.666
 4111TIP3    H233893   2.605   0.064   0.765
 4112TIP3   OH233894   3.153   0.120   0.850
 4112TIP3    H133895   3.172   0.119   0.756
 4112TIP3    H233896   3.149   0.022   0.860
 4113TIP3   OH233897   3.310   0.094   0.404
 4113TIP3    H133898   3.233   0.150   0.385
 4113TIP3    H233899   3.270   0.006   0.419
 4114TIP3   OH233900   2.032   1.663   0.366
 4114TIP3    H133901   1.964   1.663   0.296
 4114TIP3    H233902   2.034   1.758   0.383
 4115TIP3   OH233903   2.221   0.239   0.123
 4115TIP3    H133904   2.278   0.201   0.057
 4115TIP3    H233905   2.285   0.295   0.173
 4116TIP3   OH233906   2.719   0.285   0.360
 4116TIP3    H133907   2.755   0.230   0.432
 4116TIP3    H233908   2.732   0.373   0.405
 4117TIP3   OH233909   2.915   1.819   0.205
 4117TIP3    H133910   3.011   1.821   0.188
 4117TIP3    H233911   2.898   1.749   0.137
 4118TIP3   OH233912   3.592   1.745   0.474
 4118TIP3    H133913   3.570   1.667   0.416
 4118TIP3    H233914   3.580   1.817   0.409
 4119TIP3   OH233915   2.140   0.145   1.629
 4119TIP3    H133916   2.111   0.069   1.681
 4119TIP3    H233917   2.232   0.145   1.666
 4120TIP3   OH233918   2.323   0.102   1.789
 4120TIP3    H133919   2.419   0.082   1.777
 4120TIP3    H233920   2.310   0.018   1.837
 4121TIP3   OH233921   2.215   1.760   0.063
 4121TIP3    H133922   2.185   1.787   0.150
 4121TIP3    H233923   2.290   1.705   0.079
 4122TIP3   OH233924   3.183   7.355   1.810
 4122TIP3    H133925   3.185   7.298   1.889
 4122TIP3    H233926   3.271   7.331   1.778
 4123TIP3   OH233927   3.518   1.621   1.678
 4123TIP3    H133928   3.435   1.601   1.629
 4123TIP3    H233929   3.499   1.712   1.703
 4124TIP3   OH233930   4.957   1.006   0.679
 4124TIP3    H133931   4.957   1.104   0.674
 4124TIP3    H233932   4.885   0.982   0.619
 4125TIP3   OH233933   4.843   0.932   1.029
 4125TIP3    H133934   4.842   0.866   1.100
 4125TIP3    H233935   4.809   0.881   0.953
 4126TIP3   OH233936   4.078   0.899   1.185
 4126TIP3    H133937   4.087   0.830   1.254
 4126TIP3    H233938   4.153   0.956   1.206
 4127TIP3   OH233939   5.211   1.225   0.858
 4127TIP3    H133940   5.170   1.154   0.908
 4127TIP3    H233941   5.215   1.297   0.923
 4128TIP3   OH233942   4.171   1.343   1.035
 4128TIP3    H133943   4.140   1.257   1.003
 4128TIP3    H233944   4.267   1.325   1.040
 4129TIP3   OH233945   3.837   0.700   0.579
 4129TIP3    H133946   3.792   0.787   0.580
 4129TIP3    H233947   3.776   0.646   0.528
 4130TIP3   OH233948   3.907   0.924   0.797
 4130TIP3    H133949   3.932   0.841   0.843
 4130TIP3    H233950   3.977   0.932   0.731
 4131TIP3   OH233951   4.924   1.742   0.881
 4131TIP3    H133952   4.988   1.672   0.852
 4131TIP3    H233953   4.903   1.709   0.968
 4132TIP3   OH233954   4.681   1.172   1.075
 4132TIP3    H133955   4.715   1.108   1.010
 4132TIP3    H233956   4.761   1.187   1.128
 4133TIP3   OH233957   5.541   0.336   1.149
 4133TIP3    H133958   5.558   0.394   1.227
 4133TIP3    H233959   5.596   0.380   1.082
 4134TIP3   OH233960   4.998   0.618   1.108
 4134TIP3    H133961   5.013   0.521   1.108
 4134TIP3    H233962   4.987   0.633   1.012
 4135TIP3   OH233963   4.310   0.428   0.829
 4135TIP3    H133964   4.319   0.512   0.780
 4135TIP3    H233965   4.268   0.371   0.761
 4136TIP3   OH233966   5.083   0.433   0.666
 4136TIP3    H133967   5.149   0.405   0.734
 4136TIP3    H233968   5.138   0.491   0.611
 4137TIP3   OH233969   3.971   0.668   0.903
 4137TIP3    H133970   4.038   0.613   0.948
 4137TIP3    H233971   3.981   0.637   0.812
 4138TIP3   OH233972   4.487   0.824   0.833
 4138TIP3    H133973   4.554   0.766   0.874
 4138TIP3    H233974   4.435   0.758   0.784
 4139TIP3   OH233975   5.586   0.478   1.377
 4139TIP3    H133976   5.522   0.552   1.366
 4139TIP3    H233977   5.589   0.468   1.473
 4140TIP3   OH233978   4.200   0.322   1.232
 4140TIP3    H133979   4.168   0.375   1.157
 4140TIP3    H233980   4.130   0.340   1.299
 4141TIP3   OH233981   4.928   1.265   0.588
 4141TIP3    H133982   4.902   1.238   0.499
 4141TIP3    H233983   4.898   1.358   0.592
 4142TIP3   OH233984   4.451   1.081   1.258
 4142TIP3    H133985   4.380   1.146   1.279
 4142TIP3    H233986   4.522   1.141   1.229
 4143TIP3   OH233987   5.264   0.368   0.864
 4143TIP3    H133988   5.240   0.293   0.920
 4143TIP3    H233989   5.330   0.413   0.920
 4144TIP3   OH233990   4.155   0.507   1.034
 4144TIP3    H133991   4.220   0.572   1.068
 4144TIP3    H233992   4.207   0.462   0.963
 4145TIP3   OH233993   4.296   1.282   1.339
 4145TIP3    H133994   4.290   1.373   1.305
 4145TIP3    H233995   4.207   1.273   1.383
 4146TIP3   OH233996   3.902   1.244   0.418
 4146TIP3    H133997   3.881   1.276   0.329
 4146TIP3    H233998   3.910   1.327   0.469
 4147TIP3   OH233999   5.265   1.410   1.094
 4147TIP3    H134000   5.168   1.421   1.106
 4147TIP3    H234001   5.293   1.501   1.072
 4148TIP3   OH234002   5.300   0.238   1.238
 4148TIP3    H134003   5.225   0.298   1.225
 4148TIP3    H234004   5.369   0.279   1.182
 4149TIP3   OH234005   4.592   0.051   0.964
 4149TIP3    H134006   4.589  -0.045   0.978
 4149TIP3    H234007   4.512   0.078   1.012
 4150TIP3   OH234008   5.090   1.588   0.753
 4150TIP3    H134009   5.135   1.517   0.703
 4150TIP3    H234010   5.134   1.666   0.714
 4151TIP3   OH234011   5.204   1.382   0.604
 4151TIP3    H134012   5.186   1.312   0.540
 4151TIP3    H234013   5.218   1.332   0.686
 4152TIP3   OH234014   5.375   1.240   1.455
 4152TIP3    H134015   5.388   1.175   1.381
 4152TIP3    H234016   5.394   1.325   1.411
 4153TIP3   OH234017   4.822   0.930   0.429
 4153TIP3    H134018   4.753   0.987   0.391
 4153TIP3    H234019   4.894   0.939   0.363
 4154TIP3   OH234020   4.827   0.782   0.138
 4154TIP3    H134021   4.901   0.783   0.201
 4154TIP3    H234022   4.860   0.719   0.074
 4155TIP3   OH234023   5.562   0.871   1.258
 4155TIP3    H134024   5.496   0.943   1.263
 4155TIP3    H234025   5.611   0.895   1.177
 4156TIP3   OH234026   5.167   0.951   0.525
 4156TIP3    H134027   5.092   0.975   0.585
 4156TIP3    H234028   5.215   0.883   0.575
 4157TIP3   OH234029   5.160   0.767   1.433
 4157TIP3    H134030   5.161   0.847   1.488
 4157TIP3    H234031   5.097   0.797   1.365
 4158TIP3   OH234032   4.329   1.017   0.714
 4158TIP3    H134033   4.297   0.977   0.630
 4158TIP3    H234034   4.390   0.947   0.748
 4159TIP3   OH234035   4.461   1.355   0.982
 4159TIP3    H134036   4.460   1.302   0.902
 4159TIP3    H234037   4.539   1.319   1.028
 4160TIP3   OH234038   4.362   0.891   1.080
 4160TIP3    H134039   4.418   0.902   1.000
 4160TIP3    H234040   4.401   0.958   1.142
 4161TIP3   OH234041   5.003   1.448   1.151
 4161TIP3    H134042   4.974   1.511   1.217
 4161TIP3    H234043   4.978   1.363   1.193
 4162TIP3   OH234044   4.455   1.334   1.553
 4162TIP3    H134045   4.418   1.412   1.599
 4162TIP3    H234046   4.391   1.315   1.481
 4163TIP3   OH234047   5.055   0.868   0.291
 4163TIP3    H134048   5.110   0.888   0.370
 4163TIP3    H234049   5.096   0.922   0.220
 4164TIP3   OH234050   4.150   0.951   1.471
 4164TIP3    H134051   4.153   1.019   1.540
 4164TIP3    H234052   4.058   0.960   1.442
 4165TIP3   OH234053   4.826   1.542   0.638
 4165TIP3    H134054   4.870   1.574   0.717
 4165TIP3    H234055   4.771   1.617   0.612
 4166TIP3   OH234056   4.279   1.535   1.625
 4166TIP3    H134057   4.277   1.527   1.528
 4166TIP3    H234058   4.187   1.527   1.649
 4167TIP3   OH234059   5.426   0.060   0.261
 4167TIP3    H134060   5.337   0.062   0.301
 4167TIP3    H234061   5.447   0.148   0.229
 4168TIP3   OH234062   4.226   0.920   0.476
 4168TIP3    H134063   4.198   0.998   0.423
 4168TIP3    H234064   4.161   0.853   0.453
 4169TIP3   OH234065   5.540   1.476   0.110
 4169TIP3    H134066   5.549   1.571   0.130
 4169TIP3    H234067   5.633   1.449   0.111
 4170TIP3   OH234068   3.838   1.161   1.361
 4170TIP3    H134069   3.790   1.153   1.277
 4170TIP3    H234070   3.842   1.067   1.387
 4171TIP3   OH234071   3.811   1.438   1.042
 4171TIP3    H134072   3.906   1.420   1.043
 4171TIP3    H234073   3.803   1.516   1.098
 4172TIP3   OH234074   5.633   1.506   1.611
 4172TIP3    H134075   5.624   1.410   1.610
 4172TIP3    H234076   5.546   1.530   1.653
 4173TIP3   OH234077   4.730   1.459   1.498
 4173TIP3    H134078   4.737   1.543   1.550
 4173TIP3    H234079   4.643   1.424   1.524
 4174TIP3   OH234080   4.774   1.834   0.478
 4174TIP3    H134081   4.766   1.827   0.381
 4174TIP3    H234082   4.777   1.930   0.494
 4175TIP3   OH234083   4.135   1.725   0.662
 4175TIP3    H134084   4.154   1.678   0.746
 4175TIP3    H234085   4.055   1.678   0.634
 4176TIP3   OH234086   5.078   1.754   0.175
 4176TIP3    H134087   5.124   1.678   0.133
 4176TIP3    H234088   5.086   1.729   0.269
 4177TIP3   OH234089   5.048   1.750   0.454
 4177TIP3    H134090   4.952   1.755   0.473
 4177TIP3    H234091   5.076   1.675   0.510
 4178TIP3   OH234092   5.348   0.652   1.660
 4178TIP3    H134093   5.302   0.697   1.587
 4178TIP3    H234094   5.351   0.560   1.629
 4179TIP3   OH234095   4.061   1.297   1.463
 4179TIP3    H134096   4.085   1.254   1.548
 4179TIP3    H234097   3.977   1.253   1.437
 4180TIP3   OH234098   4.329   0.137   1.058
 4180TIP3    H134099   4.240   0.131   1.018
 4180TIP3    H234100   4.319   0.223   1.102
 4181TIP3   OH234101   4.794   0.109   1.395
 4181TIP3    H134102   4.836   0.069   1.471
 4181TIP3    H234103   4.698   0.099   1.412
 4182TIP3   OH234104   5.122   0.486   1.479
 4182TIP3    H134105   5.068   0.472   1.560
 4182TIP3    H234106   5.109   0.581   1.459
 4183TIP3   OH234107   5.208   0.977   0.071
 4183TIP3    H134108   5.209   0.959  -0.024
 4183TIP3    H234109   5.294   1.021   0.083
 4184TIP3   OH234110   4.761   0.363   0.126
 4184TIP3    H134111   4.730   0.359   0.218
 4184TIP3    H234112   4.734   0.275   0.096
 4185TIP3   OH234113   4.342   0.638   1.179
 4185TIP3    H134114   4.268   0.636   1.243
 4185TIP3    H234115   4.337   0.729   1.143
 4186TIP3   OH234116   4.337   0.650   0.665
 4186TIP3    H134117   4.244   0.625   0.653
 4186TIP3    H234118   4.375   0.620   0.581
 4187TIP3   OH234119   4.891   0.699   0.540
 4187TIP3    H134120   4.850   0.783   0.509
 4187TIP3    H234121   4.960   0.684   0.474
 4188TIP3   OH234122   4.796   0.720   1.688
 4188TIP3    H134123   4.742   0.644   1.721
 4188TIP3    H234124   4.879   0.708   1.739
 4189TIP3   OH234125   4.993   0.648   0.828
 4189TIP3    H134126   4.965   0.705   0.753
 4189TIP3    H234127   5.003   0.564   0.781
 4190TIP3   OH234128   4.104   0.664   1.349
 4190TIP3    H134129   4.111   0.704   1.437
 4190TIP3    H234130   4.059   0.581   1.369
 4191TIP3   OH234131   4.457   0.424   0.065
 4191TIP3    H134132   4.403   0.362   0.117
 4191TIP3    H234133   4.398   0.460  -0.000
 4192TIP3   OH234134   3.770   0.377   0.743
 4192TIP3    H134135   3.836   0.374   0.815
 4192TIP3    H234136   3.816   0.336   0.669
 4193TIP3   OH234137   3.905   0.449   0.302
 4193TIP3    H134138   3.960   0.512   0.251
 4193TIP3    H234139   3.831   0.509   0.330
 4194TIP3   OH234140   4.913   0.808   1.284
 4194TIP3    H134141   4.951   0.739   1.225
 4194TIP3    H234142   4.867   0.754   1.351
 4195TIP3   OH234143   4.593   0.404   0.765
 4195TIP3    H134144   4.501   0.404   0.796
 4195TIP3    H234145   4.643   0.390   0.848
 4196TIP3   OH234146   4.075   0.561   0.653
 4196TIP3    H134147   3.985   0.575   0.616
 4196TIP3    H234148   4.104   0.477   0.614
 4197TIP3   OH234149   4.438   0.566   0.417
 4197TIP3    H134150   4.534   0.576   0.434
 4197TIP3    H234151   4.415   0.632   0.349
 4198TIP3   OH234152   5.034   0.326   1.091
 4198TIP3    H134153   4.965   0.334   1.160
 4198TIP3    H234154   4.983   0.301   1.012
 4199TIP3   OH234155   4.307   0.681   0.176
 4199TIP3    H134156   4.255   0.647   0.102
 4199TIP3    H234157   4.391   0.704   0.132
 4200TIP3   OH234158   5.356   1.894   1.724
 4200TIP3    H134159   5.382   1.931   1.640
 4200TIP3    H234160   5.426   1.921   1.785
 4201TIP3   OH234161   4.123   1.142   1.681
 4201TIP3    H134162   4.193   1.164   1.745
 4201TIP3    H234163   4.043   1.148   1.739
 4202TIP3   OH234164   4.722   0.680   0.956
 4202TIP3    H134165   4.781   0.625   0.903
 4202TIP3    H234166   4.707   0.626   1.035
 4203TIP3   OH234167   4.221   0.297   0.602
 4203TIP3    H134168   4.190   0.205   0.601
 4203TIP3    H234169   4.299   0.290   0.545
 4204TIP3   OH234170   4.586   0.518   1.196
 4204TIP3    H134171   4.502   0.566   1.208
 4204TIP3    H234172   4.641   0.549   1.271
 4205TIP3   OH234173   4.645   1.134   0.370
 4205TIP3    H134174   4.565   1.088   0.336
 4205TIP3    H234175   4.623   1.146   0.464
 4206TIP3   OH234176   5.362   1.055   1.247
 4206TIP3    H134177   5.419   1.104   1.185
 4206TIP3    H234178   5.276   1.061   1.200
 4207TIP3   OH234179   5.032   0.415   0.185
 4207TIP3    H134180   4.937   0.430   0.168
 4207TIP3    H234181   5.061   0.502   0.217
 4208TIP3   OH234182   4.793   1.161   1.490
 4208TIP3    H134183   4.758   1.120   1.570
 4208TIP3    H234184   4.769   1.254   1.501
 4209TIP3   OH234185   5.102   0.608   0.352
 4209TIP3    H134186   5.192   0.594   0.388
 4209TIP3    H234187   5.110   0.689   0.300
 4210TIP3   OH234188   4.155   1.075   0.947
 4210TIP3    H134189   4.224   1.067   0.879
 4210TIP3    H234190   4.161   0.989   0.993
 4211TIP3   OH234191   4.853   1.282   0.272
 4211TIP3    H134192   4.819   1.367   0.307
 4211TIP3    H234193   4.779   1.220   0.292
 4212TIP3   OH234194   3.855   0.914   1.473
 4212TIP3    H134195   3.870   0.872   1.560
 4212TIP3    H234196   3.791   0.854   1.430
 4213TIP3   OH234197   4.556   0.873   1.688
 4213TIP3    H134198   4.525   0.841   1.602
 4213TIP3    H234199   4.648   0.840   1.691
 4214TIP3   OH234200   5.024   1.405   1.488
 4214TIP3    H134201   4.931   1.423   1.464
 4214TIP3    H234202   5.020   1.434   1.581
 4215TIP3   OH234203   5.591   0.624   0.327
 4215TIP3    H134204   5.535   0.592   0.254
 4215TIP3    H234205   5.599   0.717   0.299
 4216TIP3   OH234206   5.589   1.207   1.607
 4216TIP3    H134207   5.501   1.230   1.568
 4216TIP3    H234208   5.645   1.203   1.527
 4217TIP3   OH234209   5.366   1.489   0.315
 4217TIP3    H134210   5.386   1.438   0.396
 4217TIP3    H234211   5.453   1.487   0.272
 4218TIP3   OH234212   5.140   0.987   1.076
 4218TIP3    H134213   5.046   0.966   1.065
 4218TIP3    H234214   5.183   0.911   1.033
 4219TIP3   OH234215   4.392   1.420   0.686
 4219TIP3    H134216   4.443   1.500   0.665
 4219TIP3    H234217   4.304   1.444   0.653
 4220TIP3   OH234218   3.965   0.903   0.141
 4220TIP3    H134219   4.028   0.968   0.180
 4220TIP3    H234220   3.879   0.937   0.172
 4221TIP3   OH234221   4.535   1.186   0.639
 4221TIP3    H134222   4.504   1.279   0.646
 4221TIP3    H234223   4.462   1.138   0.682
 4222TIP3   OH234224   4.579   1.605   1.278
 4222TIP3    H134225   4.625   1.686   1.250
 4222TIP3    H234226   4.641   1.571   1.346
 4223TIP3   OH234227   4.402   1.686   0.590
 4223TIP3    H134228   4.306   1.700   0.603
 4223TIP3    H234229   4.438   1.770   0.626
 4224TIP3   OH234230   4.932   1.206   1.240
 4224TIP3    H134231   4.899   1.187   1.330
 4224TIP3    H234232   4.996   1.135   1.224
 4225TIP3   OH234233   5.159   1.305   0.150
 4225TIP3    H134234   5.193   1.267   0.235
 4225TIP3    H234235   5.064   1.293   0.161
 4226TIP3   OH234236   5.212   1.662   1.490
 4226TIP3    H134237   5.143   1.613   1.441
 4226TIP3    H234238   5.231   1.733   1.424
 4227TIP3   OH234239   5.612   1.751   0.174
 4227TIP3    H134240   5.682   1.815   0.152
 4227TIP3    H234241   5.540   1.810   0.206
 4228TIP3   OH234242   4.019   0.387   1.430
 4228TIP3    H134243   3.928   0.423   1.427
 4228TIP3    H234244   4.006   0.301   1.473
 4229TIP3   OH234245   5.243   1.171   0.371
 4229TIP3    H134246   5.220   1.095   0.427
 4229TIP3    H234247   5.337   1.185   0.395
 4230TIP3   OH234248   3.981   1.569   1.271
 4230TIP3    H134249   4.009   1.476   1.271
 4230TIP3    H234250   4.008   1.596   1.360
 4231TIP3   OH234251   4.456   1.376   0.242
 4231TIP3    H134252   4.481   1.320   0.317
 4231TIP3    H234253   4.464   1.467   0.277
 4232TIP3   OH234254   4.104   1.098   0.287
 4232TIP3    H134255   4.039   1.138   0.348
 4232TIP3    H234256   4.161   1.174   0.266
 4233TIP3   OH234257   4.893   0.365   1.323
 4233TIP3    H134258   4.965   0.372   1.387
 4233TIP3    H234259   4.856   0.276   1.341
 4234TIP3   OH234260   4.969   0.323   0.435
 4234TIP3    H134261   4.991   0.370   0.351
 4234TIP3    H234262   5.024   0.372   0.498
 4235TIP3   OH234263   4.736   1.541   0.316
 4235TIP3    H134264   4.654   1.593   0.321
 4235TIP3    H234265   4.791   1.590   0.253
 4236TIP3   OH234266   4.690   0.496   0.515
 4236TIP3    H134267   4.768   0.555   0.516
 4236TIP3    H234268   4.665   0.487   0.609
 4237TIP3   OH234269   4.745   0.601   1.432
 4237TIP3    H134270   4.753   0.657   1.513
 4237TIP3    H234271   4.812   0.531   1.443
 4238TIP3   OH234272   4.778   0.205   0.610
 4238TIP3    H134273   4.743   0.273   0.670
 4238TIP3    H234274   4.842   0.259   0.558
 4239TIP3   OH234275   4.472   1.644   0.317
 4239TIP3    H134276   4.490   1.726   0.267
 4239TIP3    H234277   4.449   1.678   0.407
 4240TIP3   OH234278   4.340   0.313   0.275
 4240TIP3    H134279   4.335   0.403   0.313
 4240TIP3    H234280   4.431   0.294   0.303
 4241TIP3   OH234281   5.363   0.388   1.519
 4241TIP3    H134282   5.270   0.419   1.506
 4241TIP3    H234283   5.393   0.387   1.426
 4242TIP3   OH234284   5.224   0.767   0.920
 4242TIP3    H134285   5.142   0.722   0.892
 4242TIP3    H234286   5.272   0.698   0.972
 4243TIP3   OH234287   4.165   1.360   0.180
 4243TIP3    H134288   4.231   1.422   0.210
 4243TIP3    H234289   4.217   1.312   0.111
 4244TIP3   OH234290   4.005   0.633   0.098
 4244TIP3    H134291   4.009   0.730   0.113
 4244TIP3    H234292   3.921   0.631   0.054
 4245TIP3   OH234293   5.330   1.693   1.089
 4245TIP3    H134294   5.322   1.759   1.017
 4245TIP3    H234295   5.427   1.697   1.104
 4246TIP3   OH234296   4.056   0.121   0.972
 4246TIP3    H134297   4.062   0.110   0.875
 4246TIP3    H234298   4.041   0.028   0.996
 4247TIP3   OH234299   3.977   1.501   0.584
 4247TIP3    H134300   3.889   1.541   0.575
 4247TIP3    H234301   4.024   1.543   0.511
 4248TIP3   OH234302   4.364   1.651   1.872
 4248TIP3    H134303   4.441   1.603   1.904
 4248TIP3    H234304   4.362   1.627   1.778
 4249TIP3   OH234305   4.813   1.611   0.068
 4249TIP3    H134306   4.729   1.562   0.059
 4249TIP3    H234307   4.863   1.564   0.000
 4250TIP3   OH234308   5.016   1.492   1.744
 4250TIP3    H134309   4.983   1.404   1.771
 4250TIP3    H234310   5.092   1.506   1.804
 4251TIP3   OH234311   5.234   1.582   0.030
 4251TIP3    H134312   5.262   1.504   0.083
 4251TIP3    H234313   5.313   1.602  -0.022
 4252TIP3   OH234314   3.892   1.136   1.805
 4252TIP3    H134315   3.902   1.045   1.774
 4252TIP3    H234316   3.812   1.166   1.756
 4253TIP3   OH234317   4.331   1.181   0.025
 4253TIP3    H134318   4.336   1.097   0.072
 4253TIP3    H234319   4.388   1.159  -0.052
 4254TIP3   OH234320   4.564   1.139   1.745
 4254TIP3    H134321   4.527   1.168   1.660
 4254TIP3    H234322   4.565   1.040   1.740
 4255TIP3   OH234323   5.130   1.124   1.490
 4255TIP3    H134324   5.207   1.183   1.479
 4255TIP3    H234325   5.059   1.190   1.492
 4256TIP3   OH234326   3.984   0.864   1.750
 4256TIP3    H134327   4.020   0.775   1.738
 4256TIP3    H234328   3.952   0.861   1.840
 4257TIP3   OH234329   4.444   0.977   0.253
 4257TIP3    H134330   4.393   0.924   0.317
 4257TIP3    H234331   4.474   0.908   0.190
 4258TIP3   OH234332   4.369   0.756   1.483
 4258TIP3    H134333   4.310   0.828   1.510
 4258TIP3    H234334   4.408   0.793   1.402
 4259TIP3   OH234335   4.551   0.799   0.074
 4259TIP3    H134336   4.539   0.779  -0.020
 4259TIP3    H234337   4.649   0.807   0.084
 4260TIP3   OH234338   4.874   1.015   1.819
 4260TIP3    H134339   4.970   1.010   1.807
 4260TIP3    H234340   4.857   0.938   1.873
 4261TIP3   OH234341   5.471   1.042   8.525
 4261TIP3    H134342   5.459   0.993   8.442
 4261TIP3    H234343   5.491   1.133   8.498
 4262TIP3   OH234344   4.412   0.494   1.589
 4262TIP3    H134345   4.421   0.422   1.525
 4262TIP3    H234346   4.405   0.575   1.534
 4263TIP3   OH234347   4.449   0.334   1.342
 4263TIP3    H134348   4.501   0.381   1.273
 4263TIP3    H234349   4.360   0.323   1.301
 4264TIP3   OH234350   4.604   0.880   1.368
 4264TIP3    H134351   4.679   0.864   1.311
 4264TIP3    H234352   4.568   0.964   1.336
 4265TIP3   OH234353   5.048   0.659   1.866
 4265TIP3    H134354   5.066   0.565   1.856
 4265TIP3    H234355   5.134   0.702   1.861
 4266TIP3   OH234356   5.177   0.936   1.680
 4266TIP3    H134357   5.152   1.009   1.620
 4266TIP3    H234358   5.273   0.932   1.660
 4267TIP3   OH234359   4.255   0.618   1.783
 4267TIP3    H134360   4.178   0.560   1.765
 4267TIP3    H234361   4.320   0.584   1.719
 4268TIP3   OH234362   4.514   0.095   1.411
 4268TIP3    H134363   4.510   0.188   1.379
 4268TIP3    H234364   4.457   0.053   1.345
 4269TIP3   OH234365   4.655   0.508   1.742
 4269TIP3    H134366   4.627   0.486   1.834
 4269TIP3    H234367   4.574   0.488   1.692
 4270TIP3   OH234368   4.927   0.423   1.653
 4270TIP3    H134369   4.831   0.427   1.667
 4270TIP3    H234370   4.956   0.361   1.722
 4271TIP3   OH234371   5.083   0.296   1.851
 4271TIP3    H134372   5.079   0.196   1.847
 4271TIP3    H234373   5.054   0.311   1.941
 4272TIP3   OH234374   4.064   0.415   1.753
 4272TIP3    H134375   4.089   0.338   1.699
 4272TIP3    H234376   4.060   0.369   1.841
 4273TIP3   OH234377   4.549   7.314   1.655
 4273TIP3    H134378   4.618   7.248   1.659
 4273TIP3    H234379   4.535   7.335   1.560
 4274TIP3   OH234380   4.590   0.183   1.859
 4274TIP3    H134381   4.572   0.128   1.781
 4274TIP3    H234382   4.526   0.256   1.855
 4275TIP3   OH234383   4.534   1.867   0.176
 4275TIP3    H134384   4.631   1.877   0.189
 4275TIP3    H234385   4.516   1.934   0.111
 4276TIP3   OH234386   3.891   1.326   0.129
 4276TIP3    H134387   3.987   1.336   0.150
 4276TIP3    H234388   3.894   1.267   0.054
 4277TIP3   OH234389   3.767   1.865   0.630
 4277TIP3    H134390   3.696   1.818   0.578
 4277TIP3    H234391   3.794   1.792   0.688
 4278TIP3   OH234392   3.848   1.682   0.817
 4278TIP3    H134393   3.815   1.591   0.828
 4278TIP3    H234394   3.874   1.700   0.907
 4279TIP3   OH234395   5.601   1.759   1.107
 4279TIP3    H134396   5.606   1.771   1.203
 4279TIP3    H234397   5.674   1.813   1.075
 4280TIP3   OH234398   5.561   1.717   1.401
 4280TIP3    H134399   5.513   1.640   1.364
 4280TIP3    H234400   5.610   1.671   1.472
 4281TIP3   OH234401   5.540   1.116   0.408
 4281TIP3    H134402   5.619   1.165   0.434
 4281TIP3    H234403   5.535   1.050   0.480
 4282TIP3   OH234404   5.573   0.926   0.599
 4282TIP3    H134405   5.497   0.877   0.639
 4282TIP3    H234406   5.631   0.944   0.676
 4283TIP3   OH234407   5.548   1.199   1.098
 4283TIP3    H134408   5.630   1.161   1.061
 4283TIP3    H234409   5.563   1.295   1.081
 4284TIP3   OH234410   5.403   1.489   1.326
 4284TIP3    H134411   5.334   1.524   1.385
 4284TIP3    H234412   5.349   1.449   1.255
 4285TIP3   OH234413   5.601   0.912   0.237
 4285TIP3    H134414   5.543   0.949   0.169
 4285TIP3    H234415   5.594   0.983   0.305
 4286TIP3   OH234416   5.403   0.638   0.100
 4286TIP3    H134417   5.446   0.697   0.037
 4286TIP3    H234418   5.420   0.553   0.054
 4287TIP3   OH234419   5.354   0.777   0.657
 4287TIP3    H134420   5.339   0.681   0.653
 4287TIP3    H234421   5.321   0.798   0.746
 4288TIP3   OH234422   3.854   0.985   1.062
 4288TIP3    H134423   3.873   0.977   0.966
 4288TIP3    H234424   3.944   0.968   1.098
 4289TIP3   OH234425   5.438   0.972   1.628
 4289TIP3    H134426   5.500   0.898   1.640
 4289TIP3    H234427   5.499   1.049   1.624
 4290TIP3   OH234428   5.592   0.763   1.689
 4290TIP3    H134429   5.504   0.721   1.675
 4290TIP3    H234430   5.648   0.684   1.679
 4291TIP3   OH234431   5.362   0.380   0.005
 4291TIP3    H134432   5.422   0.335   0.069
 4291TIP3    H234433   5.275   0.340   0.023
 4292TIP3   OH234434   5.321   0.536   0.504
 4292TIP3    H134435   5.352   0.443   0.515
 4292TIP3    H234436   5.399   0.576   0.464
 4293TIP3   OH234437   5.385   0.591   1.046
 4293TIP3    H134438   5.481   0.613   1.045
 4293TIP3    H234439   5.366   0.603   1.141
 4294TIP3   OH234440   5.390   0.664   1.323
 4294TIP3    H134441   5.304   0.692   1.359
 4294TIP3    H234442   5.435   0.749   1.303
 4295TIP3   OH234443   3.819   0.516   1.675
 4295TIP3    H134444   3.911   0.492   1.697
 4295TIP3    H234445   3.772   0.435   1.707
 4296TIP3   OH234446   5.626   0.061   1.857
 4296TIP3    H134447   5.648  -0.001   1.789
 4296TIP3    H234448   5.624   0.151   1.818
 4297TIP3   OH234449   5.387   0.265   0.508
 4297TIP3    H134450   5.407   0.218   0.591
 4297TIP3    H234451   5.328   0.201   0.461
 4298TIP3   OH234452   3.934   0.349   0.958
 4298TIP3    H134453   3.978   0.265   0.987
 4298TIP3    H234454   3.990   0.414   1.002
 4299TIP3   OH234455   3.765   0.643   1.067
 4299TIP3    H134456   3.821   0.619   0.990
 4299TIP3    H234457   3.811   0.724   1.094
 4300TIP3   OH234458   5.572   0.270   1.693
 4300TIP3    H134459   5.480   0.304   1.690
 4300TIP3    H234460   5.574   0.222   1.609
 4301TIP3   OH234461   5.571   0.268   0.162
 4301TIP3    H134462   5.612   0.196   0.112
 4301TIP3    H234463   5.643   0.333   0.165
 4302TIP3   OH234464   3.801   0.259   0.468
 4302TIP3    H134465   3.708   0.288   0.467
 4302TIP3    H234466   3.845   0.320   0.405
 4303TIP3   OH234467   5.274   1.767   0.669
 4303TIP3    H134468   5.342   1.731   0.608
 4303TIP3    H234469   5.329   1.813   0.733
 4304TIP3   OH234470   3.797   0.142   1.305
 4304TIP3    H134471   3.729   0.117   1.370
 4304TIP3    H234472   3.749   0.203   1.246
 4305TIP3   OH234473   4.309   1.555   1.347
 4305TIP3    H134474   4.276   1.642   1.320
 4305TIP3    H234475   4.402   1.565   1.317
 4306TIP3   OH234476   4.741   1.696   1.639
 4306TIP3    H134477   4.758   1.666   1.732
 4306TIP3    H234478   4.830   1.729   1.614
 4307TIP3   OH234479   4.972   1.824   1.570
 4307TIP3    H134480   5.045   1.765   1.544
 4307TIP3    H234481   5.011   1.868   1.647
 4308TIP3   OH234482   5.475   0.089   1.468
 4308TIP3    H134483   5.389   0.119   1.434
 4308TIP3    H234484   5.487   0.003   1.422
 4309TIP3   OH234485   4.049   1.875   1.349
 4309TIP3    H134486   3.979   1.931   1.310
 4309TIP3    H234487   4.019   1.862   1.439
 4310TIP3   OH234488   4.298   1.836   1.253
 4310TIP3    H134489   4.210   1.852   1.296
 4310TIP3    H234490   4.295   1.898   1.178
 4311TIP3   OH234491   4.770   1.829   1.172
 4311TIP3    H134492   4.724   1.884   1.107
 4311TIP3    H234493   4.784   1.892   1.246
 4312TIP3   OH234494   4.999   1.711   1.275
 4312TIP3    H134495   4.913   1.737   1.238
 4312TIP3    H234496   5.046   1.795   1.264
 4313TIP3   OH234497   5.262   1.870   1.299
 4313TIP3    H134498   5.249   1.964   1.272
 4313TIP3    H234499   5.277   1.829   1.211
 4314TIP3   OH234500   3.999   1.751   1.039
 4314TIP3    H134501   3.990   1.701   1.124
 4314TIP3    H234502   4.079   1.706   1.003
 4315TIP3   OH234503   4.204   1.618   0.909
 4315TIP3    H134504   4.190   1.523   0.929
 4315TIP3    H234505   4.292   1.630   0.952
 4316TIP3   OH234506   4.465   1.664   0.995
 4316TIP3    H134507   4.482   1.571   0.968
 4316TIP3    H234508   4.470   1.658   1.091
 4317TIP3   OH234509   4.801   0.235   0.907
 4317TIP3    H134510   4.742   0.164   0.935
 4317TIP3    H234511   4.868   0.185   0.856
 4318TIP3   OH234512   5.326   0.037   0.918
 4318TIP3    H134513   5.388   0.092   0.866
 4318TIP3    H234514   5.239   0.071   0.894
 4319TIP3   OH234515   5.495   0.161   0.744
 4319TIP3    H134516   5.558   0.102   0.701
 4319TIP3    H234517   5.544   0.245   0.751
 4320TIP3   OH234518   4.046   0.095   0.694
 4320TIP3    H134519   3.968   0.070   0.642
 4320TIP3    H234520   4.094   0.010   0.697
 4321TIP3   OH234521   3.915   0.068   0.254
 4321TIP3    H134522   3.977   0.131   0.215
 4321TIP3    H234523   3.870   0.121   0.323
 4322TIP3   OH234524   4.502   0.079   0.671
 4322TIP3    H134525   4.588   0.124   0.667
 4322TIP3    H234526   4.492   0.062   0.765
 4323TIP3   OH234527   5.042   0.122   0.850
 4323TIP3    H134528   5.056   0.117   0.755
 4323TIP3    H234529   5.032   0.024   0.862
 4324TIP3   OH234530   5.194   0.094   0.410
 4324TIP3    H134531   5.120   0.149   0.382
 4324TIP3    H234532   5.155   0.006   0.416
 4325TIP3   OH234533   3.918   1.663   0.366
 4325TIP3    H134534   3.850   1.663   0.296
 4325TIP3    H234535   3.920   1.758   0.381
 4326TIP3   OH234536   4.104   0.251   0.118
 4326TIP3    H134537   4.162   0.199   0.061
 4326TIP3    H234538   4.173   0.291   0.177
 4327TIP3   OH234539   4.604   0.285   0.361
 4327TIP3    H134540   4.641   0.230   0.432
 4327TIP3    H234541   4.618   0.373   0.405
 4328TIP3   OH234542   4.801   1.819   0.204
 4328TIP3    H134543   4.897   1.819   0.188
 4328TIP3    H234544   4.783   1.748   0.137
 4329TIP3   OH234545   5.466   1.762   0.468
 4329TIP3    H134546   5.457   1.675   0.423
 4329TIP3    H234547   5.464   1.826   0.395
 4330TIP3   OH234548   4.030   0.141   1.624
 4330TIP3    H134549   3.996   0.072   1.680
 4330TIP3    H234550   4.119   0.146   1.668
 4331TIP3   OH234551   4.210   0.102   1.791
 4331TIP3    H134552   4.304   0.082   1.775
 4331TIP3    H234553   4.195   0.020   1.842
 4332TIP3   OH234554   4.100   1.760   0.063
 4332TIP3    H134555   4.070   1.787   0.151
 4332TIP3    H234556   4.176   1.705   0.080
 4333TIP3   OH234557   5.100   7.346   1.834
 4333TIP3    H134558   5.084   7.279   1.903
 4333TIP3    H234559   5.175   7.316   1.782
 4334TIP3   OH234560   5.400   1.618   1.682
 4334TIP3    H134561   5.319   1.603   1.628
 4334TIP3    H234562   5.387   1.712   1.704
 4335TIP3   OH234563   6.843   1.004   0.680
 4335TIP3    H134564   6.844   1.103   0.675
 4335TIP3    H234565   6.771   0.982   0.619
 4336TIP3   OH234566   6.729   0.931   1.029
 4336TIP3    H134567   6.727   0.867   1.100
 4336TIP3    H234568   6.697   0.881   0.953
 4337TIP3   OH234569   5.964   0.898   1.184
 4337TIP3    H134570   5.973   0.830   1.255
 4337TIP3    H234571   6.039   0.956   1.206
 4338TIP3   OH234572   7.100   1.224   0.858
 4338TIP3    H134573   7.057   1.153   0.907
 4338TIP3    H234574   7.100   1.296   0.924
 4339TIP3   OH234575   6.057   1.343   1.035
 4339TIP3    H134576   6.025   1.257   1.003
 4339TIP3    H234577   6.152   1.325   1.040
 4340TIP3   OH234578   5.721   0.699   0.583
 4340TIP3    H134579   5.677   0.786   0.578
 4340TIP3    H234580   5.664   0.646   0.526
 4341TIP3   OH234581   5.792   0.923   0.797
 4341TIP3    H134582   5.818   0.841   0.843
 4341TIP3    H234583   5.862   0.932   0.731
 4342TIP3   OH234584   6.810   1.742   0.879
 4342TIP3    H134585   6.874   1.672   0.853
 4342TIP3    H234586   6.787   1.710   0.967
 4343TIP3   OH234587   6.567   1.172   1.075
 4343TIP3    H134588   6.600   1.108   1.010
 4343TIP3    H234589   6.647   1.187   1.128
 4344TIP3   OH234590   6.884   0.619   1.107
 4344TIP3    H134591   6.899   0.522   1.106
 4344TIP3    H234592   6.874   0.634   1.011
 4345TIP3   OH234593   6.196   0.428   0.829
 4345TIP3    H134594   6.205   0.512   0.780
 4345TIP3    H234595   6.154   0.371   0.762
 4346TIP3   OH234596   6.971   0.438   0.667
 4346TIP3    H134597   7.036   0.405   0.734
 4346TIP3    H234598   7.028   0.491   0.611
 4347TIP3   OH234599   5.857   0.668   0.903
 4347TIP3    H134600   5.924   0.613   0.948
 4347TIP3    H234601   5.867   0.637   0.812
 4348TIP3   OH234602   6.373   0.824   0.833
 4348TIP3    H134603   6.440   0.766   0.874
 4348TIP3    H234604   6.321   0.757   0.784
 4349TIP3   OH234605   6.084   0.318   1.231
 4349TIP3    H134606   6.055   0.374   1.157
 4349TIP3    H234607   6.016   0.342   1.299
 4350TIP3   OH234608   6.813   1.264   0.587
 4350TIP3    H134609   6.787   1.237   0.498
 4350TIP3    H234610   6.783   1.357   0.593
 4351TIP3   OH234611   6.337   1.081   1.258
 4351TIP3    H134612   6.266   1.145   1.278
 4351TIP3    H234613   6.407   1.141   1.229
 4352TIP3   OH234614   7.120   0.363   0.876
 4352TIP3    H134615   7.122   0.284   0.930
 4352TIP3    H234616   7.197   0.411   0.916
 4353TIP3   OH234617   6.041   0.507   1.034
 4353TIP3    H134618   6.106   0.572   1.068
 4353TIP3    H234619   6.093   0.462   0.963
 4354TIP3   OH234620   6.180   1.281   1.337
 4354TIP3    H134621   6.176   1.373   1.306
 4354TIP3    H234622   6.094   1.274   1.384
 4355TIP3   OH234623   5.791   1.244   0.418
 4355TIP3    H134624   5.761   1.276   0.331
 4355TIP3    H234625   5.789   1.327   0.471
 4356TIP3   OH234626   7.131   1.403   1.103
 4356TIP3    H134627   7.036   1.424   1.108
 4356TIP3    H234628   7.170   1.488   1.074
 4357TIP3   OH234629   7.161   0.252   1.208
 4357TIP3    H134630   7.094   0.321   1.219
 4357TIP3    H234631   7.240   0.297   1.178
 4358TIP3   OH234632   6.478   0.051   0.965
 4358TIP3    H134633   6.474  -0.045   0.978
 4358TIP3    H234634   6.398   0.078   1.012
 4359TIP3   OH234635   6.969   1.582   0.755
 4359TIP3    H134636   7.018   1.514   0.704
 4359TIP3    H234637   7.013   1.662   0.719
 4360TIP3   OH234638   7.096   1.380   0.605
 4360TIP3    H134639   7.070   1.309   0.544
 4360TIP3    H234640   7.102   1.330   0.688
 4361TIP3   OH234641   7.235   1.253   1.468
 4361TIP3    H134642   7.261   1.185   1.403
 4361TIP3    H234643   7.275   1.330   1.422
 4362TIP3   OH234644   6.707   0.930   0.429
 4362TIP3    H134645   6.639   0.988   0.391
 4362TIP3    H234646   6.779   0.939   0.364
 4363TIP3   OH234647   6.714   0.782   0.138
 4363TIP3    H134648   6.787   0.782   0.202
 4363TIP3    H234649   6.747   0.718   0.074
 4364TIP3   OH234650   7.050   0.951   0.520
 4364TIP3    H134651   6.978   0.976   0.583
 4364TIP3    H234652   7.098   0.887   0.576
 4365TIP3   OH234653   7.048   0.768   1.433
 4365TIP3    H134654   7.043   0.848   1.488
 4365TIP3    H234655   6.984   0.795   1.364
 4366TIP3   OH234656   6.215   1.017   0.714
 4366TIP3    H134657   6.182   0.977   0.630
 4366TIP3    H234658   6.276   0.947   0.748
 4367TIP3   OH234659   6.347   1.355   0.983
 4367TIP3    H134660   6.346   1.302   0.902
 4367TIP3    H234661   6.425   1.319   1.028
 4368TIP3   OH234662   6.248   0.891   1.080
 4368TIP3    H134663   6.303   0.901   1.000
 4368TIP3    H234664   6.286   0.958   1.141
 4369TIP3   OH234665   6.882   1.449   1.149
 4369TIP3    H134666   6.861   1.512   1.219
 4369TIP3    H234667   6.863   1.362   1.193
 4370TIP3   OH234668   6.343   1.334   1.550
 4370TIP3    H134669   6.302   1.408   1.599
 4370TIP3    H234670   6.275   1.314   1.482
 4371TIP3   OH234671   6.941   0.867   0.290
 4371TIP3    H134672   6.995   0.890   0.370
 4371TIP3    H234673   6.979   0.923   0.220
 4372TIP3   OH234674   6.036   0.950   1.467
 4372TIP3    H134675   6.041   1.017   1.538
 4372TIP3    H234676   5.943   0.960   1.443
 4373TIP3   OH234677   6.711   1.542   0.637
 4373TIP3    H134678   6.755   1.573   0.717
 4373TIP3    H234679   6.656   1.617   0.612
 4374TIP3   OH234680   6.169   1.532   1.620
 4374TIP3    H134681   6.160   1.526   1.525
 4374TIP3    H234682   6.078   1.526   1.655
 4375TIP3   OH234683   6.111   0.920   0.476
 4375TIP3    H134684   6.084   0.997   0.423
 4375TIP3    H234685   6.045   0.854   0.453
 4376TIP3   OH234686   5.723   1.162   1.362
 4376TIP3    H134687   5.675   1.153   1.277
 4376TIP3    H234688   5.728   1.067   1.386
 4377TIP3   OH234689   5.697   1.434   1.047
 4377TIP3    H134690   5.793   1.424   1.039
 4377TIP3    H234691   5.688   1.518   1.093
 4378TIP3   OH234692   6.616   1.460   1.497
 4378TIP3    H134693   6.622   1.542   1.549
 4378TIP3    H234694   6.529   1.424   1.526
 4379TIP3   OH234695   6.659   1.834   0.478
 4379TIP3    H134696   6.654   1.829   0.382
 4379TIP3    H234697   6.665   1.931   0.495
 4380TIP3   OH234698   6.025   1.722   0.660
 4380TIP3    H134699   6.037   1.679   0.748
 4380TIP3    H234700   5.939   1.681   0.636
 4381TIP3   OH234701   6.958   1.752   0.173
 4381TIP3    H134702   7.010   1.679   0.132
 4381TIP3    H234703   6.968   1.730   0.268
 4382TIP3   OH234704   6.932   1.747   0.455
 4382TIP3    H134705   6.837   1.755   0.474
 4382TIP3    H234706   6.958   1.673   0.512
 4383TIP3   OH234707   7.191   0.672   1.660
 4383TIP3    H134708   7.183   0.705   1.571
 4383TIP3    H234709   7.240   0.586   1.644
 4384TIP3   OH234710   5.947   1.291   1.456
 4384TIP3    H134711   5.970   1.259   1.547
 4384TIP3    H234712   5.860   1.251   1.438
 4385TIP3   OH234713   6.215   0.137   1.058
 4385TIP3    H134714   6.126   0.131   1.018
 4385TIP3    H234715   6.204   0.223   1.102
 4386TIP3   OH234716   6.679   0.108   1.394
 4386TIP3    H134717   6.723   0.070   1.470
 4386TIP3    H234718   6.584   0.099   1.414
 4387TIP3   OH234719   7.008   0.486   1.474
 4387TIP3    H134720   6.954   0.473   1.555
 4387TIP3    H234721   6.996   0.581   1.459
 4388TIP3   OH234722   7.102   0.965   0.069
 4388TIP3    H134723   7.094   0.960  -0.027
 4388TIP3    H234724   7.174   1.028   0.079
 4389TIP3   OH234725   6.645   0.363   0.126
 4389TIP3    H134726   6.615   0.359   0.218
 4389TIP3    H234727   6.620   0.275   0.096
 4390TIP3   OH234728   6.227   0.637   1.178
 4390TIP3    H134729   6.154   0.636   1.243
 4390TIP3    H234730   6.223   0.729   1.143
 4391TIP3   OH234731   6.223   0.650   0.666
 4391TIP3    H134732   6.129   0.625   0.653
 4391TIP3    H234733   6.261   0.620   0.581
 4392TIP3   OH234734   6.777   0.700   0.542
 4392TIP3    H134735   6.735   0.783   0.509
 4392TIP3    H234736   6.845   0.684   0.474
 4393TIP3   OH234737   6.687   0.716   1.682
 4393TIP3    H134738   6.630   0.644   1.719
 4393TIP3    H234739   6.764   0.710   1.741
 4394TIP3   OH234740   6.876   0.650   0.829
 4394TIP3    H134741   6.853   0.705   0.753
 4394TIP3    H234742   6.889   0.564   0.783
 4395TIP3   OH234743   5.989   0.664   1.349
 4395TIP3    H134744   5.997   0.704   1.437
 4395TIP3    H234745   5.945   0.581   1.368
 4396TIP3   OH234746   6.344   0.423   0.065
 4396TIP3    H134747   6.287   0.363   0.117
 4396TIP3    H234748   6.283   0.461   0.000
 4397TIP3   OH234749   5.656   0.378   0.745
 4397TIP3    H134750   5.723   0.374   0.816
 4397TIP3    H234751   5.701   0.337   0.668
 4398TIP3   OH234752   5.785   0.448   0.286
 4398TIP3    H134753   5.833   0.507   0.223
 4398TIP3    H234754   5.715   0.510   0.316
 4399TIP3   OH234755   6.798   0.807   1.283
 4399TIP3    H134756   6.837   0.738   1.225
 4399TIP3    H234757   6.752   0.755   1.351
 4400TIP3   OH234758   6.478   0.404   0.765
 4400TIP3    H134759   6.385   0.405   0.797
 4400TIP3    H234760   6.529   0.390   0.847
 4401TIP3   OH234761   5.960   0.560   0.654
 4401TIP3    H134762   5.871   0.575   0.615
 4401TIP3    H234763   5.990   0.477   0.613
 4402TIP3   OH234764   6.324   0.566   0.416
 4402TIP3    H134765   6.420   0.576   0.434
 4402TIP3    H234766   6.301   0.632   0.349
 4403TIP3   OH234767   6.913   0.327   1.092
 4403TIP3    H134768   6.845   0.335   1.161
 4403TIP3    H234769   6.865   0.302   1.012
 4404TIP3   OH234770   6.194   0.682   0.176
 4404TIP3    H134771   6.138   0.647   0.104
 4404TIP3    H234772   6.276   0.703   0.130
 4405TIP3   OH234773   7.232   1.898   1.726
 4405TIP3    H134774   7.267   1.931   1.643
 4405TIP3    H234775   7.305   1.923   1.784
 4406TIP3   OH234776   6.008   1.140   1.683
 4406TIP3    H134777   6.080   1.168   1.743
 4406TIP3    H234778   5.931   1.156   1.739
 4407TIP3   OH234779   6.608   0.680   0.956
 4407TIP3    H134780   6.668   0.625   0.903
 4407TIP3    H234781   6.593   0.626   1.035
 4408TIP3   OH234782   6.107   0.297   0.601
 4408TIP3    H134783   6.076   0.205   0.601
 4408TIP3    H234784   6.185   0.290   0.545
 4409TIP3   OH234785   6.472   0.518   1.196
 4409TIP3    H134786   6.388   0.566   1.208
 4409TIP3    H234787   6.526   0.549   1.271
 4410TIP3   OH234788   6.530   1.134   0.370
 4410TIP3    H134789   6.450   1.088   0.335
 4410TIP3    H234790   6.508   1.146   0.464
 4411TIP3   OH234791   7.218   1.055   1.247
 4411TIP3    H134792   7.291   1.073   1.183
 4411TIP3    H234793   7.142   1.059   1.187
 4412TIP3   OH234794   6.918   0.415   0.187
 4412TIP3    H134795   6.823   0.427   0.168
 4412TIP3    H234796   6.945   0.504   0.217
 4413TIP3   OH234797   6.680   1.161   1.489
 4413TIP3    H134798   6.646   1.120   1.570
 4413TIP3    H234799   6.658   1.254   1.501
 4414TIP3   OH234800   6.989   0.610   0.347
 4414TIP3    H134801   7.076   0.597   0.390
 4414TIP3    H234802   6.996   0.694   0.300
 4415TIP3   OH234803   6.041   1.075   0.947
 4415TIP3    H134804   6.110   1.067   0.879
 4415TIP3    H234805   6.047   0.989   0.993
 4416TIP3   OH234806   6.739   1.282   0.273
 4416TIP3    H134807   6.705   1.366   0.309
 4416TIP3    H234808   6.666   1.220   0.291
 4417TIP3   OH234809   5.740   0.915   1.473
 4417TIP3    H134810   5.758   0.871   1.558
 4417TIP3    H234811   5.679   0.853   1.431
 4418TIP3   OH234812   6.440   0.875   1.690
 4418TIP3    H134813   6.411   0.840   1.605
 4418TIP3    H234814   6.531   0.840   1.695
 4419TIP3   OH234815   6.909   1.404   1.487
 4419TIP3    H134816   6.818   1.422   1.462
 4419TIP3    H234817   6.907   1.433   1.580
 4420TIP3   OH234818   7.021   0.985   1.076
 4420TIP3    H134819   6.927   0.963   1.063
 4420TIP3    H234820   7.069   0.911   1.035
 4421TIP3   OH234821   6.277   1.420   0.686
 4421TIP3    H134822   6.328   1.500   0.665
 4421TIP3    H234823   6.190   1.444   0.653
 4422TIP3   OH234824   5.851   0.906   0.139
 4422TIP3    H134825   5.913   0.969   0.181
 4422TIP3    H234826   5.764   0.935   0.172
 4423TIP3   OH234827   6.420   1.186   0.639
 4423TIP3    H134828   6.389   1.279   0.646
 4423TIP3    H234829   6.347   1.138   0.682
 4424TIP3   OH234830   6.465   1.605   1.277
 4424TIP3    H134831   6.510   1.687   1.250
 4424TIP3    H234832   6.525   1.571   1.345
 4425TIP3   OH234833   6.288   1.688   0.586
 4425TIP3    H134834   6.192   1.698   0.606
 4425TIP3    H234835   6.323   1.769   0.627
 4426TIP3   OH234836   6.820   1.206   1.241
 4426TIP3    H134837   6.784   1.186   1.330
 4426TIP3    H234838   6.882   1.133   1.224
 4427TIP3   OH234839   7.048   1.305   0.150
 4427TIP3    H134840   7.080   1.266   0.233
 4427TIP3    H234841   6.951   1.294   0.158
 4428TIP3   OH234842   7.093   1.664   1.492
 4428TIP3    H134843   7.027   1.613   1.440
 4428TIP3    H234844   7.120   1.732   1.426
 4429TIP3   OH234845   5.904   0.388   1.432
 4429TIP3    H134846   5.814   0.425   1.425
 4429TIP3    H234847   5.890   0.302   1.473
 4430TIP3   OH234848   7.130   1.170   0.371
 4430TIP3    H134849   7.105   1.094   0.428
 4430TIP3    H234850   7.223   1.184   0.397
 4431TIP3   OH234851   5.867   1.568   1.273
 4431TIP3    H134852   5.895   1.475   1.272
 4431TIP3    H234853   5.894   1.596   1.361
 4432TIP3   OH234854   6.346   1.379   0.240
 4432TIP3    H134855   6.366   1.319   0.314
 4432TIP3    H234856   6.349   1.466   0.281
 4433TIP3   OH234857   5.989   1.098   0.288
 4433TIP3    H134858   5.923   1.139   0.349
 4433TIP3    H234859   6.047   1.174   0.267
 4434TIP3   OH234860   6.776   0.365   1.325
 4434TIP3    H134861   6.851   0.371   1.387
 4434TIP3    H234862   6.740   0.276   1.342
 4435TIP3   OH234863   6.858   0.323   0.435
 4435TIP3    H134864   6.878   0.371   0.351
 4435TIP3    H234865   6.911   0.373   0.498
 4436TIP3   OH234866   6.619   1.539   0.312
 4436TIP3    H134867   6.540   1.594   0.325
 4436TIP3    H234868   6.678   1.591   0.255
 4437TIP3   OH234869   6.576   0.496   0.515
 4437TIP3    H134870   6.653   0.555   0.516
 4437TIP3    H234871   6.550   0.487   0.609
 4438TIP3   OH234872   6.636   0.602   1.429
 4438TIP3    H134873   6.641   0.655   1.511
 4438TIP3    H234874   6.696   0.529   1.447
 4439TIP3   OH234875   6.660   0.205   0.608
 4439TIP3    H134876   6.629   0.273   0.670
 4439TIP3    H234877   6.727   0.258   0.558
 4440TIP3   OH234878   6.355   1.649   0.313
 4440TIP3    H134879   6.377   1.735   0.279
 4440TIP3    H234880   6.333   1.673   0.407
 4441TIP3   OH234881   6.228   0.311   0.275
 4441TIP3    H134882   6.219   0.402   0.310
 4441TIP3    H234883   6.320   0.294   0.304
 4442TIP3   OH234884   7.239   0.369   1.504
 4442TIP3    H134885   7.153   0.418   1.502
 4442TIP3    H234886   7.277   0.389   1.418
 4443TIP3   OH234887   7.110   0.767   0.924
 4443TIP3    H134888   7.028   0.723   0.893
 4443TIP3    H234889   7.152   0.695   0.972
 4444TIP3   OH234890   6.051   1.361   0.178
 4444TIP3    H134891   6.117   1.421   0.212
 4444TIP3    H234892   6.102   1.311   0.111
 4445TIP3   OH234893   5.889   0.627   0.099
 4445TIP3    H134894   5.886   0.723   0.110
 4445TIP3    H234895   5.802   0.606   0.063
 4446TIP3   OH234896   7.222   1.695   1.085
 4446TIP3    H134897   7.206   1.762   1.017
 4446TIP3    H234898   7.316   1.703   1.103
 4447TIP3   OH234899   5.942   0.121   0.972
 4447TIP3    H134900   5.947   0.111   0.874
 4447TIP3    H234901   5.927   0.028   0.993
 4448TIP3   OH234902   5.866   1.500   0.583
 4448TIP3    H134903   5.774   1.535   0.578
 4448TIP3    H234904   5.907   1.546   0.510
 4449TIP3   OH234905   5.783   1.765   1.712
 4449TIP3    H134906   5.844   1.740   1.784
 4449TIP3    H234907   5.742   1.679   1.691
 4450TIP3   OH234908   6.693   1.614   0.065
 4450TIP3    H134909   6.618   1.553   0.059
 4450TIP3    H234910   6.750   1.567   0.003
 4451TIP3   OH234911   6.904   1.493   1.745
 4451TIP3    H134912   6.868   1.406   1.774
 4451TIP3    H234913   6.981   1.502   1.803
 4452TIP3   OH234914   7.117   1.581   0.030
 4452TIP3    H134915   7.147   1.502   0.079
 4452TIP3    H234916   7.196   1.605  -0.020
 4453TIP3   OH234917   5.766   1.132   1.813
 4453TIP3    H134918   5.793   1.049   1.771
 4453TIP3    H234919   5.701   1.167   1.749
 4454TIP3   OH234920   6.217   1.181   0.026
 4454TIP3    H134921   6.222   1.097   0.072
 4454TIP3    H234922   6.273   1.159  -0.052
 4455TIP3   OH234923   6.445   1.137   1.752
 4455TIP3    H134924   6.412   1.168   1.666
 4455TIP3    H234925   6.452   1.040   1.738
 4456TIP3   OH234926   7.012   1.122   1.489
 4456TIP3    H134927   7.090   1.182   1.481
 4456TIP3    H234928   6.943   1.190   1.492
 4457TIP3   OH234929   5.864   0.862   1.749
 4457TIP3    H134930   5.902   0.776   1.731
 4457TIP3    H234931   5.838   0.859   1.842
 4458TIP3   OH234932   6.330   0.977   0.254
 4458TIP3    H134933   6.279   0.924   0.317
 4458TIP3    H234934   6.359   0.908   0.190
 4459TIP3   OH234935   6.255   0.757   1.484
 4459TIP3    H134936   6.197   0.830   1.509
 4459TIP3    H234937   6.294   0.792   1.402
 4460TIP3   OH234938   6.436   0.799   0.074
 4460TIP3    H134939   6.424   0.780  -0.020
 4460TIP3    H234940   6.534   0.807   0.084
 4461TIP3   OH234941   6.761   1.011   1.816
 4461TIP3    H134942   6.857   1.015   1.808
 4461TIP3    H234943   6.745   0.936   1.874
 4462TIP3   OH234944   6.289   0.492   1.591
 4462TIP3    H134945   6.307   0.423   1.526
 4462TIP3    H234946   6.291   0.574   1.539
 4463TIP3   OH234947   6.336   0.334   1.341
 4463TIP3    H134948   6.387   0.382   1.273
 4463TIP3    H234949   6.247   0.324   1.300
 4464TIP3   OH234950   6.490   0.880   1.368
 4464TIP3    H134951   6.566   0.864   1.311
 4464TIP3    H234952   6.453   0.964   1.336
 4465TIP3   OH234953   6.932   0.660   1.865
 4465TIP3    H134954   6.953   0.567   1.854
 4465TIP3    H234955   7.019   0.701   1.862
 4466TIP3   OH234956   7.064   0.938   1.679
 4466TIP3    H134957   7.038   1.010   1.618
 4466TIP3    H234958   7.157   0.927   1.659
 4467TIP3   OH234959   6.397   0.095   1.413
 4467TIP3    H134960   6.396   0.189   1.380
 4467TIP3    H234961   6.344   0.053   1.343
 4468TIP3   OH234962   6.536   0.511   1.734
 4468TIP3    H134963   6.522   0.483   1.828
 4468TIP3    H234964   6.452   0.488   1.691
 4469TIP3   OH234965   6.812   0.421   1.652
 4469TIP3    H134966   6.716   0.427   1.668
 4469TIP3    H234967   6.837   0.359   1.722
 4470TIP3   OH234968   5.960   0.414   1.763
 4470TIP3    H134969   5.974   0.344   1.696
 4470TIP3    H234970   5.937   0.364   1.841
 4471TIP3   OH234971   6.429   7.308   1.655
 4471TIP3    H134972   6.506   7.251   1.658
 4471TIP3    H234973   6.424   7.336   1.561
 4472TIP3   OH234974   6.461   0.176   1.859
 4472TIP3    H134975   6.459   0.129   1.774
 4472TIP3    H234976   6.416   0.260   1.847
 4473TIP3   OH234977   6.427   1.902   0.202
 4473TIP3    H134978   6.526   1.892   0.202
 4473TIP3    H234979   6.409   1.952   0.123
 4474TIP3   OH234980   5.778   1.327   0.128
 4474TIP3    H134981   5.873   1.337   0.151
 4474TIP3    H234982   5.781   1.266   0.053
 4475TIP3   OH234983   5.652   1.864   0.628
 4475TIP3    H134984   5.581   1.815   0.580
 4475TIP3    H234985   5.680   1.795   0.691
 4476TIP3   OH234986   5.737   1.678   0.813
 4476TIP3    H134987   5.698   1.590   0.828
 4476TIP3    H234988   5.757   1.709   0.902
 4477TIP3   OH234989   7.281   1.483   1.331
 4477TIP3    H134990   7.215   1.526   1.388
 4477TIP3    H234991   7.229   1.446   1.258
 4478TIP3   OH234992   7.190   0.784   0.665
 4478TIP3    H134993   7.216   0.692   0.667
 4478TIP3    H234994   7.201   0.808   0.759
 4479TIP3   OH234995   5.740   0.984   1.062
 4479TIP3    H134996   5.759   0.977   0.966
 4479TIP3    H234997   5.829   0.968   1.098
 4480TIP3   OH234998   7.230   0.380   0.013
 4480TIP3    H134999   7.300   0.340   0.068
 4480TIP3    H235000   7.149   0.330   0.032
 4481TIP3   OH235001   7.204   0.530   0.489
 4481TIP3    H135002   7.233   0.444   0.527
 4481TIP3    H235003   7.286   0.565   0.455
 4482TIP3   OH235004  -0.055   0.508   1.043
 4482TIP3    H135005   0.036   0.541   1.033
 4482TIP3    H235006  -0.073   0.569   1.116
 4483TIP3   OH235007   7.278   0.666   1.348
 4483TIP3    H135008   7.184   0.693   1.360
 4483TIP3    H235009   7.315   0.738   1.293
 4484TIP3   OH235010   5.701   0.514   1.673
 4484TIP3    H135011   5.793   0.494   1.696
 4484TIP3    H235012   5.655   0.435   1.710
 4485TIP3   OH235013   7.184   0.229   0.574
 4485TIP3    H135014   7.278   0.217   0.595
 4485TIP3    H235015   7.187   0.192   0.483
 4486TIP3   OH235016   5.819   0.348   0.959
 4486TIP3    H135017   5.863   0.265   0.987
 4486TIP3    H235018   5.876   0.414   1.002
 4487TIP3   OH235019   5.651   0.643   1.067
 4487TIP3    H135020   5.707   0.619   0.990
 4487TIP3    H235021   5.696   0.725   1.093
 4488TIP3   OH235022   5.687   0.266   0.475
 4488TIP3    H135023   5.593   0.287   0.461
 4488TIP3    H235024   5.729   0.316   0.402
 4489TIP3   OH235025   7.142   1.748   0.678
 4489TIP3    H135026   7.210   1.716   0.617
 4489TIP3    H235027   7.195   1.806   0.735
 4490TIP3   OH235028   5.683   0.142   1.309
 4490TIP3    H135029   5.611   0.119   1.369
 4490TIP3    H235030   5.637   0.202   1.246
 4491TIP3   OH235031   5.901   1.452   1.720
 4491TIP3    H135032   5.819   1.478   1.677
 4491TIP3    H235033   5.880   1.450   1.814
 4492TIP3   OH235034   6.193   1.554   1.342
 4492TIP3    H135035   6.162   1.643   1.321
 4492TIP3    H235036   6.288   1.565   1.319
 4493TIP3   OH235037   6.628   1.698   1.641
 4493TIP3    H135038   6.647   1.659   1.727
 4493TIP3    H235039   6.717   1.727   1.613
 4494TIP3   OH235040   6.858   1.822   1.574
 4494TIP3    H135041   6.932   1.767   1.543
 4494TIP3    H235042   6.901   1.870   1.645
 4495TIP3   OH235043   5.937   1.881   1.348
 4495TIP3    H135044   5.864   1.929   1.307
 4495TIP3    H235045   5.907   1.859   1.437
 4496TIP3   OH235046   6.185   1.838   1.254
 4496TIP3    H135047   6.096   1.853   1.294
 4496TIP3    H235048   6.179   1.897   1.177
 4497TIP3   OH235049   6.653   1.828   1.172
 4497TIP3    H135050   6.609   1.884   1.107
 4497TIP3    H235051   6.669   1.892   1.245
 4498TIP3   OH235052   6.884   1.710   1.274
 4498TIP3    H135053   6.798   1.737   1.238
 4498TIP3    H235054   6.930   1.796   1.265
 4499TIP3   OH235055   7.130   1.867   1.297
 4499TIP3    H135056   7.129   1.962   1.274
 4499TIP3    H235057   7.163   1.830   1.213
 4500TIP3   OH235058   5.883   1.744   1.042
 4500TIP3    H135059   5.876   1.699   1.128
 4500TIP3    H235060   5.965   1.708   1.003
 4501TIP3   OH235061   6.091   1.616   0.907
 4501TIP3    H135062   6.075   1.522   0.930
 4501TIP3    H235063   6.177   1.631   0.952
 4502TIP3   OH235064   6.349   1.664   0.994
 4502TIP3    H135065   6.367   1.572   0.968
 4502TIP3    H235066   6.356   1.659   1.091
 4503TIP3   OH235067   6.685   0.235   0.907
 4503TIP3    H135068   6.626   0.163   0.935
 4503TIP3    H235069   6.753   0.186   0.857
 4504TIP3   OH235070   7.211   0.038   0.921
 4504TIP3    H135071   7.272   0.092   0.871
 4504TIP3    H235072   7.125   0.071   0.897
 4505TIP3   OH235073   5.931   0.095   0.695
 4505TIP3    H135074   5.854   0.071   0.641
 4505TIP3    H235075   5.980   0.010   0.697
 4506TIP3   OH235076   5.814   0.068   0.269
 4506TIP3    H135077   5.857   0.131   0.210
 4506TIP3    H235078   5.750   0.123   0.317
 4507TIP3   OH235079   6.388   0.079   0.670
 4507TIP3    H135080   6.474   0.124   0.667
 4507TIP3    H235081   6.377   0.062   0.765
 4508TIP3   OH235082   6.923   0.121   0.849
 4508TIP3    H135083   6.942   0.119   0.755
 4508TIP3    H235084   6.916   0.022   0.861
 4509TIP3   OH235085   7.077   0.085   0.389
 4509TIP3    H135086   7.003   0.148   0.386
 4509TIP3    H235087   7.035   0.003   0.418
 4510TIP3   OH235088   5.810   1.666   0.362
 4510TIP3    H135089   5.735   1.661   0.299
 4510TIP3    H235090   5.803   1.759   0.385
 4511TIP3   OH235091   5.993   0.248   0.118
 4511TIP3    H135092   6.049   0.197   0.060
 4511TIP3    H235093   6.058   0.292   0.177
 4512TIP3   OH235094   6.490   0.285   0.361
 4512TIP3    H135095   6.526   0.230   0.432
 4512TIP3    H235096   6.504   0.373   0.405
 4513TIP3   OH235097   6.683   1.820   0.202
 4513TIP3    H135098   6.781   1.823   0.191
 4513TIP3    H235099   6.675   1.747   0.136
 4514TIP3   OH235100   5.913   0.177   1.642
 4514TIP3    H135101   5.878   0.115   1.706
 4514TIP3    H235102   6.008   0.165   1.672
 4515TIP3   OH235103   6.096   0.092   1.781
 4515TIP3    H135104   6.193   0.081   1.778
 4515TIP3    H235105   6.085   0.019   1.843
 4516TIP3   OH235106   5.996   1.771   0.063
 4516TIP3    H135107   5.953   1.787   0.149
 4516TIP3    H235108   6.056   1.699   0.081
 4517TIP3   OH235109   6.963   7.358   1.806
 4517TIP3    H135110   6.961   7.301   1.887
 4517TIP3    H235111   7.049   7.328   1.778
 4518TIP3   OH235112   7.263   1.608   1.694
 4518TIP3    H135113   7.197   1.600   1.622
 4518TIP3    H235114   7.266   1.706   1.700
 4519TIP3   OH235115   1.186   2.892   0.679
 4519TIP3    H135116   1.185   2.989   0.675
 4519TIP3    H235117   1.114   2.868   0.619
 4520TIP3   OH235118   1.072   2.817   1.029
 4520TIP3    H135119   1.070   2.752   1.100
 4520TIP3    H235120   1.038   2.767   0.953
 4521TIP3   OH235121   0.311   2.783   1.181
 4521TIP3    H135122   0.318   2.716   1.252
 4521TIP3    H235123   0.383   2.843   1.208
 4522TIP3   OH235124   1.441   3.112   0.857
 4522TIP3    H135125   1.399   3.040   0.906
 4522TIP3    H235126   1.443   3.183   0.924
 4523TIP3   OH235127   0.400   3.227   1.037
 4523TIP3    H135128   0.368   3.142   1.002
 4523TIP3    H235129   0.496   3.210   1.039
 4524TIP3   OH235130   0.089   2.585   0.544
 4524TIP3    H135131   0.044   2.666   0.578
 4524TIP3    H235132   0.012   2.530   0.540
 4525TIP3   OH235133   0.131   2.801   0.793
 4525TIP3    H135134   0.161   2.725   0.846
 4525TIP3    H235135   0.206   2.818   0.733
 4526TIP3   OH235136   1.151   3.627   0.880
 4526TIP3    H135137   1.217   3.558   0.853
 4526TIP3    H235138   1.132   3.595   0.968
 4527TIP3   OH235139   0.909   3.057   1.075
 4527TIP3    H135140   0.943   2.994   1.010
 4527TIP3    H235141   0.990   3.073   1.128
 4528TIP3   OH235142   1.770   2.223   1.149
 4528TIP3    H135143   1.787   2.282   1.225
 4528TIP3    H235144   1.826   2.265   1.082
 4529TIP3   OH235145   1.226   2.503   1.108
 4529TIP3    H135146   1.243   2.408   1.107
 4529TIP3    H235147   1.216   2.518   1.012
 4530TIP3   OH235148   0.539   2.312   0.830
 4530TIP3    H135149   0.549   2.396   0.781
 4530TIP3    H235150   0.499   2.255   0.761
 4531TIP3   OH235151   1.312   2.321   0.666
 4531TIP3    H135152   1.377   2.290   0.733
 4531TIP3    H235153   1.368   2.378   0.611
 4532TIP3   OH235154   0.197   2.546   0.897
 4532TIP3    H135155   0.270   2.498   0.944
 4532TIP3    H235156   0.214   2.518   0.807
 4533TIP3   OH235157   0.716   2.709   0.833
 4533TIP3    H135158   0.783   2.651   0.874
 4533TIP3    H235159   0.664   2.643   0.784
 4534TIP3   OH235160   1.815   2.364   1.376
 4534TIP3    H135161   1.752   2.439   1.366
 4534TIP3    H235162   1.818   2.355   1.472
 4535TIP3   OH235163   0.430   2.202   1.230
 4535TIP3    H135164   0.401   2.260   1.158
 4535TIP3    H235165   0.364   2.225   1.300
 4536TIP3   OH235166   1.157   3.151   0.588
 4536TIP3    H135167   1.131   3.123   0.499
 4536TIP3    H235168   1.127   3.244   0.592
 4537TIP3   OH235169   0.682   2.967   1.255
 4537TIP3    H135170   0.610   3.031   1.279
 4537TIP3    H235171   0.752   3.028   1.228
 4538TIP3   OH235172   1.493   2.257   0.865
 4538TIP3    H135173   1.471   2.179   0.918
 4538TIP3    H235174   1.560   2.299   0.921
 4539TIP3   OH235175   0.381   2.389   1.033
 4539TIP3    H135176   0.445   2.455   1.069
 4539TIP3    H235177   0.438   2.347   0.963
 4540TIP3   OH235178   0.523   3.166   1.339
 4540TIP3    H135179   0.519   3.258   1.306
 4540TIP3    H235180   0.435   3.158   1.382
 4541TIP3   OH235181   0.129   3.133   0.416
 4541TIP3    H135182   0.111   3.164   0.325
 4541TIP3    H235183   0.141   3.214   0.468
 4542TIP3   OH235184   1.494   3.295   1.094
 4542TIP3    H135185   1.397   3.306   1.106
 4542TIP3    H235186   1.521   3.387   1.075
 4543TIP3   OH235187   1.525   2.127   1.236
 4543TIP3    H135188   1.450   2.187   1.225
 4543TIP3    H235189   1.595   2.167   1.181
 4544TIP3   OH235190   0.824   1.935   0.982
 4544TIP3    H135191   0.812   1.839   0.968
 4544TIP3    H235192   0.735   1.964   1.009
 4545TIP3   OH235193   1.320   3.474   0.753
 4545TIP3    H135194   1.362   3.402   0.702
 4545TIP3    H235195   1.362   3.553   0.714
 4546TIP3   OH235196   1.440   3.266   0.604
 4546TIP3    H135197   1.411   3.197   0.543
 4546TIP3    H235198   1.444   3.217   0.688
 4547TIP3   OH235199   1.604   3.126   1.454
 4547TIP3    H135200   1.617   3.060   1.382
 4547TIP3    H235201   1.624   3.211   1.410
 4548TIP3   OH235202   1.051   2.816   0.429
 4548TIP3    H135203   0.982   2.873   0.391
 4548TIP3    H235204   1.122   2.824   0.363
 4549TIP3   OH235205   1.056   2.668   0.138
 4549TIP3    H135206   1.130   2.668   0.202
 4549TIP3    H235207   1.089   2.604   0.074
 4550TIP3   OH235208   1.791   2.757   1.259
 4550TIP3    H135209   1.725   2.829   1.263
 4550TIP3    H235210   1.840   2.780   1.178
 4551TIP3   OH235211   1.396   2.837   0.525
 4551TIP3    H135212   1.321   2.861   0.585
 4551TIP3    H235213   1.443   2.769   0.575
 4552TIP3   OH235214   1.389   2.652   1.435
 4552TIP3    H135215   1.391   2.733   1.490
 4552TIP3    H235216   1.326   2.683   1.366
 4553TIP3   OH235217   0.560   2.903   0.714
 4553TIP3    H135218   0.524   2.863   0.631
 4553TIP3    H235219   0.620   2.833   0.748
 4554TIP3   OH235220   0.690   3.241   0.982
 4554TIP3    H135221   0.689   3.188   0.902
 4554TIP3    H235222   0.768   3.205   1.028
 4555TIP3   OH235223   0.593   2.777   1.079
 4555TIP3    H135224   0.648   2.788   0.999
 4555TIP3    H235225   0.629   2.844   1.142
 4556TIP3   OH235226   1.232   3.334   1.152
 4556TIP3    H135227   1.202   3.398   1.217
 4556TIP3    H235228   1.206   3.248   1.193
 4557TIP3   OH235229   0.685   3.218   1.554
 4557TIP3    H135230   0.647   3.298   1.596
 4557TIP3    H235231   0.621   3.200   1.481
 4558TIP3   OH235232   1.284   2.754   0.291
 4558TIP3    H135233   1.339   2.774   0.370
 4558TIP3    H235234   1.325   2.808   0.220
 4559TIP3   OH235235   0.379   2.837   1.468
 4559TIP3    H135236   0.383   2.905   1.538
 4559TIP3    H235237   0.286   2.845   1.444
 4560TIP3   OH235238   1.055   3.427   0.638
 4560TIP3    H135239   1.099   3.459   0.717
 4560TIP3    H235240   1.001   3.502   0.612
 4561TIP3   OH235241   0.511   3.421   1.624
 4561TIP3    H135242   0.506   3.412   1.527
 4561TIP3    H235243   0.417   3.409   1.649
 4562TIP3   OH235244   1.655   1.929   0.278
 4562TIP3    H135245   1.561   1.941   0.304
 4562TIP3    H235246   1.677   2.014   0.238
 4563TIP3   OH235247   0.457   2.805   0.474
 4563TIP3    H135248   0.428   2.882   0.423
 4563TIP3    H235249   0.391   2.739   0.453
 4564TIP3   OH235250   1.766   3.362   0.115
 4564TIP3    H135251   1.779   3.458   0.128
 4564TIP3    H235252   1.860   3.336   0.110
 4565TIP3   OH235253   0.122   3.034   1.339
 4565TIP3    H135254   0.044   3.046   1.281
 4565TIP3    H235255   0.084   2.956   1.386
 4566TIP3   OH235256   0.069   3.342   1.016
 4566TIP3    H135257   0.152   3.303   1.044
 4566TIP3    H235258   0.042   3.390   1.096
 4567TIP3   OH235259   1.864   3.392   1.609
 4567TIP3    H135260   1.852   3.296   1.611
 4567TIP3    H235261   1.779   3.418   1.652
 4568TIP3   OH235262   0.962   3.343   1.502
 4568TIP3    H135263   0.964   3.429   1.550
 4568TIP3    H235264   0.872   3.311   1.520
 4569TIP3   OH235265   0.998   3.720   0.478
 4569TIP3    H135266   0.997   3.713   0.381
 4569TIP3    H235267   1.009   3.816   0.493
 4570TIP3   OH235268   0.367   3.610   0.660
 4570TIP3    H135269   0.380   3.566   0.747
 4570TIP3    H235270   0.284   3.564   0.635
 4571TIP3   OH235271   1.306   3.640   0.174
 4571TIP3    H135272   1.353   3.564   0.133
 4571TIP3    H235273   1.313   3.615   0.269
 4572TIP3   OH235274   1.278   3.634   0.454
 4572TIP3    H135275   1.182   3.641   0.473
 4572TIP3    H235276   1.304   3.560   0.511
 4573TIP3   OH235277   1.578   2.535   1.655
 4573TIP3    H135278   1.533   2.585   1.587
 4573TIP3    H235279   1.580   2.443   1.626
 4574TIP3   OH235280   0.293   3.187   1.465
 4574TIP3    H135281   0.312   3.142   1.549
 4574TIP3    H235282   0.210   3.141   1.437
 4575TIP3   OH235283   0.562   2.026   1.054
 4575TIP3    H135284   0.471   2.015   1.018
 4575TIP3    H235285   0.548   2.109   1.104
 4576TIP3   OH235286   1.345   2.373   1.478
 4576TIP3    H135287   1.302   2.359   1.563
 4576TIP3    H235288   1.337   2.469   1.460
 4577TIP3   OH235289   1.436   2.864   0.072
 4577TIP3    H135290   1.437   2.846  -0.024
 4577TIP3    H235291   1.523   2.906   0.083
 4578TIP3   OH235292   0.989   2.250   0.125
 4578TIP3    H135293   0.957   2.245   0.217
 4578TIP3    H235294   0.961   2.162   0.096
 4579TIP3   OH235295   0.566   2.523   1.175
 4579TIP3    H135296   0.500   2.522   1.246
 4579TIP3    H235297   0.566   2.616   1.143
 4580TIP3   OH235298   0.568   2.537   0.666
 4580TIP3    H135299   0.475   2.510   0.652
 4580TIP3    H235300   0.606   2.506   0.581
 4581TIP3   OH235301   1.119   2.584   0.541
 4581TIP3    H135302   1.078   2.668   0.509
 4581TIP3    H235303   1.188   2.569   0.474
 4582TIP3   OH235304   1.025   2.603   1.691
 4582TIP3    H135305   0.970   2.529   1.722
 4582TIP3    H235306   1.109   2.592   1.738
 4583TIP3   OH235307   1.222   2.534   0.828
 4583TIP3    H135308   1.194   2.590   0.754
 4583TIP3    H235309   1.232   2.449   0.781
 4584TIP3   OH235310   0.336   2.547   1.350
 4584TIP3    H135311   0.337   2.589   1.438
 4584TIP3    H235312   0.285   2.467   1.367
 4585TIP3   OH235313   0.687   2.310   0.064
 4585TIP3    H135314   0.633   2.248   0.117
 4585TIP3    H235315   0.625   2.346   0.001
 4586TIP3   OH235316   0.032   2.291   0.726
 4586TIP3    H135317   0.067   2.258   0.812
 4586TIP3    H235318   0.051   2.215   0.670
 4587TIP3   OH235319   0.128   2.345   0.281
 4587TIP3    H135320   0.181   2.399   0.219
 4587TIP3    H235321   0.056   2.401   0.305
 4588TIP3   OH235322   1.142   2.692   1.287
 4588TIP3    H135323   1.179   2.626   1.225
 4588TIP3    H235324   1.094   2.637   1.351
 4589TIP3   OH235325   0.821   2.294   0.768
 4589TIP3    H135326   0.728   2.291   0.797
 4589TIP3    H235327   0.870   2.272   0.849
 4590TIP3   OH235328   0.305   2.445   0.653
 4590TIP3    H135329   0.218   2.462   0.614
 4590TIP3    H235330   0.329   2.360   0.613
 4591TIP3   OH235331   0.667   2.452   0.417
 4591TIP3    H135332   0.762   2.462   0.433
 4591TIP3    H235333   0.643   2.517   0.349
 4592TIP3   OH235334   1.263   2.213   1.092
 4592TIP3    H135335   1.194   2.221   1.162
 4592TIP3    H235336   1.211   2.187   1.014
 4593TIP3   OH235337   0.538   2.567   0.176
 4593TIP3    H135338   0.483   2.533   0.104
 4593TIP3    H235339   0.620   2.589   0.129
 4594TIP3   OH235340   1.583   3.778   1.725
 4594TIP3    H135341   1.612   3.816   1.639
 4594TIP3    H235342   1.656   3.805   1.784
 4595TIP3   OH235343   0.348   3.023   1.681
 4595TIP3    H135344   0.421   3.050   1.738
 4595TIP3    H235345   0.271   3.038   1.739
 4596TIP3   OH235346   0.949   2.565   0.957
 4596TIP3    H135347   1.010   2.512   0.903
 4596TIP3    H235348   0.935   2.511   1.036
 4597TIP3   OH235349   0.450   2.181   0.600
 4597TIP3    H135350   0.420   2.089   0.598
 4597TIP3    H235351   0.530   2.174   0.546
 4598TIP3   OH235352   0.816   2.401   1.197
 4598TIP3    H135353   0.732   2.449   1.208
 4598TIP3    H235354   0.869   2.433   1.272
 4599TIP3   OH235355   0.874   3.020   0.369
 4599TIP3    H135356   0.794   2.974   0.336
 4599TIP3    H235357   0.851   3.031   0.464
 4600TIP3   OH235358   1.591   2.941   1.248
 4600TIP3    H135359   1.648   2.989   1.185
 4600TIP3    H235360   1.505   2.946   1.201
 4601TIP3   OH235361   1.261   2.302   0.185
 4601TIP3    H135362   1.166   2.316   0.169
 4601TIP3    H235363   1.290   2.389   0.217
 4602TIP3   OH235364   1.023   3.048   1.489
 4602TIP3    H135365   0.986   3.005   1.567
 4602TIP3    H235366   0.996   3.139   1.500
 4603TIP3   OH235367   1.330   2.495   0.353
 4603TIP3    H135368   1.420   2.481   0.388
 4603TIP3    H235369   1.339   2.575   0.300
 4604TIP3   OH235370   0.383   2.960   0.946
 4604TIP3    H135371   0.452   2.953   0.878
 4604TIP3    H235372   0.393   2.876   0.994
 4605TIP3   OH235373   1.083   3.168   0.273
 4605TIP3    H135374   1.047   3.252   0.307
 4605TIP3    H235375   1.009   3.106   0.291
 4606TIP3   OH235376   0.080   2.799   1.474
 4606TIP3    H135377   0.105   2.755   1.557
 4606TIP3    H235378   0.021   2.736   1.431
 4607TIP3   OH235379   0.785   2.759   1.692
 4607TIP3    H135380   0.752   2.727   1.606
 4607TIP3    H235381   0.876   2.725   1.690
 4608TIP3   OH235382   1.252   3.291   1.490
 4608TIP3    H135383   1.160   3.308   1.462
 4608TIP3    H235384   1.248   3.316   1.582
 4609TIP3   OH235385   1.819   2.508   0.327
 4609TIP3    H135386   1.763   2.477   0.254
 4609TIP3    H235387   1.828   2.602   0.299
 4610TIP3   OH235388   1.819   3.094   1.608
 4610TIP3    H135389   1.730   3.116   1.570
 4610TIP3    H235390   1.873   3.089   1.526
 4611TIP3   OH235391   1.645   3.391   0.364
 4611TIP3    H135392   1.613   3.307   0.398
 4611TIP3    H235393   1.680   3.371   0.275
 4612TIP3   OH235394   1.369   2.873   1.076
 4612TIP3    H135395   1.275   2.852   1.065
 4612TIP3    H235396   1.412   2.797   1.033
 4613TIP3   OH235397   0.619   3.305   0.688
 4613TIP3    H135398   0.672   3.383   0.666
 4613TIP3    H235399   0.532   3.327   0.654
 4614TIP3   OH235400   0.189   2.789   0.143
 4614TIP3    H135401   0.257   2.852   0.177
 4614TIP3    H235402   0.107   2.825   0.175
 4615TIP3   OH235403   0.763   3.072   0.639
 4615TIP3    H135404   0.732   3.164   0.646
 4615TIP3    H235405   0.690   3.024   0.682
 4616TIP3   OH235406   0.809   3.490   1.277
 4616TIP3    H135407   0.853   3.572   1.250
 4616TIP3    H235408   0.869   3.457   1.346
 4617TIP3   OH235409   0.630   3.576   0.586
 4617TIP3    H135410   0.534   3.582   0.607
 4617TIP3    H235411   0.669   3.652   0.632
 4618TIP3   OH235412   1.162   3.093   1.240
 4618TIP3    H135413   1.127   3.072   1.328
 4618TIP3    H235414   1.225   3.020   1.224
 4619TIP3   OH235415   1.389   3.194   0.152
 4619TIP3    H135416   1.420   3.150   0.234
 4619TIP3    H235417   1.293   3.179   0.160
 4620TIP3   OH235418   1.437   3.551   1.493
 4620TIP3    H135419   1.374   3.499   1.440
 4620TIP3    H235420   1.461   3.619   1.426
 4621TIP3   OH235421   1.827   3.640   0.163
 4621TIP3    H135422   1.909   3.694   0.155
 4621TIP3    H235423   1.766   3.702   0.206
 4622TIP3   OH235424   0.248   2.275   1.425
 4622TIP3    H135425   0.159   2.312   1.432
 4622TIP3    H235426   0.237   2.191   1.473
 4623TIP3   OH235427   1.472   3.060   0.374
 4623TIP3    H135428   1.448   2.981   0.426
 4623TIP3    H235429   1.567   3.067   0.395
 4624TIP3   OH235430   0.223   3.460   1.268
 4624TIP3    H135431   0.236   3.364   1.272
 4624TIP3    H235432   0.235   3.481   1.360
 4625TIP3   OH235433   0.685   3.261   0.242
 4625TIP3    H135434   0.710   3.206   0.317
 4625TIP3    H235435   0.692   3.352   0.277
 4626TIP3   OH235436   0.331   2.984   0.289
 4626TIP3    H135437   0.264   3.024   0.349
 4626TIP3    H235438   0.387   3.060   0.267
 4627TIP3   OH235439   1.122   2.251   1.322
 4627TIP3    H135440   1.193   2.257   1.387
 4627TIP3    H235441   1.079   2.168   1.345
 4628TIP3   OH235442   1.195   2.212   0.433
 4628TIP3    H135443   1.221   2.258   0.351
 4628TIP3    H235444   1.254   2.253   0.498
 4629TIP3   OH235445   0.965   3.426   0.316
 4629TIP3    H135446   0.883   3.477   0.321
 4629TIP3    H235447   1.019   3.476   0.252
 4630TIP3   OH235448   0.917   2.384   0.514
 4630TIP3    H135449   0.997   2.440   0.517
 4630TIP3    H235450   0.892   2.371   0.607
 4631TIP3   OH235451   0.981   2.489   1.427
 4631TIP3    H135452   0.979   2.541   1.509
 4631TIP3    H235453   1.037   2.414   1.445
 4632TIP3   OH235454   1.004   2.091   0.601
 4632TIP3    H135455   0.972   2.153   0.668
 4632TIP3    H235456   1.075   2.143   0.559
 4633TIP3   OH235457   0.700   3.530   0.317
 4633TIP3    H135458   0.719   3.611   0.266
 4633TIP3    H235459   0.678   3.563   0.407
 4634TIP3   OH235460   0.571   2.198   0.277
 4634TIP3    H135461   0.563   2.290   0.311
 4634TIP3    H235462   0.662   2.177   0.305
 4635TIP3   OH235463   1.591   2.272   1.519
 4635TIP3    H135464   1.499   2.304   1.505
 4635TIP3    H235465   1.624   2.272   1.427
 4636TIP3   OH235466   1.453   2.652   0.920
 4636TIP3    H135467   1.371   2.608   0.892
 4636TIP3    H235468   1.501   2.583   0.972
 4637TIP3   OH235469   0.392   3.247   0.178
 4637TIP3    H135470   0.459   3.309   0.211
 4637TIP3    H235471   0.444   3.198   0.112
 4638TIP3   OH235472   0.231   2.513   0.101
 4638TIP3    H135473   0.229   2.609   0.111
 4638TIP3    H235474   0.146   2.489   0.062
 4639TIP3   OH235475   1.559   3.578   1.087
 4639TIP3    H135476   1.550   3.646   1.018
 4639TIP3    H235477   1.656   3.583   1.104
 4640TIP3   OH235478   0.310   1.989   0.964
 4640TIP3    H135479   0.289   1.992   0.869
 4640TIP3    H235480   0.267   1.906   0.992
 4641TIP3   OH235481   0.206   3.383   0.583
 4641TIP3    H135482   0.120   3.426   0.579
 4641TIP3    H235483   0.253   3.428   0.512
 4642TIP3   OH235484   0.591   3.535   1.871
 4642TIP3    H135485   0.671   3.493   1.906
 4642TIP3    H235486   0.591   3.513   1.776
 4643TIP3   OH235487   1.042   3.496   0.068
 4643TIP3    H135488   0.958   3.447   0.059
 4643TIP3    H235489   1.091   3.450   0.000
 4644TIP3   OH235490   1.464   3.468   0.031
 4644TIP3    H135491   1.489   3.387   0.079
 4644TIP3    H235492   1.543   3.489  -0.022
 4645TIP3   OH235493   0.114   3.020   1.812
 4645TIP3    H135494   0.136   2.933   1.773
 4645TIP3    H235495   0.045   3.053   1.752
 4646TIP3   OH235496   0.560   3.066   0.026
 4646TIP3    H135497   0.565   2.983   0.072
 4646TIP3    H235498   0.616   3.043  -0.051
 4647TIP3   OH235499   0.797   3.025   1.746
 4647TIP3    H135500   0.753   3.055   1.664
 4647TIP3    H235501   0.796   2.927   1.735
 4648TIP3   OH235502   1.357   3.011   1.490
 4648TIP3    H135503   1.437   3.068   1.479
 4648TIP3    H235504   1.287   3.077   1.490
 4649TIP3   OH235505   0.200   2.748   1.749
 4649TIP3    H135506   0.248   2.663   1.736
 4649TIP3    H235507   0.184   2.745   1.844
 4650TIP3   OH235508   0.672   2.863   0.253
 4650TIP3    H135509   0.622   2.810   0.317
 4650TIP3    H235510   0.702   2.793   0.190
 4651TIP3   OH235511   0.598   2.644   1.486
 4651TIP3    H135512   0.536   2.714   1.510
 4651TIP3    H235513   0.636   2.677   1.403
 4652TIP3   OH235514   0.778   2.685   0.074
 4652TIP3    H135515   0.767   2.665  -0.019
 4652TIP3    H235516   0.876   2.692   0.084
 4653TIP3   OH235517   1.699   2.928   8.525
 4653TIP3    H135518   1.688   2.878   8.442
 4653TIP3    H235519   1.720   3.018   8.498
 4654TIP3   OH235520   0.680   2.215   1.344
 4654TIP3    H135521   0.730   2.263   1.275
 4654TIP3    H235522   0.590   2.208   1.306
 4655TIP3   OH235523   0.833   2.767   1.370
 4655TIP3    H135524   0.908   2.748   1.312
 4655TIP3    H235525   0.796   2.849   1.335
 4656TIP3   OH235526   1.273   2.544   1.865
 4656TIP3    H135527   1.297   2.451   1.862
 4656TIP3    H235528   1.361   2.588   1.868
 4657TIP3   OH235529   1.402   2.819   1.673
 4657TIP3    H135530   1.382   2.896   1.617
 4657TIP3    H235531   1.499   2.820   1.666
 4658TIP3   OH235532   0.482   2.509   1.779
 4658TIP3    H135533   0.407   2.446   1.767
 4658TIP3    H235534   0.549   2.471   1.722
 4659TIP3   OH235535   0.305   2.296   1.757
 4659TIP3    H135536   0.320   2.221   1.697
 4659TIP3    H235537   0.293   2.251   1.844
 4660TIP3   OH235538   0.766   1.881   1.646
 4660TIP3    H135539   0.845   1.824   1.651
 4660TIP3    H235540   0.765   1.915   1.557
 4661TIP3   OH235541   0.761   3.757   0.180
 4661TIP3    H135542   0.860   3.762   0.188
 4661TIP3    H235543   0.746   3.818   0.108
 4662TIP3   OH235544   0.124   3.211   0.128
 4662TIP3    H135545   0.219   3.222   0.151
 4662TIP3    H235546   0.125   3.152   0.053
 4663TIP3   OH235547   7.338   3.766   0.613
 4663TIP3    H135548   7.249   3.743   0.577
 4663TIP3    H235549   7.346   3.699   0.684
 4664TIP3   OH235550   0.075   3.568   0.811
 4664TIP3    H135551   0.047   3.476   0.831
 4664TIP3    H235552   0.108   3.593   0.899
 4665TIP3   OH235553   1.831   3.643   1.108
 4665TIP3    H135554   1.835   3.660   1.203
 4665TIP3    H235555   1.902   3.700   1.075
 4666TIP3   OH235556   1.790   3.602   1.401
 4666TIP3    H135557   1.742   3.525   1.364
 4666TIP3    H235558   1.839   3.557   1.472
 4667TIP3   OH235559   1.631   3.179   1.862
 4667TIP3    H135560   1.549   3.165   1.909
 4667TIP3    H235561   1.674   3.252   1.913
 4668TIP3   OH235562   1.766   3.006   0.411
 4668TIP3    H135563   1.851   3.047   0.432
 4668TIP3    H235564   1.763   2.935   0.479
 4669TIP3   OH235565   1.801   2.813   0.599
 4669TIP3    H135566   1.726   2.763   0.639
 4669TIP3    H235567   1.861   2.829   0.675
 4670TIP3   OH235568   1.777   3.084   1.098
 4670TIP3    H135569   1.859   3.047   1.061
 4670TIP3    H235570   1.791   3.180   1.082
 4671TIP3   OH235571   1.632   3.375   1.325
 4671TIP3    H135572   1.563   3.408   1.385
 4671TIP3    H235573   1.578   3.334   1.254
 4672TIP3   OH235574   1.830   2.796   0.237
 4672TIP3    H135575   1.772   2.833   0.168
 4672TIP3    H235576   1.824   2.867   0.305
 4673TIP3   OH235577   1.631   2.523   0.100
 4673TIP3    H135578   1.675   2.582   0.037
 4673TIP3    H235579   1.649   2.439   0.054
 4674TIP3   OH235580   1.583   2.662   0.657
 4674TIP3    H135581   1.568   2.566   0.653
 4674TIP3    H235582   1.550   2.684   0.746
 4675TIP3   OH235583   0.086   2.869   1.055
 4675TIP3    H135584   0.105   2.864   0.960
 4675TIP3    H235585   0.173   2.857   1.097
 4676TIP3   OH235586   1.667   2.858   1.623
 4676TIP3    H135587   1.727   2.783   1.644
 4676TIP3    H235588   1.727   2.936   1.626
 4677TIP3   OH235589   1.821   2.648   1.685
 4677TIP3    H135590   1.731   2.608   1.679
 4677TIP3    H235591   1.876   2.569   1.685
 4678TIP3   OH235592   1.593   2.261   0.001
 4678TIP3    H135593   1.651   2.221   0.069
 4678TIP3    H235594   1.505   2.228   0.022
 4679TIP3   OH235595   1.550   2.420   0.504
 4679TIP3    H135596   1.581   2.327   0.515
 4679TIP3    H235597   1.628   2.461   0.464
 4680TIP3   OH235598   1.613   2.475   1.047
 4680TIP3    H135599   1.709   2.498   1.045
 4680TIP3    H235600   1.594   2.489   1.141
 4681TIP3   OH235601   1.620   2.547   1.323
 4681TIP3    H135602   1.534   2.577   1.358
 4681TIP3    H235603   1.664   2.633   1.302
 4682TIP3   OH235604   0.072   2.388   1.674
 4682TIP3    H135605   0.159   2.370   1.710
 4682TIP3    H235606   0.014   2.320   1.718
 4683TIP3   OH235607   1.855   1.953   1.862
 4683TIP3    H135608   1.881   1.884   1.797
 4683TIP3    H235609   1.857   2.032   1.805
 4684TIP3   OH235610   1.617   2.148   0.507
 4684TIP3    H135611   1.637   2.104   0.593
 4684TIP3    H235612   1.556   2.085   0.463
 4685TIP3   OH235613   0.169   2.225   0.959
 4685TIP3    H135614   0.215   2.146   0.991
 4685TIP3    H235615   0.219   2.297   1.003
 4686TIP3   OH235616   0.051   2.602   1.102
 4686TIP3    H135617   0.052   2.560   1.014
 4686TIP3    H235618   0.059   2.694   1.075
 4687TIP3   OH235619   1.801   2.159   1.698
 4687TIP3    H135620   1.707   2.188   1.689
 4687TIP3    H235621   1.806   2.109   1.615
 4688TIP3   OH235622   1.798   2.154   0.163
 4688TIP3    H135623   1.841   2.083   0.113
 4688TIP3    H235624   1.871   2.219   0.165
 4689TIP3   OH235625   0.077   2.154   0.437
 4689TIP3    H135626  -0.018   2.170   0.444
 4689TIP3    H235627   0.100   2.225   0.374
 4690TIP3   OH235628   1.503   3.652   0.668
 4690TIP3    H135629   1.573   3.620   0.607
 4690TIP3    H235630   1.557   3.700   0.732
 4691TIP3   OH235631   7.356   2.018   1.323
 4691TIP3    H135632   7.277   1.998   1.375
 4691TIP3    H235633   7.308   2.071   1.257
 4692TIP3   OH235634   0.246   3.345   1.723
 4692TIP3    H135635   0.161   3.362   1.680
 4692TIP3    H235636   0.218   3.335   1.814
 4693TIP3   OH235637   0.541   3.443   1.349
 4693TIP3    H135638   0.501   3.527   1.319
 4693TIP3    H235639   0.632   3.453   1.317
 4694TIP3   OH235640   0.972   3.580   1.637
 4694TIP3    H135641   0.985   3.552   1.729
 4694TIP3    H235642   1.060   3.618   1.616
 4695TIP3   OH235643   1.200   3.709   1.568
 4695TIP3    H135644   1.275   3.652   1.542
 4695TIP3    H235645   1.238   3.753   1.646
 4696TIP3   OH235646   1.703   1.973   1.479
 4696TIP3    H135647   1.619   2.001   1.438
 4696TIP3    H235648   1.720   1.891   1.427
 4697TIP3   OH235649   0.285   3.768   1.351
 4697TIP3    H135650   0.210   3.815   1.309
 4697TIP3    H235651   0.248   3.745   1.437
 4698TIP3   OH235652   0.529   3.724   1.255
 4698TIP3    H135653   0.439   3.736   1.293
 4698TIP3    H235654   0.523   3.782   1.177
 4699TIP3   OH235655   0.999   3.715   1.171
 4699TIP3    H135656   0.953   3.770   1.107
 4699TIP3    H235657   1.012   3.778   1.245
 4700TIP3   OH235658   1.228   3.597   1.273
 4700TIP3    H135659   1.142   3.623   1.236
 4700TIP3    H235660   1.276   3.681   1.263
 4701TIP3   OH235661   1.485   3.753   1.297
 4701TIP3    H135662   1.479   3.849   1.274
 4701TIP3    H235663   1.508   3.716   1.210
 4702TIP3   OH235664   0.220   3.629   1.040
 4702TIP3    H135665   0.225   3.584   1.127
 4702TIP3    H235666   0.303   3.595   1.001
 4703TIP3   OH235667   0.433   3.503   0.906
 4703TIP3    H135668   0.416   3.409   0.929
 4703TIP3    H235669   0.519   3.516   0.953
 4704TIP3   OH235670   0.694   3.550   0.993
 4704TIP3    H135671   0.711   3.458   0.967
 4704TIP3    H235672   0.700   3.545   1.090
 4705TIP3   OH235673   1.042   2.118   0.911
 4705TIP3    H135674   0.974   2.052   0.935
 4705TIP3    H235675   1.095   2.064   0.850
 4706TIP3   OH235676   1.555   1.921   0.916
 4706TIP3    H135677   1.615   1.980   0.864
 4706TIP3    H235678   1.465   1.954   0.892
 4707TIP3   OH235679   1.721   2.044   0.744
 4707TIP3    H135680   1.790   1.987   0.701
 4707TIP3    H235681   1.771   2.128   0.753
 4708TIP3   OH235682   0.277   1.977   0.695
 4708TIP3    H135683   0.200   1.956   0.639
 4708TIP3    H235684   0.327   1.893   0.687
 4709TIP3   OH235685   0.160   1.950   0.270
 4709TIP3    H135686   0.204   2.015   0.211
 4709TIP3    H235687   0.098   2.009   0.317
 4710TIP3   OH235688   0.722   1.977   0.674
 4710TIP3    H135689   0.816   2.001   0.664
 4710TIP3    H235690   0.723   1.945   0.764
 4711TIP3   OH235691   1.298   1.974   0.833
 4711TIP3    H135692   1.289   1.981   0.738
 4711TIP3    H235693   1.258   1.884   0.850
 4712TIP3   OH235694   1.423   1.974   0.401
 4712TIP3    H135695   1.348   2.033   0.386
 4712TIP3    H235696   1.378   1.889   0.424
 4713TIP3   OH235697   0.149   3.551   0.369
 4713TIP3    H135698   0.085   3.548   0.295
 4713TIP3    H235699   0.148   3.646   0.381
 4714TIP3   OH235700   0.336   2.143   0.120
 4714TIP3    H135701   0.389   2.086   0.064
 4714TIP3    H235702   0.404   2.181   0.178
 4715TIP3   OH235703   0.840   2.173   0.356
 4715TIP3    H135704   0.866   2.114   0.430
 4715TIP3    H235705   0.846   2.259   0.405
 4716TIP3   OH235706   1.028   3.705   0.205
 4716TIP3    H135707   1.125   3.706   0.188
 4716TIP3    H235708   1.012   3.634   0.138
 4717TIP3   OH235709   1.701   3.629   0.473
 4717TIP3    H135710   1.685   3.551   0.415
 4717TIP3    H235711   1.698   3.703   0.410
 4718TIP3   OH235712   0.263   2.033   1.640
 4718TIP3    H135713   0.232   1.950   1.681
 4718TIP3    H235714   0.356   2.029   1.674
 4719TIP3   OH235715   0.465   1.963   1.794
 4719TIP3    H135716   0.556   1.933   1.778
 4719TIP3    H235717   0.429   1.890   1.847
 4720TIP3   OH235718   0.335   3.649   0.063
 4720TIP3    H135719   0.300   3.672   0.150
 4720TIP3    H235720   0.407   3.589   0.079
 4721TIP3   OH235721   1.628   3.504   1.682
 4721TIP3    H135722   1.547   3.490   1.628
 4721TIP3    H235723   1.617   3.599   1.702
 4722TIP3   OH235724   3.072   2.891   0.679
 4722TIP3    H135725   3.071   2.989   0.675
 4722TIP3    H235726   2.999   2.868   0.619
 4723TIP3   OH235727   2.957   2.817   1.029
 4723TIP3    H135728   2.956   2.752   1.100
 4723TIP3    H235729   2.923   2.767   0.953
 4724TIP3   OH235730   2.193   2.784   1.184
 4724TIP3    H135731   2.201   2.716   1.254
 4724TIP3    H235732   2.268   2.841   1.206
 4725TIP3   OH235733   3.327   3.112   0.857
 4725TIP3    H135734   3.284   3.040   0.906
 4725TIP3    H235735   3.329   3.183   0.924
 4726TIP3   OH235736   2.286   3.229   1.035
 4726TIP3    H135737   2.254   3.142   1.003
 4726TIP3    H235738   2.381   3.210   1.040
 4727TIP3   OH235739   1.950   2.585   0.583
 4727TIP3    H135740   1.906   2.672   0.578
 4727TIP3    H235741   1.893   2.532   0.526
 4728TIP3   OH235742   2.020   2.806   0.798
 4728TIP3    H135743   2.048   2.724   0.843
 4728TIP3    H235744   2.090   2.817   0.732
 4729TIP3   OH235745   3.038   3.628   0.879
 4729TIP3    H135746   3.103   3.558   0.852
 4729TIP3    H235747   3.017   3.595   0.967
 4730TIP3   OH235748   2.795   3.057   1.075
 4730TIP3    H135749   2.829   2.994   1.010
 4730TIP3    H235750   2.876   3.073   1.128
 4731TIP3   OH235751   3.660   2.221   1.150
 4731TIP3    H135752   3.671   2.282   1.226
 4731TIP3    H235753   3.711   2.268   1.083
 4732TIP3   OH235754   3.112   2.504   1.107
 4732TIP3    H135755   3.128   2.408   1.107
 4732TIP3    H235756   3.102   2.518   1.011
 4733TIP3   OH235757   2.423   2.313   0.829
 4733TIP3    H135758   2.434   2.396   0.780
 4733TIP3    H235759   2.383   2.255   0.760
 4734TIP3   OH235760   3.197   2.321   0.666
 4734TIP3    H135761   3.263   2.290   0.733
 4734TIP3    H235762   3.253   2.378   0.611
 4735TIP3   OH235763   2.086   2.553   0.903
 4735TIP3    H135764   2.153   2.499   0.948
 4735TIP3    H235765   2.096   2.522   0.811
 4736TIP3   OH235766   2.602   2.709   0.834
 4736TIP3    H135767   2.668   2.651   0.874
 4736TIP3    H235768   2.550   2.643   0.784
 4737TIP3   OH235769   3.701   2.363   1.378
 4737TIP3    H135770   3.638   2.439   1.365
 4737TIP3    H235771   3.699   2.351   1.473
 4738TIP3   OH235772   2.313   2.202   1.233
 4738TIP3    H135773   2.286   2.259   1.158
 4738TIP3    H235774   2.246   2.226   1.301
 4739TIP3   OH235775   3.043   3.150   0.588
 4739TIP3    H135776   3.015   3.122   0.500
 4739TIP3    H235777   3.013   3.243   0.592
 4740TIP3   OH235778   2.565   2.967   1.256
 4740TIP3    H135779   2.495   3.031   1.279
 4740TIP3    H235780   2.636   3.027   1.228
 4741TIP3   OH235781   3.376   2.256   0.865
 4741TIP3    H135782   3.354   2.179   0.919
 4741TIP3    H235783   3.443   2.300   0.920
 4742TIP3   OH235784   2.270   2.388   1.036
 4742TIP3    H135785   2.333   2.457   1.068
 4742TIP3    H235786   2.322   2.347   0.963
 4743TIP3   OH235787   2.410   3.167   1.340
 4743TIP3    H135788   2.405   3.258   1.306
 4743TIP3    H235789   2.321   3.159   1.383
 4744TIP3   OH235790   2.015   3.127   0.416
 4744TIP3    H135791   1.996   3.165   0.328
 4744TIP3    H235792   2.026   3.210   0.470
 4745TIP3   OH235793   3.379   3.295   1.094
 4745TIP3    H135794   3.283   3.306   1.106
 4745TIP3    H235795   3.406   3.387   1.075
 4746TIP3   OH235796   3.411   2.124   1.233
 4746TIP3    H135797   3.338   2.187   1.225
 4746TIP3    H235798   3.481   2.167   1.181
 4747TIP3   OH235799   2.709   1.936   0.980
 4747TIP3    H135800   2.695   1.839   0.973
 4747TIP3    H235801   2.621   1.966   1.010
 4748TIP3   OH235802   3.205   3.473   0.754
 4748TIP3    H135803   3.248   3.402   0.703
 4748TIP3    H235804   3.249   3.552   0.715
 4749TIP3   OH235805   3.326   3.266   0.604
 4749TIP3    H135806   3.297   3.197   0.543
 4749TIP3    H235807   3.329   3.217   0.688
 4750TIP3   OH235808   3.488   3.126   1.454
 4750TIP3    H135809   3.503   3.061   1.382
 4750TIP3    H235810   3.508   3.211   1.411
 4751TIP3   OH235811   2.937   2.816   0.429
 4751TIP3    H135812   2.868   2.873   0.391
 4751TIP3    H235813   3.008   2.824   0.363
 4752TIP3   OH235814   2.942   2.668   0.138
 4752TIP3    H135815   3.015   2.668   0.202
 4752TIP3    H235816   2.974   2.604   0.074
 4753TIP3   OH235817   3.677   2.755   1.260
 4753TIP3    H135818   3.611   2.828   1.265
 4753TIP3    H235819   3.725   2.780   1.178
 4754TIP3   OH235820   3.281   2.837   0.525
 4754TIP3    H135821   3.207   2.861   0.585
 4754TIP3    H235822   3.329   2.768   0.575
 4755TIP3   OH235823   3.274   2.652   1.433
 4755TIP3    H135824   3.277   2.733   1.488
 4755TIP3    H235825   3.211   2.683   1.365
 4756TIP3   OH235826   2.444   2.901   0.715
 4756TIP3    H135827   2.411   2.864   0.630
 4756TIP3    H235828   2.505   2.832   0.748
 4757TIP3   OH235829   2.576   3.241   0.983
 4757TIP3    H135830   2.575   3.187   0.902
 4757TIP3    H235831   2.654   3.205   1.028
 4758TIP3   OH235832   2.477   2.777   1.080
 4758TIP3    H135833   2.532   2.787   1.000
 4758TIP3    H235834   2.515   2.843   1.141
 4759TIP3   OH235835   3.117   3.334   1.151
 4759TIP3    H135836   3.089   3.397   1.217
 4759TIP3    H235837   3.092   3.248   1.193
 4760TIP3   OH235838   2.570   3.219   1.554
 4760TIP3    H135839   2.531   3.297   1.598
 4760TIP3    H235840   2.506   3.201   1.481
 4761TIP3   OH235841   3.170   2.754   0.291
 4761TIP3    H135842   3.225   2.774   0.370
 4761TIP3    H235843   3.211   2.808   0.220
 4762TIP3   OH235844   2.265   2.835   1.468
 4762TIP3    H135845   2.269   2.902   1.538
 4762TIP3    H235846   2.172   2.846   1.440
 4763TIP3   OH235847   2.943   3.430   0.636
 4763TIP3    H135848   2.984   3.459   0.718
 4763TIP3    H235849   2.884   3.502   0.613
 4764TIP3   OH235850   2.396   3.420   1.625
 4764TIP3    H135851   2.391   3.413   1.528
 4764TIP3    H235852   2.302   3.412   1.649
 4765TIP3   OH235853   3.541   1.929   0.279
 4765TIP3    H135854   3.446   1.941   0.304
 4765TIP3    H235855   3.563   2.015   0.239
 4766TIP3   OH235856   2.341   2.804   0.475
 4766TIP3    H135857   2.312   2.882   0.423
 4766TIP3    H235858   2.275   2.738   0.453
 4767TIP3   OH235859   3.652   3.362   0.116
 4767TIP3    H135860   3.665   3.458   0.128
 4767TIP3    H235861   3.745   3.335   0.109
 4768TIP3   OH235862   1.950   3.047   1.363
 4768TIP3    H135863   1.904   3.039   1.278
 4768TIP3    H235864   1.956   2.952   1.386
 4769TIP3   OH235865   1.926   3.319   1.046
 4769TIP3    H135866   2.021   3.310   1.040
 4769TIP3    H235867   1.917   3.402   1.095
 4770TIP3   OH235868   3.749   3.391   1.610
 4770TIP3    H135869   3.737   3.295   1.610
 4770TIP3    H235870   3.663   3.417   1.652
 4771TIP3   OH235871   2.845   3.346   1.497
 4771TIP3    H135872   2.850   3.429   1.549
 4771TIP3    H235873   2.759   3.309   1.523
 4772TIP3   OH235874   2.891   3.718   0.477
 4772TIP3    H135875   2.877   3.708   0.380
 4772TIP3    H235876   2.882   3.808   0.505
 4773TIP3   OH235877   2.293   3.612   0.692
 4773TIP3    H135878   2.282   3.562   0.774
 4773TIP3    H235879   2.206   3.588   0.653
 4774TIP3   OH235880   3.190   3.640   0.175
 4774TIP3    H135881   3.238   3.564   0.133
 4774TIP3    H235882   3.201   3.613   0.269
 4775TIP3   OH235883   3.163   3.638   0.456
 4775TIP3    H135884   3.067   3.637   0.473
 4775TIP3    H235885   3.190   3.561   0.510
 4776TIP3   OH235886   3.465   2.538   1.656
 4776TIP3    H135887   3.416   2.584   1.586
 4776TIP3    H235888   3.462   2.445   1.628
 4777TIP3   OH235889   2.178   3.179   1.460
 4777TIP3    H135890   2.198   3.142   1.548
 4777TIP3    H235891   2.091   3.140   1.437
 4778TIP3   OH235892   2.446   2.026   1.055
 4778TIP3    H135893   2.355   2.014   1.018
 4778TIP3    H235894   2.433   2.109   1.103
 4779TIP3   OH235895   2.910   1.993   1.391
 4779TIP3    H135896   2.949   1.951   1.471
 4779TIP3    H235897   2.813   1.980   1.405
 4780TIP3   OH235898   3.236   2.376   1.477
 4780TIP3    H135899   3.183   2.356   1.559
 4780TIP3    H235900   3.222   2.470   1.459
 4781TIP3   OH235901   3.321   2.864   0.071
 4781TIP3    H135902   3.323   2.845  -0.024
 4781TIP3    H235903   3.408   2.906   0.083
 4782TIP3   OH235904   2.875   2.250   0.125
 4782TIP3    H135905   2.843   2.245   0.217
 4782TIP3    H235906   2.847   2.162   0.096
 4783TIP3   OH235907   2.456   2.523   1.180
 4783TIP3    H135908   2.382   2.522   1.243
 4783TIP3    H235909   2.451   2.614   1.143
 4784TIP3   OH235910   2.452   2.536   0.666
 4784TIP3    H135911   2.358   2.510   0.653
 4784TIP3    H235912   2.490   2.506   0.581
 4785TIP3   OH235913   3.004   2.584   0.541
 4785TIP3    H135914   2.964   2.668   0.509
 4785TIP3    H235915   3.074   2.569   0.474
 4786TIP3   OH235916   2.912   2.605   1.684
 4786TIP3    H135917   2.857   2.530   1.718
 4786TIP3    H235918   2.994   2.594   1.736
 4787TIP3   OH235919   3.107   2.534   0.828
 4787TIP3    H135920   3.080   2.590   0.754
 4787TIP3    H235921   3.117   2.449   0.781
 4788TIP3   OH235922   2.219   2.549   1.349
 4788TIP3    H135923   2.226   2.589   1.437
 4788TIP3    H235924   2.174   2.465   1.369
 4789TIP3   OH235925   2.573   2.310   0.065
 4789TIP3    H135926   2.518   2.247   0.117
 4789TIP3    H235927   2.511   2.346   0.001
 4790TIP3   OH235928   1.884   2.260   0.746
 4790TIP3    H135929   1.952   2.256   0.816
 4790TIP3    H235930   1.929   2.222   0.668
 4791TIP3   OH235931   2.014   2.333   0.283
 4791TIP3    H135932   2.062   2.392   0.223
 4791TIP3    H235933   1.944   2.394   0.315
 4792TIP3   OH235934   3.027   2.693   1.284
 4792TIP3    H135935   3.065   2.625   1.225
 4792TIP3    H235936   2.981   2.640   1.351
 4793TIP3   OH235937   2.708   2.290   0.767
 4793TIP3    H135938   2.614   2.291   0.796
 4793TIP3    H235939   2.756   2.274   0.849
 4794TIP3   OH235940   2.189   2.446   0.654
 4794TIP3    H135941   2.100   2.461   0.615
 4794TIP3    H235942   2.217   2.362   0.613
 4795TIP3   OH235943   2.552   2.452   0.417
 4795TIP3    H135944   2.648   2.462   0.434
 4795TIP3    H235945   2.530   2.517   0.348
 4796TIP3   OH235946   3.148   2.213   1.091
 4796TIP3    H135947   3.080   2.219   1.161
 4796TIP3    H235948   3.097   2.189   1.012
 4797TIP3   OH235949   2.422   2.567   0.176
 4797TIP3    H135950   2.367   2.532   0.104
 4797TIP3    H235951   2.505   2.589   0.130
 4798TIP3   OH235952   3.468   3.778   1.724
 4798TIP3    H135953   3.497   3.817   1.640
 4798TIP3    H235954   3.539   3.810   1.784
 4799TIP3   OH235955   2.237   3.022   1.679
 4799TIP3    H135956   2.308   3.051   1.737
 4799TIP3    H235957   2.158   3.038   1.737
 4800TIP3   OH235958   2.836   2.566   0.956
 4800TIP3    H135959   2.896   2.512   0.903
 4800TIP3    H235960   2.822   2.511   1.035
 4801TIP3   OH235961   2.337   2.180   0.601
 4801TIP3    H135962   2.306   2.088   0.598
 4801TIP3    H235963   2.416   2.175   0.545
 4802TIP3   OH235964   2.700   2.398   1.198
 4802TIP3    H135965   2.617   2.450   1.207
 4802TIP3    H235966   2.755   2.434   1.270
 4803TIP3   OH235967   2.759   3.020   0.370
 4803TIP3    H135968   2.679   2.974   0.336
 4803TIP3    H235969   2.737   3.032   0.464
 4804TIP3   OH235970   3.477   2.941   1.247
 4804TIP3    H135971   3.534   2.989   1.184
 4804TIP3    H235972   3.391   2.947   1.200
 4805TIP3   OH235973   3.146   2.301   0.186
 4805TIP3    H135974   3.051   2.316   0.169
 4805TIP3    H235975   3.175   2.388   0.217
 4806TIP3   OH235976   2.908   3.046   1.490
 4806TIP3    H135977   2.875   3.005   1.571
 4806TIP3    H235978   2.883   3.138   1.502
 4807TIP3   OH235979   3.216   2.495   0.353
 4807TIP3    H135980   3.306   2.481   0.388
 4807TIP3    H235981   3.224   2.575   0.300
 4808TIP3   OH235982   2.270   2.960   0.947
 4808TIP3    H135983   2.339   2.952   0.879
 4808TIP3    H235984   2.276   2.874   0.993
 4809TIP3   OH235985   2.968   3.168   0.273
 4809TIP3    H135986   2.932   3.253   0.307
 4809TIP3    H235987   2.895   3.106   0.291
 4810TIP3   OH235988   1.968   2.801   1.474
 4810TIP3    H135989   1.986   2.756   1.558
 4810TIP3    H235990   1.906   2.740   1.431
 4811TIP3   OH235991   2.670   2.755   1.690
 4811TIP3    H135992   2.640   2.726   1.602
 4811TIP3    H235993   2.763   2.725   1.691
 4812TIP3   OH235994   3.138   3.291   1.487
 4812TIP3    H135995   3.045   3.308   1.463
 4812TIP3    H235996   3.134   3.318   1.580
 4813TIP3   OH235997   3.705   2.508   0.327
 4813TIP3    H135998   3.649   2.477   0.254
 4813TIP3    H235999   3.713   2.602   0.299
 4814TIP3   OH236000   3.705   3.093   1.606
 4814TIP3    H136001   3.616   3.116   1.570
 4814TIP3    H236002   3.760   3.089   1.525
 4815TIP3   OH236003   3.535   3.391   0.365
 4815TIP3    H136004   3.498   3.308   0.398
 4815TIP3    H236005   3.565   3.371   0.274
 4816TIP3   OH236006   3.255   2.873   1.076
 4816TIP3    H136007   3.161   2.852   1.065
 4816TIP3    H236008   3.298   2.797   1.033
 4817TIP3   OH236009   2.508   3.306   0.685
 4817TIP3    H136010   2.556   3.387   0.665
 4817TIP3    H236011   2.419   3.329   0.653
 4818TIP3   OH236012   2.080   2.792   0.139
 4818TIP3    H136013   2.142   2.854   0.181
 4818TIP3    H236014   1.993   2.820   0.172
 4819TIP3   OH236015   2.649   3.072   0.639
 4819TIP3    H136016   2.619   3.164   0.646
 4819TIP3    H236017   2.575   3.024   0.682
 4820TIP3   OH236018   2.694   3.490   1.278
 4820TIP3    H136019   2.738   3.572   1.250
 4820TIP3    H236020   2.755   3.457   1.346
 4821TIP3   OH236021   2.523   3.573   0.585
 4821TIP3    H136022   2.426   3.584   0.604
 4821TIP3    H236023   2.552   3.655   0.628
 4822TIP3   OH236024   3.047   3.091   1.241
 4822TIP3    H136025   3.013   3.071   1.331
 4822TIP3    H236026   3.110   3.020   1.224
 4823TIP3   OH236027   3.275   3.194   0.152
 4823TIP3    H136028   3.306   3.150   0.234
 4823TIP3    H236029   3.179   3.179   0.159
 4824TIP3   OH236030   3.324   3.550   1.491
 4824TIP3    H136031   3.259   3.498   1.440
 4824TIP3    H236032   3.346   3.619   1.425
 4825TIP3   OH236033   3.726   3.637   0.174
 4825TIP3    H136034   3.796   3.700   0.151
 4825TIP3    H236035   3.655   3.697   0.204
 4826TIP3   OH236036   2.134   2.275   1.431
 4826TIP3    H136037   2.043   2.309   1.425
 4826TIP3    H236038   2.122   2.189   1.473
 4827TIP3   OH236039   3.358   3.060   0.374
 4827TIP3    H136040   3.334   2.981   0.426
 4827TIP3    H236041   3.453   3.067   0.395
 4828TIP3   OH236042   2.095   3.454   1.272
 4828TIP3    H136043   2.124   3.361   1.272
 4828TIP3    H236044   2.121   3.482   1.360
 4829TIP3   OH236045   2.573   3.261   0.241
 4829TIP3    H136046   2.595   3.205   0.317
 4829TIP3    H236047   2.578   3.352   0.276
 4830TIP3   OH236048   2.219   2.983   0.288
 4830TIP3    H136049   2.153   3.024   0.348
 4830TIP3    H236050   2.276   3.060   0.266
 4831TIP3   OH236051   3.007   2.251   1.323
 4831TIP3    H136052   3.078   2.258   1.388
 4831TIP3    H236053   2.968   2.164   1.344
 4832TIP3   OH236054   3.080   2.211   0.434
 4832TIP3    H136055   3.106   2.256   0.352
 4832TIP3    H236056   3.139   2.253   0.498
 4833TIP3   OH236057   2.851   3.429   0.319
 4833TIP3    H136058   2.766   3.476   0.320
 4833TIP3    H236059   2.904   3.474   0.250
 4834TIP3   OH236060   2.803   2.384   0.514
 4834TIP3    H136061   2.882   2.442   0.517
 4834TIP3    H236062   2.777   2.371   0.607
 4835TIP3   OH236063   2.858   2.485   1.434
 4835TIP3    H136064   2.867   2.542   1.513
 4835TIP3    H236065   2.925   2.417   1.444
 4836TIP3   OH236066   2.890   2.090   0.603
 4836TIP3    H136067   2.857   2.155   0.667
 4836TIP3    H236068   2.959   2.145   0.558
 4837TIP3   OH236069   2.591   3.530   0.318
 4837TIP3    H136070   2.602   3.612   0.267
 4837TIP3    H236071   2.560   3.562   0.406
 4838TIP3   OH236072   2.456   2.199   0.278
 4838TIP3    H136073   2.449   2.290   0.312
 4838TIP3    H236074   2.547   2.176   0.304
 4839TIP3   OH236075   3.478   2.275   1.520
 4839TIP3    H136076   3.385   2.303   1.506
 4839TIP3    H236077   3.508   2.271   1.428
 4840TIP3   OH236078   3.339   2.652   0.920
 4840TIP3    H136079   3.256   2.608   0.892
 4840TIP3    H236080   3.386   2.583   0.972
 4841TIP3   OH236081   2.280   3.244   0.179
 4841TIP3    H136082   2.343   3.309   0.212
 4841TIP3    H236083   2.332   3.198   0.111
 4842TIP3   OH236084   2.118   2.512   0.099
 4842TIP3    H136085   2.114   2.609   0.110
 4842TIP3    H236086   2.031   2.492   0.063
 4843TIP3   OH236087   3.445   3.578   1.087
 4843TIP3    H136088   3.436   3.646   1.018
 4843TIP3    H236089   3.541   3.584   1.105
 4844TIP3   OH236090   2.195   1.990   0.967
 4844TIP3    H136091   2.174   1.992   0.871
 4844TIP3    H236092   2.153   1.905   0.992
 4845TIP3   OH236093   2.083   3.337   0.570
 4845TIP3    H136094   2.015   3.406   0.585
 4845TIP3    H236095   2.139   3.403   0.527
 4846TIP3   OH236096   2.010   3.650   1.710
 4846TIP3    H136097   2.072   3.628   1.784
 4846TIP3    H236098   1.969   3.563   1.693
 4847TIP3   OH236099   2.478   3.537   1.870
 4847TIP3    H136100   2.556   3.492   1.901
 4847TIP3    H236101   2.473   3.512   1.776
 4848TIP3   OH236102   2.927   3.498   0.070
 4848TIP3    H136103   2.844   3.448   0.059
 4848TIP3    H236104   2.976   3.452   0.002
 4849TIP3   OH236105   3.130   3.378   1.745
 4849TIP3    H136106   3.097   3.290   1.772
 4849TIP3    H236107   3.208   3.387   1.801
 4850TIP3   OH236108   3.349   3.468   0.031
 4850TIP3    H136109   3.374   3.387   0.079
 4850TIP3    H236110   3.426   3.488  -0.023
 4851TIP3   OH236111   2.011   3.027   1.802
 4851TIP3    H136112   2.014   2.932   1.780
 4851TIP3    H236113   1.928   3.050   1.756
 4852TIP3   OH236114   2.446   3.067   0.025
 4852TIP3    H136115   2.451   2.983   0.072
 4852TIP3    H236116   2.502   3.044  -0.052
 4853TIP3   OH236117   2.682   3.026   1.745
 4853TIP3    H136118   2.639   3.054   1.662
 4853TIP3    H236119   2.681   2.928   1.740
 4854TIP3   OH236120   3.243   3.010   1.489
 4854TIP3    H136121   3.322   3.068   1.480
 4854TIP3    H236122   3.173   3.076   1.492
 4855TIP3   OH236123   2.099   2.749   1.752
 4855TIP3    H136124   2.132   2.661   1.731
 4855TIP3    H236125   2.061   2.739   1.839
 4856TIP3   OH236126   2.558   2.863   0.253
 4856TIP3    H136127   2.508   2.810   0.317
 4856TIP3    H236128   2.588   2.793   0.190
 4857TIP3   OH236129   2.483   2.643   1.484
 4857TIP3    H136130   2.424   2.715   1.509
 4857TIP3    H236131   2.523   2.679   1.402
 4858TIP3   OH236132   2.665   2.685   0.074
 4858TIP3    H136133   2.653   2.665  -0.020
 4858TIP3    H236134   2.763   2.692   0.085
 4859TIP3   OH236135   2.990   2.900   1.821
 4859TIP3    H136136   3.086   2.896   1.805
 4859TIP3    H236137   2.971   2.821   1.874
 4860TIP3   OH236138   3.585   2.928   8.525
 4860TIP3    H136139   3.573   2.879   8.442
 4860TIP3    H236140   3.606   3.018   8.498
 4861TIP3   OH236141   2.520   2.381   1.593
 4861TIP3    H136142   2.535   2.310   1.528
 4861TIP3    H236143   2.520   2.460   1.535
 4862TIP3   OH236144   2.564   2.218   1.344
 4862TIP3    H136145   2.615   2.264   1.274
 4862TIP3    H236146   2.475   2.210   1.303
 4863TIP3   OH236147   2.718   2.765   1.369
 4863TIP3    H136148   2.794   2.750   1.311
 4863TIP3    H236149   2.682   2.850   1.337
 4864TIP3   OH236150   3.158   2.544   1.867
 4864TIP3    H136151   3.182   2.450   1.860
 4864TIP3    H236152   3.246   2.586   1.869
 4865TIP3   OH236153   3.290   2.822   1.677
 4865TIP3    H136154   3.267   2.896   1.617
 4865TIP3    H236155   3.388   2.820   1.665
 4866TIP3   OH236156   2.367   2.505   1.785
 4866TIP3    H136157   2.294   2.445   1.761
 4866TIP3    H236158   2.435   2.473   1.722
 4867TIP3   OH236159   2.643   1.961   1.384
 4867TIP3    H136160   2.626   2.058   1.374
 4867TIP3    H236161   2.568   1.925   1.334
 4868TIP3   OH236162   2.771   2.393   1.744
 4868TIP3    H136163   2.741   2.373   1.834
 4868TIP3    H236164   2.691   2.374   1.692
 4869TIP3   OH236165   3.040   2.308   1.652
 4869TIP3    H136166   2.944   2.313   1.666
 4869TIP3    H236167   3.070   2.245   1.721
 4870TIP3   OH236168   3.200   2.172   1.846
 4870TIP3    H136169   3.193   2.074   1.847
 4870TIP3    H236170   3.176   2.202   1.937
 4871TIP3   OH236171   2.183   2.298   1.756
 4871TIP3    H136172   2.205   2.226   1.694
 4871TIP3    H236173   2.171   2.249   1.837
 4872TIP3   OH236174   2.665   1.899   1.653
 4872TIP3    H136175   2.734   1.830   1.650
 4872TIP3    H236176   2.654   1.916   1.558
 4873TIP3   OH236177   2.704   2.062   1.863
 4873TIP3    H136178   2.684   2.009   1.783
 4873TIP3    H236179   2.640   2.135   1.856
 4874TIP3   OH236180   2.649   3.756   0.179
 4874TIP3    H136181   2.746   3.762   0.185
 4874TIP3    H236182   2.629   3.818   0.109
 4875TIP3   OH236183   2.005   3.210   0.129
 4875TIP3    H136184   2.100   3.223   0.152
 4875TIP3    H236185   2.010   3.152   0.053
 4876TIP3   OH236186   1.850   3.759   0.646
 4876TIP3    H136187   1.813   3.702   0.577
 4876TIP3    H236188   1.913   3.692   0.682
 4877TIP3   OH236189   1.960   3.562   0.822
 4877TIP3    H136190   1.928   3.473   0.834
 4877TIP3    H236191   1.988   3.595   0.908
 4878TIP3   OH236192   3.717   3.642   1.107
 4878TIP3    H136193   3.720   3.659   1.203
 4878TIP3    H236194   3.788   3.700   1.076
 4879TIP3   OH236195   3.677   3.602   1.398
 4879TIP3    H136196   3.626   3.525   1.364
 4879TIP3    H236197   3.724   3.558   1.471
 4880TIP3   OH236198   3.518   3.176   1.866
 4880TIP3    H136199   3.432   3.169   1.907
 4880TIP3    H236200   3.556   3.254   1.913
 4881TIP3   OH236201   3.652   3.006   0.411
 4881TIP3    H136202   3.737   3.047   0.432
 4881TIP3    H236203   3.649   2.935   0.479
 4882TIP3   OH236204   3.687   2.815   0.599
 4882TIP3    H136205   3.612   2.763   0.638
 4882TIP3    H236206   3.746   2.828   0.676
 4883TIP3   OH236207   3.662   3.084   1.098
 4883TIP3    H136208   3.744   3.047   1.061
 4883TIP3    H236209   3.677   3.179   1.082
 4884TIP3   OH236210   3.518   3.375   1.325
 4884TIP3    H136211   3.449   3.409   1.385
 4884TIP3    H236212   3.463   3.334   1.254
 4885TIP3   OH236213   3.716   2.796   0.237
 4885TIP3    H136214   3.658   2.833   0.168
 4885TIP3    H236215   3.709   2.867   0.305
 4886TIP3   OH236216   3.517   2.523   0.100
 4886TIP3    H136217   3.561   2.582   0.037
 4886TIP3    H236218   3.534   2.439   0.054
 4887TIP3   OH236219   3.469   2.662   0.657
 4887TIP3    H136220   3.454   2.566   0.653
 4887TIP3    H236221   3.435   2.684   0.745
 4888TIP3   OH236222   1.969   2.871   1.062
 4888TIP3    H136223   1.987   2.862   0.966
 4888TIP3    H236224   2.058   2.853   1.098
 4889TIP3   OH236225   3.554   2.859   1.620
 4889TIP3    H136226   3.613   2.785   1.643
 4889TIP3    H236227   3.613   2.937   1.629
 4890TIP3   OH236228   3.706   2.647   1.677
 4890TIP3    H136229   3.616   2.609   1.678
 4890TIP3    H236230   3.763   2.571   1.686
 4891TIP3   OH236231   3.479   2.261   0.001
 4891TIP3    H136232   3.537   2.221   0.069
 4891TIP3    H236233   3.390   2.228   0.022
 4892TIP3   OH236234   3.436   2.420   0.504
 4892TIP3    H136235   3.466   2.327   0.515
 4892TIP3    H236236   3.513   2.461   0.464
 4893TIP3   OH236237   3.499   2.475   1.047
 4893TIP3    H136238   3.595   2.498   1.045
 4893TIP3    H236239   3.480   2.489   1.141
 4894TIP3   OH236240   3.506   2.547   1.324
 4894TIP3    H136241   3.418   2.576   1.358
 4894TIP3    H236242   3.549   2.633   1.304
 4895TIP3   OH236243   1.932   2.396   1.673
 4895TIP3    H136244   2.024   2.378   1.699
 4895TIP3    H236245   1.884   2.320   1.712
 4896TIP3   OH236246   3.730   1.950   1.855
 4896TIP3    H136247   3.766   1.884   1.796
 4896TIP3    H236248   3.747   2.032   1.811
 4897TIP3   OH236249   3.502   2.148   0.507
 4897TIP3    H136250   3.521   2.105   0.592
 4897TIP3    H236251   3.441   2.085   0.462
 4898TIP3   OH236252   2.050   2.229   0.963
 4898TIP3    H136253   2.097   2.147   0.989
 4898TIP3    H236254   2.105   2.299   1.002
 4899TIP3   OH236255   1.879   2.529   1.067
 4899TIP3    H136256   1.935   2.505   0.990
 4899TIP3    H236257   1.925   2.610   1.094
 4900TIP3   OH236258   3.684   2.154   0.165
 4900TIP3    H136259   3.727   2.083   0.113
 4900TIP3    H236260   3.756   2.219   0.165
 4901TIP3   OH236261   1.916   2.156   0.473
 4901TIP3    H136262   1.822   2.174   0.461
 4901TIP3    H236263   1.958   2.205   0.400
 4902TIP3   OH236264   3.388   3.651   0.669
 4902TIP3    H136265   3.457   3.620   0.607
 4902TIP3    H236266   3.441   3.701   0.734
 4903TIP3   OH236267   1.911   2.022   1.304
 4903TIP3    H136268   1.844   2.002   1.372
 4903TIP3    H236269   1.865   2.089   1.250
 4904TIP3   OH236270   2.134   3.340   1.722
 4904TIP3    H136271   2.050   3.362   1.678
 4904TIP3    H236272   2.106   3.336   1.814
 4905TIP3   OH236273   2.424   3.442   1.348
 4905TIP3    H136274   2.390   3.528   1.320
 4905TIP3    H236275   2.517   3.450   1.317
 4906TIP3   OH236276   2.858   3.583   1.640
 4906TIP3    H136277   2.877   3.548   1.728
 4906TIP3    H236278   2.947   3.613   1.610
 4907TIP3   OH236279   3.085   3.709   1.574
 4907TIP3    H136280   3.158   3.652   1.543
 4907TIP3    H236281   3.128   3.754   1.647
 4908TIP3   OH236282   3.586   1.972   1.478
 4908TIP3    H136283   3.503   2.002   1.438
 4908TIP3    H236284   3.603   1.890   1.428
 4909TIP3   OH236285   2.167   3.766   1.349
 4909TIP3    H136286   2.094   3.814   1.307
 4909TIP3    H236287   2.135   3.746   1.437
 4910TIP3   OH236288   2.415   3.724   1.257
 4910TIP3    H136289   2.324   3.737   1.295
 4910TIP3    H236290   2.408   3.782   1.178
 4911TIP3   OH236291   2.885   3.715   1.172
 4911TIP3    H136292   2.838   3.770   1.107
 4911TIP3    H236293   2.897   3.778   1.246
 4912TIP3   OH236294   3.113   3.597   1.275
 4912TIP3    H136295   3.028   3.623   1.238
 4912TIP3    H236296   3.161   3.681   1.264
 4913TIP3   OH236297   3.370   3.753   1.298
 4913TIP3    H136298   3.366   3.849   1.274
 4913TIP3    H236299   3.393   3.716   1.210
 4914TIP3   OH236300   2.113   3.632   1.044
 4914TIP3    H136301   2.105   3.584   1.129
 4914TIP3    H236302   2.193   3.593   1.002
 4915TIP3   OH236303   2.317   3.499   0.919
 4915TIP3    H136304   2.304   3.404   0.931
 4915TIP3    H236305   2.407   3.515   0.954
 4916TIP3   OH236306   2.580   3.550   0.995
 4916TIP3    H136307   2.596   3.458   0.968
 4916TIP3    H236308   2.585   3.544   1.091
 4917TIP3   OH236309   2.926   2.115   0.908
 4917TIP3    H136310   2.859   2.051   0.936
 4917TIP3    H236311   2.981   2.062   0.850
 4918TIP3   OH236312   3.440   1.920   0.916
 4918TIP3    H136313   3.498   1.980   0.863
 4918TIP3    H236314   3.351   1.955   0.893
 4919TIP3   OH236315   3.611   2.041   0.749
 4919TIP3    H136316   3.673   1.987   0.695
 4919TIP3    H236317   3.655   2.130   0.751
 4920TIP3   OH236318   2.163   1.977   0.693
 4920TIP3    H136319   2.083   1.957   0.640
 4920TIP3    H236320   2.209   1.892   0.688
 4921TIP3   OH236321   2.038   1.953   0.266
 4921TIP3    H136322   2.088   2.017   0.211
 4921TIP3    H236323   1.983   2.011   0.321
 4922TIP3   OH236324   2.611   1.970   0.672
 4922TIP3    H136325   2.701   2.006   0.665
 4922TIP3    H236326   2.607   1.948   0.765
 4923TIP3   OH236327   3.181   1.971   0.835
 4923TIP3    H136328   3.177   1.983   0.739
 4923TIP3    H236329   3.143   1.881   0.847
 4924TIP3   OH236330   3.309   1.974   0.400
 4924TIP3    H136331   3.234   2.035   0.385
 4924TIP3    H236332   3.264   1.889   0.422
 4925TIP3   OH236333   2.037   3.551   0.277
 4925TIP3    H136334   1.940   3.547   0.281
 4925TIP3    H236335   2.042   3.612   0.357
 4926TIP3   OH236336   2.223   2.140   0.119
 4926TIP3    H136337   2.277   2.084   0.063
 4926TIP3    H236338   2.289   2.181   0.178
 4927TIP3   OH236339   2.726   2.172   0.357
 4927TIP3    H136340   2.752   2.114   0.431
 4927TIP3    H236341   2.732   2.259   0.404
 4928TIP3   OH236342   2.917   3.709   0.205
 4928TIP3    H136343   3.012   3.703   0.185
 4928TIP3    H236344   2.897   3.635   0.140
 4929TIP3   OH236345   3.589   3.629   0.473
 4929TIP3    H136346   3.569   3.552   0.415
 4929TIP3    H236347   3.581   3.703   0.409
 4930TIP3   OH236348   2.150   2.034   1.642
 4930TIP3    H136349   2.114   1.951   1.680
 4930TIP3    H236350   2.243   2.027   1.673
 4931TIP3   OH236351   2.352   1.968   1.802
 4931TIP3    H136352   2.441   1.937   1.777
 4931TIP3    H236353   2.316   1.887   1.841
 4932TIP3   OH236354   2.218   3.649   0.062
 4932TIP3    H136355   2.182   3.669   0.150
 4932TIP3    H236356   2.289   3.588   0.081
 4933TIP3   OH236357   3.194   1.902   1.818
 4933TIP3    H136358   3.203   1.849   1.897
 4933TIP3    H236359   3.283   1.895   1.777
 4934TIP3   OH236360   3.517   3.506   1.678
 4934TIP3    H136361   3.433   3.490   1.630
 4934TIP3    H236362   3.503   3.598   1.706
 4935TIP3   OH236363   4.957   2.892   0.680
 4935TIP3    H136364   4.957   2.989   0.675
 4935TIP3    H236365   4.885   2.868   0.619
 4936TIP3   OH236366   4.843   2.817   1.029
 4936TIP3    H136367   4.842   2.752   1.100
 4936TIP3    H236368   4.809   2.767   0.953
 4937TIP3   OH236369   4.079   2.784   1.184
 4937TIP3    H136370   4.087   2.716   1.254
 4937TIP3    H236371   4.153   2.842   1.206
 4938TIP3   OH236372   5.212   3.111   0.857
 4938TIP3    H136373   5.170   3.040   0.906
 4938TIP3    H236374   5.215   3.182   0.923
 4939TIP3   OH236375   4.171   3.229   1.035
 4939TIP3    H136376   4.140   3.142   1.003
 4939TIP3    H236377   4.267   3.210   1.040
 4940TIP3   OH236378   3.835   2.585   0.583
 4940TIP3    H136379   3.791   2.672   0.577
 4940TIP3    H236380   3.779   2.532   0.526
 4941TIP3   OH236381   3.906   2.808   0.797
 4941TIP3    H136382   3.933   2.726   0.843
 4941TIP3    H236383   3.976   2.818   0.731
 4942TIP3   OH236384   4.924   3.627   0.881
 4942TIP3    H136385   4.988   3.558   0.852
 4942TIP3    H236386   4.905   3.596   0.970
 4943TIP3   OH236387   4.681   3.058   1.076
 4943TIP3    H136388   4.714   2.994   1.010
 4943TIP3    H236389   4.761   3.071   1.127
 4944TIP3   OH236390   5.546   2.221   1.155
 4944TIP3    H136391   5.557   2.291   1.221
 4944TIP3    H236392   5.595   2.263   1.081
 4945TIP3   OH236393   4.997   2.504   1.107
 4945TIP3    H136394   5.013   2.408   1.107
 4945TIP3    H236395   4.987   2.518   1.011
 4946TIP3   OH236396   4.307   2.312   0.829
 4946TIP3    H136397   4.320   2.396   0.781
 4946TIP3    H236398   4.270   2.256   0.759
 4947TIP3   OH236399   5.083   2.321   0.666
 4947TIP3    H136400   5.148   2.290   0.733
 4947TIP3    H236401   5.139   2.378   0.611
 4948TIP3   OH236402   3.971   2.554   0.904
 4948TIP3    H136403   4.039   2.501   0.948
 4948TIP3    H236404   3.981   2.523   0.812
 4949TIP3   OH236405   4.487   2.709   0.833
 4949TIP3    H136406   4.554   2.651   0.874
 4949TIP3    H236407   4.435   2.643   0.784
 4950TIP3   OH236408   5.586   2.376   1.374
 4950TIP3    H136409   5.520   2.449   1.360
 4950TIP3    H236410   5.593   2.379   1.471
 4951TIP3   OH236411   4.198   2.200   1.232
 4951TIP3    H136412   4.173   2.261   1.159
 4951TIP3    H236413   4.133   2.227   1.301
 4952TIP3   OH236414   4.929   3.150   0.588
 4952TIP3    H136415   4.900   3.123   0.499
 4952TIP3    H236416   4.898   3.244   0.592
 4953TIP3   OH236417   4.452   2.967   1.259
 4953TIP3    H136418   4.379   3.030   1.278
 4953TIP3    H236419   4.521   3.027   1.228
 4954TIP3   OH236420   5.263   2.255   0.866
 4954TIP3    H136421   5.242   2.178   0.919
 4954TIP3    H236422   5.330   2.299   0.921
 4955TIP3   OH236423   4.155   2.386   1.036
 4955TIP3    H136424   4.218   2.455   1.067
 4955TIP3    H236425   4.209   2.347   0.962
 4956TIP3   OH236426   4.294   3.166   1.338
 4956TIP3    H136427   4.291   3.258   1.306
 4956TIP3    H236428   4.207   3.159   1.383
 4957TIP3   OH236429   3.902   3.129   0.418
 4957TIP3    H136430   3.881   3.162   0.329
 4957TIP3    H236431   3.910   3.212   0.469
 4958TIP3   OH236432   5.265   3.295   1.092
 4958TIP3    H136433   5.169   3.307   1.106
 4958TIP3    H236434   5.292   3.388   1.076
 4959TIP3   OH236435   5.300   2.128   1.240
 4959TIP3    H136436   5.223   2.185   1.223
 4959TIP3    H236437   5.365   2.165   1.177
 4960TIP3   OH236438   4.594   1.936   0.980
 4960TIP3    H136439   4.580   1.839   0.973
 4960TIP3    H236440   4.506   1.966   1.010
 4961TIP3   OH236441   5.091   3.474   0.754
 4961TIP3    H136442   5.134   3.402   0.703
 4961TIP3    H236443   5.133   3.553   0.714
 4962TIP3   OH236444   5.211   3.266   0.604
 4962TIP3    H136445   5.182   3.197   0.543
 4962TIP3    H236446   5.215   3.217   0.688
 4963TIP3   OH236447   5.373   3.126   1.454
 4963TIP3    H136448   5.388   3.061   1.382
 4963TIP3    H236449   5.394   3.211   1.411
 4964TIP3   OH236450   4.822   2.816   0.429
 4964TIP3    H136451   4.753   2.873   0.390
 4964TIP3    H236452   4.894   2.824   0.363
 4965TIP3   OH236453   4.827   2.671   0.136
 4965TIP3    H136454   4.900   2.669   0.201
 4965TIP3    H236455   4.859   2.605   0.074
 4966TIP3   OH236456   5.562   2.756   1.259
 4966TIP3    H136457   5.496   2.829   1.264
 4966TIP3    H236458   5.611   2.780   1.178
 4967TIP3   OH236459   5.167   2.837   0.525
 4967TIP3    H136460   5.092   2.861   0.585
 4967TIP3    H236461   5.214   2.768   0.575
 4968TIP3   OH236462   5.160   2.653   1.435
 4968TIP3    H136463   5.161   2.734   1.489
 4968TIP3    H236464   5.097   2.683   1.366
 4969TIP3   OH236465   4.329   2.902   0.714
 4969TIP3    H136466   4.297   2.863   0.630
 4969TIP3    H236467   4.390   2.833   0.748
 4970TIP3   OH236468   4.462   3.241   0.983
 4970TIP3    H136469   4.460   3.188   0.903
 4970TIP3    H236470   4.540   3.205   1.029
 4971TIP3   OH236471   4.362   2.777   1.080
 4971TIP3    H136472   4.418   2.787   1.000
 4971TIP3    H236473   4.400   2.843   1.142
 4972TIP3   OH236474   5.004   3.334   1.152
 4972TIP3    H136475   4.972   3.397   1.216
 4972TIP3    H236476   4.978   3.248   1.192
 4973TIP3   OH236477   4.457   3.220   1.548
 4973TIP3    H136478   4.418   3.294   1.599
 4973TIP3    H236479   4.388   3.200   1.480
 4974TIP3   OH236480   5.055   2.754   0.291
 4974TIP3    H136481   5.110   2.774   0.370
 4974TIP3    H236482   5.096   2.808   0.220
 4975TIP3   OH236483   4.150   2.836   1.465
 4975TIP3    H136484   4.156   2.900   1.539
 4975TIP3    H236485   4.057   2.846   1.443
 4976TIP3   OH236486   4.826   3.428   0.637
 4976TIP3    H136487   4.870   3.459   0.717
 4976TIP3    H236488   4.771   3.503   0.612
 4977TIP3   OH236489   4.283   3.423   1.625
 4977TIP3    H136490   4.278   3.412   1.528
 4977TIP3    H236491   4.190   3.409   1.651
 4978TIP3   OH236492   5.426   1.932   0.274
 4978TIP3    H136493   5.332   1.939   0.304
 4978TIP3    H236494   5.448   2.019   0.237
 4979TIP3   OH236495   4.226   2.805   0.475
 4979TIP3    H136496   4.198   2.883   0.423
 4979TIP3    H236497   4.161   2.739   0.453
 4980TIP3   OH236498   5.538   3.362   0.116
 4980TIP3    H136499   5.550   3.458   0.129
 4980TIP3    H236500   5.631   3.335   0.109
 4981TIP3   OH236501   3.837   3.047   1.362
 4981TIP3    H136502   3.790   3.039   1.278
 4981TIP3    H236503   3.842   2.953   1.386
 4982TIP3   OH236504   3.811   3.321   1.043
 4982TIP3    H136505   3.907   3.309   1.041
 4982TIP3    H236506   3.803   3.402   1.094
 4983TIP3   OH236507   5.631   3.392   1.608
 4983TIP3    H136508   5.624   3.295   1.610
 4983TIP3    H236509   5.548   3.414   1.653
 4984TIP3   OH236510   4.774   3.719   0.478
 4984TIP3    H136511   4.766   3.713   0.381
 4984TIP3    H236512   4.777   3.816   0.494
 4985TIP3   OH236513   4.139   3.607   0.660
 4985TIP3    H136514   4.153   3.566   0.748
 4985TIP3    H236515   4.054   3.567   0.636
 4986TIP3   OH236516   5.077   3.640   0.174
 4986TIP3    H136517   5.125   3.564   0.133
 4986TIP3    H236518   5.084   3.615   0.269
 4987TIP3   OH236519   5.049   3.634   0.454
 4987TIP3    H136520   4.953   3.641   0.473
 4987TIP3    H236521   5.074   3.560   0.511
 4988TIP3   OH236522   5.351   2.537   1.656
 4988TIP3    H136523   5.302   2.586   1.588
 4988TIP3    H236524   5.348   2.445   1.627
 4989TIP3   OH236525   4.063   3.179   1.460
 4989TIP3    H136526   4.086   3.142   1.548
 4989TIP3    H236527   3.976   3.138   1.439
 4990TIP3   OH236528   4.335   2.026   1.057
 4990TIP3    H136529   4.245   2.015   1.019
 4990TIP3    H236530   4.322   2.110   1.104
 4991TIP3   OH236531   4.796   1.994   1.394
 4991TIP3    H136532   4.834   1.951   1.472
 4991TIP3    H236533   4.698   1.981   1.407
 4992TIP3   OH236534   5.127   2.377   1.482
 4992TIP3    H136535   5.067   2.357   1.558
 4992TIP3    H236536   5.106   2.469   1.457
 4993TIP3   OH236537   5.208   2.863   0.073
 4993TIP3    H136538   5.208   2.846  -0.023
 4993TIP3    H236539   5.295   2.906   0.083
 4994TIP3   OH236540   4.760   2.250   0.125
 4994TIP3    H136541   4.729   2.245   0.217
 4994TIP3    H236542   4.733   2.162   0.096
 4995TIP3   OH236543   4.341   2.523   1.179
 4995TIP3    H136544   4.267   2.522   1.244
 4995TIP3    H236545   4.337   2.614   1.143
 4996TIP3   OH236546   4.337   2.536   0.666
 4996TIP3    H136547   4.244   2.510   0.653
 4996TIP3    H236548   4.376   2.506   0.581
 4997TIP3   OH236549   4.890   2.584   0.541
 4997TIP3    H136550   4.849   2.668   0.509
 4997TIP3    H236551   4.959   2.569   0.474
 4998TIP3   OH236552   4.795   2.608   1.692
 4998TIP3    H136553   4.741   2.530   1.718
 4998TIP3    H236554   4.880   2.593   1.732
 4999TIP3   OH236555   4.993   2.534   0.828
 4999TIP3    H136556   4.965   2.590   0.754
 4999TIP3    H236557   5.003   2.449   0.781
 5000TIP3   OH236558   4.104   2.549   1.349
 5000TIP3    H136559   4.112   2.590   1.437
 5000TIP3    H236560   4.060   2.465   1.369
 5001TIP3   OH236561   4.458   2.311   0.065
 5001TIP3    H136562   4.404   2.247   0.117
 5001TIP3    H236563   4.397   2.346   0.001
 5002TIP3   OH236564   3.768   2.254   0.747
 5002TIP3    H136565   3.837   2.261   0.815
 5002TIP3    H236566   3.815   2.225   0.667
 5003TIP3   OH236567   3.899   2.333   0.283
 5003TIP3    H136568   3.948   2.392   0.222
 5003TIP3    H236569   3.830   2.395   0.314
 5004TIP3   OH236570   4.913   2.693   1.284
 5004TIP3    H136571   4.950   2.625   1.224
 5004TIP3    H236572   4.867   2.640   1.351
 5005TIP3   OH236573   4.593   2.290   0.767
 5005TIP3    H136574   4.500   2.291   0.796
 5005TIP3    H236575   4.642   2.274   0.849
 5006TIP3   OH236576   4.074   2.446   0.654
 5006TIP3    H136577   3.986   2.461   0.615
 5006TIP3    H236578   4.104   2.364   0.612
 5007TIP3   OH236579   4.438   2.452   0.417
 5007TIP3    H136580   4.534   2.462   0.434
 5007TIP3    H236581   4.415   2.517   0.348
 5008TIP3   OH236582   5.033   2.214   1.091
 5008TIP3    H136583   4.965   2.219   1.162
 5008TIP3    H236584   4.983   2.189   1.013
 5009TIP3   OH236585   4.308   2.568   0.177
 5009TIP3    H136586   4.253   2.533   0.105
 5009TIP3    H236587   4.391   2.589   0.130
 5010TIP3   OH236588   5.359   3.776   1.724
 5010TIP3    H136589   5.383   3.816   1.640
 5010TIP3    H236590   5.427   3.809   1.783
 5011TIP3   OH236591   4.122   3.029   1.679
 5011TIP3    H136592   4.193   3.050   1.741
 5011TIP3    H236593   4.045   3.037   1.739
 5012TIP3   OH236594   4.721   2.566   0.956
 5012TIP3    H136595   4.781   2.512   0.903
 5012TIP3    H236596   4.707   2.511   1.035
 5013TIP3   OH236597   4.222   2.178   0.601
 5013TIP3    H136598   4.194   2.086   0.595
 5013TIP3    H236599   4.301   2.176   0.545
 5014TIP3   OH236600   4.585   2.399   1.198
 5014TIP3    H136601   4.503   2.451   1.207
 5014TIP3    H236602   4.641   2.434   1.270
 5015TIP3   OH236603   4.645   3.021   0.368
 5015TIP3    H136604   4.564   2.973   0.336
 5015TIP3    H236605   4.623   3.032   0.463
 5016TIP3   OH236606   5.362   2.940   1.248
 5016TIP3    H136607   5.419   2.989   1.185
 5016TIP3    H236608   5.276   2.947   1.201
 5017TIP3   OH236609   5.031   2.301   0.186
 5017TIP3    H136610   4.937   2.316   0.169
 5017TIP3    H236611   5.061   2.388   0.217
 5018TIP3   OH236612   4.795   3.047   1.490
 5018TIP3    H136613   4.758   3.002   1.568
 5018TIP3    H236614   4.766   3.137   1.503
 5019TIP3   OH236615   5.101   2.495   0.353
 5019TIP3    H136616   5.191   2.481   0.388
 5019TIP3    H236617   5.110   2.575   0.300
 5020TIP3   OH236618   4.155   2.960   0.947
 5020TIP3    H136619   4.224   2.952   0.879
 5020TIP3    H236620   4.161   2.874   0.993
 5021TIP3   OH236621   4.852   3.169   0.269
 5021TIP3    H136622   4.819   3.252   0.308
 5021TIP3    H236623   4.780   3.106   0.293
 5022TIP3   OH236624   3.854   2.801   1.472
 5022TIP3    H136625   3.872   2.758   1.558
 5022TIP3    H236626   3.791   2.740   1.430
 5023TIP3   OH236627   4.555   2.755   1.693
 5023TIP3    H136628   4.524   2.730   1.605
 5023TIP3    H236629   4.648   2.728   1.691
 5024TIP3   OH236630   5.025   3.285   1.485
 5024TIP3    H136631   4.935   3.303   1.458
 5024TIP3    H236632   5.022   3.313   1.577
 5025TIP3   OH236633   5.591   2.508   0.327
 5025TIP3    H136634   5.534   2.477   0.254
 5025TIP3    H236635   5.599   2.602   0.299
 5026TIP3   OH236636   5.589   3.095   1.607
 5026TIP3    H136637   5.500   3.116   1.569
 5026TIP3    H236638   5.645   3.090   1.527
 5027TIP3   OH236639   5.421   3.391   0.365
 5027TIP3    H136640   5.383   3.308   0.398
 5027TIP3    H236641   5.450   3.371   0.274
 5028TIP3   OH236642   5.140   2.873   1.076
 5028TIP3    H136643   5.046   2.851   1.065
 5028TIP3    H236644   5.183   2.797   1.033
 5029TIP3   OH236645   4.392   3.306   0.686
 5029TIP3    H136646   4.442   3.386   0.665
 5029TIP3    H236647   4.304   3.329   0.653
 5030TIP3   OH236648   3.965   2.792   0.139
 5030TIP3    H136649   4.028   2.854   0.181
 5030TIP3    H236650   3.878   2.820   0.172
 5031TIP3   OH236651   4.535   3.072   0.638
 5031TIP3    H136652   4.503   3.164   0.646
 5031TIP3    H236653   4.462   3.024   0.682
 5032TIP3   OH236654   4.580   3.490   1.274
 5032TIP3    H136655   4.625   3.573   1.250
 5032TIP3    H236656   4.637   3.461   1.346
 5033TIP3   OH236657   4.402   3.572   0.590
 5033TIP3    H136658   4.305   3.586   0.604
 5033TIP3    H236659   4.438   3.656   0.626
 5034TIP3   OH236660   4.936   3.096   1.245
 5034TIP3    H136661   4.896   3.069   1.330
 5034TIP3    H236662   4.995   3.021   1.224
 5035TIP3   OH236663   5.160   3.194   0.152
 5035TIP3    H136664   5.192   3.150   0.234
 5035TIP3    H236665   5.065   3.179   0.161
 5036TIP3   OH236666   5.613   3.636   0.174
 5036TIP3    H136667   5.682   3.701   0.152
 5036TIP3    H236668   5.541   3.696   0.204
 5037TIP3   OH236669   4.019   2.275   1.432
 5037TIP3    H136670   3.928   2.308   1.423
 5037TIP3    H236671   4.008   2.188   1.475
 5038TIP3   OH236672   5.244   3.061   0.374
 5038TIP3    H136673   5.219   2.981   0.426
 5038TIP3    H236674   5.338   3.067   0.395
 5039TIP3   OH236675   3.981   3.453   1.271
 5039TIP3    H136676   4.010   3.361   1.272
 5039TIP3    H236677   4.007   3.482   1.360
 5040TIP3   OH236678   4.459   3.261   0.240
 5040TIP3    H136679   4.480   3.206   0.317
 5040TIP3    H236680   4.463   3.352   0.277
 5041TIP3   OH236681   4.104   2.984   0.287
 5041TIP3    H136682   4.039   3.024   0.348
 5041TIP3    H236683   4.161   3.060   0.266
 5042TIP3   OH236684   4.892   2.252   1.323
 5042TIP3    H136685   4.964   2.257   1.387
 5042TIP3    H236686   4.853   2.165   1.341
 5043TIP3   OH236687   4.966   2.211   0.434
 5043TIP3    H136688   4.991   2.256   0.352
 5043TIP3    H236689   5.025   2.253   0.498
 5044TIP3   OH236690   4.735   3.426   0.315
 5044TIP3    H136691   4.653   3.478   0.321
 5044TIP3    H236692   4.790   3.477   0.254
 5045TIP3   OH236693   4.689   2.384   0.514
 5045TIP3    H136694   4.768   2.441   0.517
 5045TIP3    H236695   4.663   2.371   0.607
 5046TIP3   OH236696   4.744   2.486   1.431
 5046TIP3    H136697   4.752   2.544   1.509
 5046TIP3    H236698   4.810   2.417   1.443
 5047TIP3   OH236699   4.775   2.090   0.603
 5047TIP3    H136700   4.743   2.155   0.668
 5047TIP3    H236701   4.844   2.145   0.558
 5048TIP3   OH236702   4.472   3.530   0.318
 5048TIP3    H136703   4.490   3.612   0.267
 5048TIP3    H236704   4.448   3.564   0.407
 5049TIP3   OH236705   4.341   2.198   0.279
 5049TIP3    H136706   4.335   2.290   0.312
 5049TIP3    H236707   4.433   2.176   0.304
 5050TIP3   OH236708   5.366   2.272   1.515
 5050TIP3    H136709   5.272   2.305   1.509
 5050TIP3    H236710   5.384   2.276   1.420
 5051TIP3   OH236711   5.225   2.652   0.920
 5051TIP3    H136712   5.142   2.608   0.892
 5051TIP3    H236713   5.272   2.583   0.972
 5052TIP3   OH236714   4.165   3.245   0.180
 5052TIP3    H136715   4.231   3.308   0.211
 5052TIP3    H236716   4.216   3.198   0.112
 5053TIP3   OH236717   4.004   2.513   0.098
 5053TIP3    H136718   4.000   2.609   0.110
 5053TIP3    H236719   3.917   2.492   0.063
 5054TIP3   OH236720   5.331   3.576   1.083
 5054TIP3    H136721   5.321   3.648   1.018
 5054TIP3    H236722   5.427   3.584   1.104
 5055TIP3   OH236723   4.090   1.995   0.969
 5055TIP3    H136724   4.081   1.997   0.871
 5055TIP3    H236725   4.063   1.905   0.999
 5056TIP3   OH236726   3.976   3.382   0.581
 5056TIP3    H136727   3.890   3.427   0.578
 5056TIP3    H236728   4.024   3.430   0.512
 5057TIP3   OH236729   3.899   3.647   1.709
 5057TIP3    H136730   3.957   3.627   1.784
 5057TIP3    H236731   3.856   3.561   1.692
 5058TIP3   OH236732   4.361   3.537   1.872
 5058TIP3    H136733   4.440   3.492   1.904
 5058TIP3    H236734   4.358   3.510   1.777
 5059TIP3   OH236735   4.812   3.497   0.067
 5059TIP3    H136736   4.729   3.448   0.060
 5059TIP3    H236737   4.864   3.451   0.001
 5060TIP3   OH236738   5.235   3.469   0.031
 5060TIP3    H136739   5.260   3.387   0.079
 5060TIP3    H236740   5.313   3.489  -0.022
 5061TIP3   OH236741   3.891   3.025   1.808
 5061TIP3    H136742   3.905   2.934   1.777
 5061TIP3    H236743   3.812   3.051   1.757
 5062TIP3   OH236744   4.335   3.068   0.026
 5062TIP3    H136745   4.334   2.984   0.073
 5062TIP3    H236746   4.386   3.041  -0.051
 5063TIP3   OH236747   4.562   3.023   1.748
 5063TIP3    H136748   4.525   3.054   1.664
 5063TIP3    H236749   4.568   2.926   1.738
 5064TIP3   OH236750   5.129   3.011   1.487
 5064TIP3    H136751   5.209   3.068   1.479
 5064TIP3    H236752   5.058   3.076   1.492
 5065TIP3   OH236753   3.977   2.748   1.747
 5065TIP3    H136754   4.019   2.663   1.736
 5065TIP3    H236755   3.956   2.748   1.842
 5066TIP3   OH236756   4.444   2.864   0.252
 5066TIP3    H136757   4.394   2.811   0.316
 5066TIP3    H236758   4.474   2.792   0.190
 5067TIP3   OH236759   4.370   2.642   1.484
 5067TIP3    H136760   4.310   2.713   1.511
 5067TIP3    H236761   4.408   2.678   1.402
 5068TIP3   OH236762   4.551   2.688   0.073
 5068TIP3    H136763   4.538   2.662  -0.019
 5068TIP3    H236764   4.649   2.691   0.084
 5069TIP3   OH236765   4.878   2.896   1.812
 5069TIP3    H136766   4.974   2.901   1.808
 5069TIP3    H236767   4.857   2.826   1.873
 5070TIP3   OH236768   5.470   2.928   8.525
 5070TIP3    H136769   5.459   2.878   8.442
 5070TIP3    H236770   5.491   3.018   8.498
 5071TIP3   OH236771   4.409   2.380   1.592
 5071TIP3    H136772   4.419   2.309   1.525
 5071TIP3    H236773   4.403   2.461   1.537
 5072TIP3   OH236774   4.449   2.218   1.345
 5072TIP3    H136775   4.502   2.264   1.275
 5072TIP3    H236776   4.361   2.210   1.304
 5073TIP3   OH236777   4.604   2.764   1.367
 5073TIP3    H136778   4.680   2.750   1.311
 5073TIP3    H236779   4.568   2.849   1.336
 5074TIP3   OH236780   5.177   2.820   1.678
 5074TIP3    H136781   5.153   2.893   1.618
 5074TIP3    H236782   5.273   2.819   1.660
 5075TIP3   OH236783   4.252   2.508   1.778
 5075TIP3    H136784   4.181   2.444   1.766
 5075TIP3    H236785   4.321   2.468   1.722
 5076TIP3   OH236786   4.528   1.961   1.385
 5076TIP3    H136787   4.511   2.057   1.373
 5076TIP3    H236788   4.454   1.924   1.334
 5077TIP3   OH236789   4.655   2.391   1.747
 5077TIP3    H136790   4.624   2.371   1.836
 5077TIP3    H236791   4.575   2.375   1.692
 5078TIP3   OH236792   4.928   2.307   1.654
 5078TIP3    H136793   4.832   2.312   1.664
 5078TIP3    H236794   4.953   2.243   1.721
 5079TIP3   OH236795   4.063   2.296   1.754
 5079TIP3    H136796   4.093   2.225   1.695
 5079TIP3    H236797   4.064   2.252   1.840
 5080TIP3   OH236798   4.551   1.900   1.654
 5080TIP3    H136799   4.617   1.828   1.654
 5080TIP3    H236800   4.536   1.915   1.559
 5081TIP3   OH236801   4.596   2.072   1.855
 5081TIP3    H136802   4.568   2.009   1.784
 5081TIP3    H236803   4.522   2.133   1.857
 5082TIP3   OH236804   4.534   3.752   0.176
 5082TIP3    H136805   4.631   3.764   0.190
 5082TIP3    H236806   4.516   3.820   0.110
 5083TIP3   OH236807   3.891   3.212   0.129
 5083TIP3    H136808   3.987   3.221   0.151
 5083TIP3    H236809   3.894   3.152   0.054
 5084TIP3   OH236810   3.766   3.750   0.626
 5084TIP3    H136811   3.695   3.701   0.579
 5084TIP3    H236812   3.795   3.684   0.692
 5085TIP3   OH236813   3.849   3.563   0.813
 5085TIP3    H136814   3.814   3.475   0.833
 5085TIP3    H236815   3.873   3.596   0.902
 5086TIP3   OH236816   5.604   3.641   1.107
 5086TIP3    H136817   5.604   3.659   1.202
 5086TIP3    H236818   5.673   3.701   1.077
 5087TIP3   OH236819   5.565   3.601   1.398
 5087TIP3    H136820   5.511   3.527   1.365
 5087TIP3    H236821   5.610   3.558   1.472
 5088TIP3   OH236822   5.401   3.177   1.864
 5088TIP3    H136823   5.316   3.169   1.909
 5088TIP3    H236824   5.444   3.251   1.912
 5089TIP3   OH236825   5.537   3.006   0.411
 5089TIP3    H136826   5.622   3.047   0.433
 5089TIP3    H236827   5.535   2.935   0.479
 5090TIP3   OH236828   5.572   2.815   0.599
 5090TIP3    H136829   5.497   2.763   0.638
 5090TIP3    H236830   5.632   2.828   0.676
 5091TIP3   OH236831   5.548   3.084   1.098
 5091TIP3    H136832   5.630   3.047   1.061
 5091TIP3    H236833   5.562   3.179   1.082
 5092TIP3   OH236834   5.402   3.375   1.326
 5092TIP3    H136835   5.333   3.411   1.383
 5092TIP3    H236836   5.348   3.336   1.254
 5093TIP3   OH236837   5.602   2.797   0.237
 5093TIP3    H136838   5.543   2.833   0.168
 5093TIP3    H236839   5.595   2.867   0.305
 5094TIP3   OH236840   5.403   2.523   0.100
 5094TIP3    H136841   5.446   2.583   0.037
 5094TIP3    H236842   5.420   2.439   0.054
 5095TIP3   OH236843   5.354   2.662   0.657
 5095TIP3    H136844   5.339   2.566   0.653
 5095TIP3    H236845   5.321   2.684   0.745
 5096TIP3   OH236846   3.854   2.870   1.062
 5096TIP3    H136847   3.873   2.862   0.966
 5096TIP3    H236848   3.944   2.853   1.098
 5097TIP3   OH236849   5.439   2.858   1.623
 5097TIP3    H136850   5.499   2.782   1.639
 5097TIP3    H236851   5.499   2.935   1.627
 5098TIP3   OH236852   5.591   2.647   1.683
 5098TIP3    H136853   5.501   2.608   1.677
 5098TIP3    H236854   5.648   2.570   1.686
 5099TIP3   OH236855   5.364   2.261   0.002
 5099TIP3    H136856   5.423   2.220   0.069
 5099TIP3    H236857   5.276   2.227   0.022
 5100TIP3   OH236858   5.321   2.420   0.504
 5100TIP3    H136859   5.352   2.327   0.515
 5100TIP3    H236860   5.399   2.461   0.464
 5101TIP3   OH236861   5.385   2.472   1.048
 5101TIP3    H136862   5.480   2.500   1.044
 5101TIP3    H236863   5.365   2.491   1.140
 5102TIP3   OH236864   5.390   2.549   1.326
 5102TIP3    H136865   5.302   2.578   1.358
 5102TIP3    H236866   5.433   2.635   1.302
 5103TIP3   OH236867   5.614   1.952   1.857
 5103TIP3    H136868   5.653   1.883   1.800
 5103TIP3    H236869   5.632   2.034   1.810
 5104TIP3   OH236870   5.388   2.148   0.507
 5104TIP3    H136871   5.409   2.104   0.592
 5104TIP3    H236872   5.326   2.086   0.463
 5105TIP3   OH236873   3.937   2.225   0.962
 5105TIP3    H136874   3.989   2.150   0.994
 5105TIP3    H236875   3.987   2.299   1.000
 5106TIP3   OH236876   3.765   2.529   1.067
 5106TIP3    H136877   3.821   2.507   0.990
 5106TIP3    H236878   3.810   2.610   1.095
 5107TIP3   OH236879   5.571   2.166   1.688
 5107TIP3    H136880   5.475   2.187   1.696
 5107TIP3    H236881   5.572   2.091   1.629
 5108TIP3   OH236882   5.570   2.155   0.163
 5108TIP3    H136883   5.612   2.082   0.114
 5108TIP3    H236884   5.642   2.220   0.166
 5109TIP3   OH236885   3.801   2.155   0.475
 5109TIP3    H136886   3.707   2.174   0.461
 5109TIP3    H236887   3.843   2.204   0.401
 5110TIP3   OH236888   5.275   3.651   0.669
 5110TIP3    H136889   5.343   3.620   0.607
 5110TIP3    H236890   5.327   3.700   0.734
 5111TIP3   OH236891   3.796   2.021   1.301
 5111TIP3    H136892   3.730   2.004   1.372
 5111TIP3    H236893   3.749   2.091   1.251
 5112TIP3   OH236894   4.020   3.346   1.723
 5112TIP3    H136895   3.935   3.362   1.678
 5112TIP3    H236896   3.990   3.334   1.814
 5113TIP3   OH236897   4.311   3.442   1.348
 5113TIP3    H136898   4.276   3.527   1.320
 5113TIP3    H236899   4.404   3.451   1.319
 5114TIP3   OH236900   5.475   1.978   1.474
 5114TIP3    H136901   5.386   1.996   1.438
 5114TIP3    H236902   5.490   1.890   1.430
 5115TIP3   OH236903   4.053   3.765   1.348
 5115TIP3    H136904   3.979   3.815   1.308
 5115TIP3    H236905   4.021   3.746   1.437
 5116TIP3   OH236906   4.299   3.722   1.254
 5116TIP3    H136907   4.211   3.737   1.295
 5116TIP3    H236908   4.294   3.782   1.178
 5117TIP3   OH236909   4.767   3.714   1.170
 5117TIP3    H136910   4.724   3.772   1.105
 5117TIP3    H236911   4.786   3.775   1.244
 5118TIP3   OH236912   5.262   3.754   1.297
 5118TIP3    H136913   5.248   3.848   1.275
 5118TIP3    H236914   5.277   3.715   1.210
 5119TIP3   OH236915   3.998   3.630   1.042
 5119TIP3    H136916   3.990   3.585   1.128
 5119TIP3    H236917   4.079   3.593   1.003
 5120TIP3   OH236918   4.206   3.501   0.907
 5120TIP3    H136919   4.189   3.408   0.930
 5120TIP3    H236920   4.291   3.516   0.953
 5121TIP3   OH236921   4.464   3.550   0.994
 5121TIP3    H136922   4.482   3.458   0.968
 5121TIP3    H236923   4.470   3.544   1.091
 5122TIP3   OH236924   4.812   2.115   0.908
 5122TIP3    H136925   4.744   2.051   0.936
 5122TIP3    H236926   4.867   2.062   0.850
 5123TIP3   OH236927   5.325   1.922   0.919
 5123TIP3    H136928   5.387   1.977   0.864
 5123TIP3    H236929   5.237   1.957   0.892
 5124TIP3   OH236930   5.492   2.045   0.744
 5124TIP3    H136931   5.560   1.986   0.702
 5124TIP3    H236932   5.543   2.129   0.753
 5125TIP3   OH236933   4.040   1.971   0.704
 5125TIP3    H136934   3.972   1.959   0.634
 5125TIP3    H236935   4.097   1.894   0.684
 5126TIP3   OH236936   3.924   1.953   0.266
 5126TIP3    H136937   3.974   2.017   0.211
 5126TIP3    H236938   3.868   2.011   0.319
 5127TIP3   OH236939   4.496   1.970   0.672
 5127TIP3    H136940   4.586   2.006   0.665
 5127TIP3    H236941   4.492   1.948   0.765
 5128TIP3   OH236942   5.066   1.972   0.835
 5128TIP3    H136943   5.063   1.983   0.739
 5128TIP3    H236944   5.030   1.881   0.846
 5129TIP3   OH236945   5.194   1.975   0.400
 5129TIP3    H136946   5.120   2.034   0.385
 5129TIP3    H236947   5.151   1.889   0.422
 5130TIP3   OH236948   3.918   3.549   0.366
 5130TIP3    H136949   3.850   3.548   0.296
 5130TIP3    H236950   3.920   3.644   0.383
 5131TIP3   OH236951   4.108   2.139   0.119
 5131TIP3    H136952   4.163   2.084   0.064
 5131TIP3    H236953   4.174   2.181   0.178
 5132TIP3   OH236954   4.612   2.172   0.357
 5132TIP3    H136955   4.637   2.114   0.431
 5132TIP3    H236956   4.617   2.259   0.404
 5133TIP3   OH236957   4.800   3.704   0.205
 5133TIP3    H136958   4.896   3.706   0.187
 5133TIP3    H236959   4.783   3.634   0.137
 5134TIP3   OH236960   5.475   3.630   0.472
 5134TIP3    H136961   5.454   3.552   0.415
 5134TIP3    H236962   5.467   3.703   0.408
 5135TIP3   OH236963   4.039   2.031   1.646
 5135TIP3    H136964   4.004   1.952   1.686
 5135TIP3    H236965   4.133   2.030   1.673
 5136TIP3   OH236966   4.100   3.646   0.063
 5136TIP3    H136967   4.070   3.673   0.150
 5136TIP3    H236968   4.176   3.590   0.079
 5137TIP3   OH236969   6.845   2.889   0.677
 5137TIP3    H136970   6.844   2.988   0.677
 5137TIP3    H236971   6.769   2.870   0.620
 5138TIP3   OH236972   6.729   2.817   1.028
 5138TIP3    H136973   6.727   2.752   1.100
 5138TIP3    H236974   6.696   2.766   0.952
 5139TIP3   OH236975   5.964   2.784   1.184
 5139TIP3    H136976   5.973   2.716   1.254
 5139TIP3    H236977   6.039   2.842   1.206
 5140TIP3   OH236978   7.099   3.111   0.858
 5140TIP3    H136979   7.057   3.039   0.907
 5140TIP3    H236980   7.100   3.181   0.924
 5141TIP3   OH236981   6.057   3.229   1.034
 5141TIP3    H136982   6.025   3.143   1.003
 5141TIP3    H236983   6.152   3.210   1.040
 5142TIP3   OH236984   5.721   2.585   0.583
 5142TIP3    H136985   5.677   2.672   0.577
 5142TIP3    H236986   5.664   2.532   0.526
 5143TIP3   OH236987   5.792   2.807   0.797
 5143TIP3    H136988   5.818   2.726   0.843
 5143TIP3    H236989   5.862   2.818   0.731
 5144TIP3   OH236990   6.818   3.630   0.886
 5144TIP3    H136991   6.870   3.554   0.848
 5144TIP3    H236992   6.780   3.591   0.965
 5145TIP3   OH236993   6.567   3.057   1.075
 5145TIP3    H136994   6.600   2.994   1.010
 5145TIP3    H236995   6.647   3.072   1.128
 5146TIP3   OH236996   6.884   2.504   1.107
 5146TIP3    H136997   6.900   2.408   1.105
 5146TIP3    H236998   6.873   2.519   1.012
 5147TIP3   OH236999   6.195   2.312   0.829
 5147TIP3    H137000   6.205   2.396   0.780
 5147TIP3    H237001   6.154   2.255   0.760
 5148TIP3   OH237002   6.971   2.329   0.664
 5148TIP3    H137003   7.029   2.287   0.734
 5148TIP3    H237004   7.040   2.372   0.616
 5149TIP3   OH237005   5.857   2.553   0.903
 5149TIP3    H137006   5.924   2.499   0.948
 5149TIP3    H237007   5.867   2.522   0.811
 5150TIP3   OH237008   6.374   2.709   0.832
 5150TIP3    H137009   6.440   2.651   0.874
 5150TIP3    H237010   6.320   2.643   0.784
 5151TIP3   OH237011   6.083   2.201   1.233
 5151TIP3    H137012   6.058   2.260   1.158
 5151TIP3    H237013   6.017   2.227   1.301
 5152TIP3   OH237014   6.814   3.150   0.588
 5152TIP3    H137015   6.788   3.122   0.499
 5152TIP3    H237016   6.784   3.243   0.594
 5153TIP3   OH237017   6.336   2.967   1.258
 5153TIP3    H137018   6.266   3.031   1.278
 5153TIP3    H237019   6.407   3.027   1.230
 5154TIP3   OH237020   7.119   2.255   0.874
 5154TIP3    H137021   7.122   2.172   0.924
 5154TIP3    H237022   7.197   2.299   0.916
 5155TIP3   OH237023   6.042   2.388   1.036
 5155TIP3    H137024   6.104   2.457   1.068
 5155TIP3    H237025   6.094   2.347   0.963
 5156TIP3   OH237026   6.180   3.167   1.337
 5156TIP3    H137027   6.177   3.259   1.305
 5156TIP3    H237028   6.094   3.160   1.385
 5157TIP3   OH237029   5.788   3.129   0.418
 5157TIP3    H137030   5.765   3.161   0.329
 5157TIP3    H237031   5.795   3.212   0.469
 5158TIP3   OH237032   7.131   3.289   1.103
 5158TIP3    H137033   7.035   3.307   1.108
 5158TIP3    H237034   7.173   3.372   1.074
 5159TIP3   OH237035   7.162   2.136   1.209
 5159TIP3    H137036   7.094   2.204   1.221
 5159TIP3    H237037   7.239   2.184   1.177
 5160TIP3   OH237038   6.480   1.936   0.979
 5160TIP3    H137039   6.466   1.839   0.973
 5160TIP3    H237040   6.392   1.966   1.010
 5161TIP3   OH237041   6.971   3.468   0.759
 5161TIP3    H137042   7.016   3.400   0.705
 5161TIP3    H237043   7.012   3.547   0.717
 5162TIP3   OH237044   7.095   3.267   0.607
 5162TIP3    H137045   7.070   3.196   0.544
 5162TIP3    H237046   7.103   3.215   0.689
 5163TIP3   OH237047   7.233   3.139   1.465
 5163TIP3    H137048   7.262   3.070   1.402
 5163TIP3    H237049   7.275   3.215   1.421
 5164TIP3   OH237050   6.708   2.813   0.427
 5164TIP3    H137051   6.638   2.873   0.392
 5164TIP3    H237052   6.778   2.829   0.361
 5165TIP3   OH237053   6.713   2.664   0.140
 5165TIP3    H137054   6.789   2.671   0.198
 5165TIP3    H237055   6.746   2.605   0.071
 5166TIP3   OH237056   7.046   2.828   0.518
 5166TIP3    H137057   6.980   2.864   0.583
 5166TIP3    H237058   7.101   2.775   0.580
 5167TIP3   OH237059   7.048   2.654   1.433
 5167TIP3    H137060   7.043   2.733   1.488
 5167TIP3    H237061   6.984   2.681   1.364
 5168TIP3   OH237062   6.216   2.902   0.714
 5168TIP3    H137063   6.183   2.863   0.630
 5168TIP3    H237064   6.276   2.832   0.748
 5169TIP3   OH237065   6.347   3.241   0.982
 5169TIP3    H137066   6.345   3.187   0.902
 5169TIP3    H237067   6.425   3.205   1.028
 5170TIP3   OH237068   6.248   2.777   1.080
 5170TIP3    H137069   6.303   2.787   1.000
 5170TIP3    H237070   6.286   2.843   1.142
 5171TIP3   OH237071   6.884   3.337   1.150
 5171TIP3    H137072   6.859   3.395   1.222
 5171TIP3    H237073   6.865   3.249   1.191
 5172TIP3   OH237074   6.342   3.220   1.551
 5172TIP3    H137075   6.301   3.295   1.598
 5172TIP3    H237076   6.276   3.199   1.482
 5173TIP3   OH237077   6.946   2.742   0.293
 5173TIP3    H137078   6.996   2.781   0.370
 5173TIP3    H237079   6.975   2.804   0.222
 5174TIP3   OH237080   6.036   2.836   1.468
 5174TIP3    H137081   6.040   2.900   1.542
 5174TIP3    H237082   5.943   2.846   1.443
 5175TIP3   OH237083   6.711   3.429   0.635
 5175TIP3    H137084   6.754   3.457   0.716
 5175TIP3    H237085   6.656   3.504   0.613
 5176TIP3   OH237086   6.167   3.423   1.627
 5176TIP3    H137087   6.163   3.413   1.530
 5176TIP3    H237088   6.073   3.411   1.652
 5177TIP3   OH237089   6.111   2.805   0.476
 5177TIP3    H137090   6.084   2.882   0.423
 5177TIP3    H237091   6.046   2.738   0.453
 5178TIP3   OH237092   5.721   3.047   1.365
 5178TIP3    H137093   5.676   3.039   1.279
 5178TIP3    H237094   5.728   2.952   1.387
 5179TIP3   OH237095   5.697   3.320   1.043
 5179TIP3    H137096   5.793   3.309   1.041
 5179TIP3    H237097   5.688   3.402   1.094
 5180TIP3   OH237098   6.617   3.346   1.497
 5180TIP3    H137099   6.623   3.429   1.549
 5180TIP3    H237100   6.531   3.309   1.524
 5181TIP3   OH237101   6.660   3.719   0.477
 5181TIP3    H137102   6.655   3.716   0.381
 5181TIP3    H237103   6.664   3.816   0.495
 5182TIP3   OH237104   6.025   3.607   0.659
 5182TIP3    H137105   6.038   3.567   0.748
 5182TIP3    H237106   5.939   3.567   0.636
 5183TIP3   OH237107   6.960   3.637   0.173
 5183TIP3    H137108   7.013   3.565   0.132
 5183TIP3    H237109   6.969   3.616   0.268
 5184TIP3   OH237110   6.932   3.632   0.453
 5184TIP3    H137111   6.837   3.642   0.475
 5184TIP3    H237112   6.957   3.558   0.509
 5185TIP3   OH237113   7.189   2.556   1.662
 5185TIP3    H137114   7.182   2.590   1.573
 5185TIP3    H237115   7.239   2.471   1.645
 5186TIP3   OH237116   5.948   3.178   1.458
 5186TIP3    H137117   5.971   3.141   1.546
 5186TIP3    H237118   5.861   3.138   1.438
 5187TIP3   OH237119   6.217   2.026   1.054
 5187TIP3    H137120   6.126   2.014   1.018
 5187TIP3    H237121   6.204   2.109   1.103
 5188TIP3   OH237122   6.681   1.994   1.393
 5188TIP3    H137123   6.720   1.951   1.471
 5188TIP3    H237124   6.584   1.981   1.404
 5189TIP3   OH237125   7.004   2.373   1.476
 5189TIP3    H137126   6.955   2.358   1.559
 5189TIP3    H237127   6.995   2.468   1.461
 5190TIP3   OH237128   7.099   2.852   0.072
 5190TIP3    H137129   7.094   2.845  -0.025
 5190TIP3    H237130   7.174   2.912   0.079
 5191TIP3   OH237131   6.643   2.252   0.126
 5191TIP3    H137132   6.614   2.245   0.218
 5191TIP3    H237133   6.621   2.163   0.097
 5192TIP3   OH237134   6.227   2.523   1.179
 5192TIP3    H137135   6.153   2.522   1.243
 5192TIP3    H237136   6.223   2.614   1.143
 5193TIP3   OH237137   6.223   2.536   0.666
 5193TIP3    H137138   6.129   2.510   0.653
 5193TIP3    H237139   6.261   2.506   0.581
 5194TIP3   OH237140   6.766   2.592   0.551
 5194TIP3    H137141   6.719   2.674   0.521
 5194TIP3    H237142   6.818   2.590   0.474
 5195TIP3   OH237143   6.685   2.605   1.681
 5195TIP3    H137144   6.630   2.532   1.719
 5195TIP3    H237145   6.764   2.596   1.738
 5196TIP3   OH237146   6.877   2.535   0.829
 5196TIP3    H137147   6.850   2.592   0.755
 5196TIP3    H237148   6.888   2.448   0.786
 5197TIP3   OH237149   5.989   2.549   1.349
 5197TIP3    H137150   5.998   2.590   1.437
 5197TIP3    H237151   5.946   2.465   1.369
 5198TIP3   OH237152   6.346   2.309   0.064
 5198TIP3    H137153   6.295   2.246   0.120
 5198TIP3    H237154   6.290   2.349  -0.001
 5199TIP3   OH237155   5.655   2.261   0.746
 5199TIP3    H137156   5.723   2.256   0.816
 5199TIP3    H237157   5.700   2.222   0.669
 5200TIP3   OH237158   5.786   2.334   0.282
 5200TIP3    H137159   5.831   2.397   0.223
 5200TIP3    H237160   5.715   2.392   0.316
 5201TIP3   OH237161   6.798   2.692   1.284
 5201TIP3    H137162   6.836   2.623   1.225
 5201TIP3    H237163   6.752   2.640   1.351
 5202TIP3   OH237164   6.479   2.291   0.766
 5202TIP3    H137165   6.386   2.291   0.796
 5202TIP3    H237166   6.528   2.275   0.849
 5203TIP3   OH237167   5.960   2.446   0.654
 5203TIP3    H137168   5.871   2.461   0.615
 5203TIP3    H237169   5.988   2.362   0.616
 5204TIP3   OH237170   6.321   2.449   0.413
 5204TIP3    H137171   6.416   2.461   0.436
 5204TIP3    H237172   6.301   2.520   0.350
 5205TIP3   OH237173   6.913   2.211   1.093
 5205TIP3    H137174   6.846   2.219   1.163
 5205TIP3    H237175   6.864   2.190   1.012
 5206TIP3   OH237176   6.195   2.562   0.176
 5206TIP3    H137177   6.137   2.541   0.102
 5206TIP3    H237178   6.277   2.591   0.131
 5207TIP3   OH237179   7.244   3.776   1.725
 5207TIP3    H137180   7.262   3.818   1.639
 5207TIP3    H237181   7.310   3.814   1.783
 5208TIP3   OH237182   6.009   3.033   1.675
 5208TIP3    H137183   6.078   3.047   1.742
 5208TIP3    H237184   5.932   3.038   1.738
 5209TIP3   OH237185   6.607   2.566   0.957
 5209TIP3    H137186   6.668   2.513   0.905
 5209TIP3    H237187   6.592   2.511   1.035
 5210TIP3   OH237188   6.106   2.182   0.599
 5210TIP3    H137189   6.077   2.089   0.601
 5210TIP3    H237190   6.187   2.173   0.547
 5211TIP3   OH237191   6.471   2.399   1.198
 5211TIP3    H137192   6.388   2.451   1.207
 5211TIP3    H237193   6.526   2.434   1.270
 5212TIP3   OH237194   6.528   3.023   0.368
 5212TIP3    H137195   6.450   2.972   0.336
 5212TIP3    H237196   6.509   3.029   0.464
 5213TIP3   OH237197   7.218   2.941   1.247
 5213TIP3    H137198   7.291   2.959   1.183
 5213TIP3    H237199   7.142   2.945   1.187
 5214TIP3   OH237200   6.910   2.297   0.195
 5214TIP3    H137201   6.818   2.311   0.164
 5214TIP3    H237202   6.949   2.386   0.202
 5215TIP3   OH237203   6.680   3.047   1.489
 5215TIP3    H137204   6.644   3.005   1.568
 5215TIP3    H237205   6.657   3.139   1.501
 5216TIP3   OH237206   7.052   2.489   0.281
 5216TIP3    H137207   7.099   2.476   0.366
 5216TIP3    H237208   7.009   2.576   0.280
 5217TIP3   OH237209   6.041   2.960   0.947
 5217TIP3    H137210   6.110   2.952   0.879
 5217TIP3    H237211   6.047   2.874   0.993
 5218TIP3   OH237212   6.735   3.170   0.268
 5218TIP3    H137213   6.705   3.252   0.312
 5218TIP3    H237214   6.666   3.104   0.293
 5219TIP3   OH237215   5.740   2.801   1.473
 5219TIP3    H137216   5.757   2.758   1.559
 5219TIP3    H237217   5.677   2.740   1.430
 5220TIP3   OH237218   6.441   2.760   1.690
 5220TIP3    H137219   6.410   2.726   1.605
 5220TIP3    H237220   6.532   2.726   1.693
 5221TIP3   OH237221   6.910   3.293   1.484
 5221TIP3    H137222   6.816   3.306   1.463
 5221TIP3    H237223   6.908   3.319   1.578
 5222TIP3   OH237224   7.021   2.871   1.076
 5222TIP3    H137225   6.927   2.848   1.062
 5222TIP3    H237226   7.068   2.796   1.034
 5223TIP3   OH237227   6.278   3.305   0.682
 5223TIP3    H137228   6.327   3.387   0.667
 5223TIP3    H237229   6.189   3.329   0.655
 5224TIP3   OH237230   5.852   2.788   0.140
 5224TIP3    H137231   5.913   2.853   0.180
 5224TIP3    H237232   5.765   2.819   0.171
 5225TIP3   OH237233   6.419   3.074   0.636
 5225TIP3    H137234   6.388   3.165   0.648
 5225TIP3    H237235   6.348   3.024   0.681
 5226TIP3   OH237236   6.465   3.490   1.277
 5226TIP3    H137237   6.508   3.572   1.251
 5226TIP3    H237238   6.526   3.456   1.345
 5227TIP3   OH237239   6.289   3.574   0.588
 5227TIP3    H137240   6.192   3.585   0.605
 5227TIP3    H237241   6.323   3.656   0.628
 5228TIP3   OH237242   6.820   3.092   1.241
 5228TIP3    H137243   6.784   3.072   1.330
 5228TIP3    H237244   6.882   3.019   1.224
 5229TIP3   OH237245   7.048   3.192   0.149
 5229TIP3    H137246   7.080   3.151   0.233
 5229TIP3    H237247   6.952   3.178   0.158
 5230TIP3   OH237248   7.097   3.548   1.490
 5230TIP3    H137249   7.027   3.498   1.443
 5230TIP3    H237250   7.120   3.618   1.426
 5231TIP3   OH237251   5.905   2.274   1.430
 5231TIP3    H137252   5.817   2.313   1.426
 5231TIP3    H237253   5.896   2.189   1.474
 5232TIP3   OH237254   7.129   3.054   0.371
 5232TIP3    H137255   7.106   2.980   0.430
 5232TIP3    H237256   7.222   3.069   0.397
 5233TIP3   OH237257   5.866   3.453   1.271
 5233TIP3    H137258   5.895   3.361   1.272
 5233TIP3    H237259   5.895   3.482   1.359
 5234TIP3   OH237260   6.343   3.259   0.245
 5234TIP3    H137261   6.363   3.198   0.319
 5234TIP3    H237262   6.328   3.344   0.290
 5235TIP3   OH237263   5.989   2.984   0.288
 5235TIP3    H137264   5.924   3.024   0.349
 5235TIP3    H237265   6.046   3.059   0.266
 5236TIP3   OH237266   6.775   2.251   1.323
 5236TIP3    H137267   6.849   2.258   1.385
 5236TIP3    H237268   6.738   2.164   1.343
 5237TIP3   OH237269   6.854   2.218   0.439
 5237TIP3    H137270   6.879   2.249   0.349
 5237TIP3    H237271   6.920   2.248   0.500
 5238TIP3   OH237272   6.626   3.428   0.320
 5238TIP3    H137273   6.554   3.489   0.342
 5238TIP3    H237274   6.685   3.478   0.260
 5239TIP3   OH237275   6.576   2.384   0.515
 5239TIP3    H137276   6.652   2.443   0.521
 5239TIP3    H237277   6.545   2.370   0.607
 5240TIP3   OH237278   6.633   2.487   1.432
 5240TIP3    H137279   6.641   2.544   1.510
 5240TIP3    H237280   6.698   2.416   1.443
 5241TIP3   OH237281   6.659   2.091   0.600
 5241TIP3    H137282   6.627   2.153   0.669
 5241TIP3    H237283   6.729   2.145   0.558
 5242TIP3   OH237284   6.352   3.536   0.320
 5242TIP3    H137285   6.369   3.621   0.274
 5242TIP3    H237286   6.330   3.568   0.412
 5243TIP3   OH237287   6.227   2.202   0.271
 5243TIP3    H137288   6.222   2.290   0.316
 5243TIP3    H237289   6.316   2.176   0.305
 5244TIP3   OH237290   7.236   2.251   1.501
 5244TIP3    H137291   7.153   2.304   1.503
 5244TIP3    H237292   7.277   2.278   1.418
 5245TIP3   OH237293   7.111   2.652   0.922
 5245TIP3    H137294   7.027   2.608   0.896
 5245TIP3    H237295   7.153   2.582   0.973
 5246TIP3   OH237296   6.051   3.245   0.180
 5246TIP3    H137297   6.113   3.310   0.211
 5246TIP3    H237298   6.102   3.197   0.111
 5247TIP3   OH237299   5.893   2.509   0.095
 5247TIP3    H137300   5.887   2.606   0.111
 5247TIP3    H237301   5.802   2.493   0.064
 5248TIP3   OH237302   7.238   3.576   1.087
 5248TIP3    H137303   7.233   3.639   1.015
 5248TIP3    H237304   7.333   3.583   1.110
 5249TIP3   OH237305   5.966   1.990   0.967
 5249TIP3    H137306   5.946   1.992   0.870
 5249TIP3    H237307   5.924   1.905   0.992
 5250TIP3   OH237308   5.861   3.382   0.581
 5250TIP3    H137309   5.776   3.427   0.579
 5250TIP3    H237310   5.909   3.430   0.512
 5251TIP3   OH237311   5.791   3.643   1.705
 5251TIP3    H137312   5.839   3.626   1.788
 5251TIP3    H237313   5.740   3.561   1.694
 5252TIP3   OH237314   6.696   3.492   0.072
 5252TIP3    H137315   6.619   3.443   0.045
 5252TIP3    H237316   6.752   3.455   0.002
 5253TIP3   OH237317   6.908   3.376   1.742
 5253TIP3    H137318   6.870   3.291   1.773
 5253TIP3    H237319   6.980   3.389   1.806
 5254TIP3   OH237320   7.118   3.466   0.030
 5254TIP3    H137321   7.146   3.387   0.079
 5254TIP3    H237322   7.196   3.491  -0.020
 5255TIP3   OH237323   5.776   3.027   1.801
 5255TIP3    H137324   5.788   2.932   1.782
 5255TIP3    H237325   5.696   3.050   1.752
 5256TIP3   OH237326   6.221   3.069   0.027
 5256TIP3    H137327   6.220   2.983   0.072
 5256TIP3    H237328   6.272   3.043  -0.052
 5257TIP3   OH237329   6.449   3.023   1.746
 5257TIP3    H137330   6.411   3.055   1.663
 5257TIP3    H237331   6.452   2.925   1.737
 5258TIP3   OH237332   7.011   3.008   1.487
 5258TIP3    H137333   7.090   3.067   1.481
 5258TIP3    H237334   6.943   3.075   1.493
 5259TIP3   OH237335   5.867   2.749   1.750
 5259TIP3    H137336   5.902   2.660   1.736
 5259TIP3    H237337   5.836   2.747   1.842
 5260TIP3   OH237338   6.330   2.865   0.253
 5260TIP3    H137339   6.280   2.811   0.317
 5260TIP3    H237340   6.360   2.796   0.190
 5261TIP3   OH237341   6.254   2.642   1.483
 5261TIP3    H137342   6.196   2.715   1.510
 5261TIP3    H237343   6.294   2.679   1.402
 5262TIP3   OH237344   6.434   2.682   0.073
 5262TIP3    H137345   6.426   2.668  -0.022
 5262TIP3    H237346   6.532   2.692   0.084
 5263TIP3   OH237347   6.760   2.900   1.822
 5263TIP3    H137348   6.855   2.897   1.804
 5263TIP3    H237349   6.745   2.819   1.873
 5264TIP3   OH237350   6.294   2.380   1.592
 5264TIP3    H137351   6.306   2.309   1.525
 5264TIP3    H237352   6.291   2.461   1.536
 5265TIP3   OH237353   6.335   2.218   1.344
 5265TIP3    H137354   6.387   2.264   1.274
 5265TIP3    H237355   6.246   2.210   1.303
 5266TIP3   OH237356   6.489   2.765   1.369
 5266TIP3    H137357   6.565   2.750   1.312
 5266TIP3    H237358   6.454   2.850   1.336
 5267TIP3   OH237359   6.935   2.547   1.864
 5267TIP3    H137360   6.953   2.453   1.864
 5267TIP3    H237361   7.023   2.586   1.864
 5268TIP3   OH237362   7.066   2.827   1.683
 5268TIP3    H137363   7.036   2.894   1.618
 5268TIP3    H237364   7.158   2.814   1.660
 5269TIP3   OH237365   6.139   2.504   1.782
 5269TIP3    H137366   6.063   2.446   1.763
 5269TIP3    H237367   6.207   2.468   1.721
 5270TIP3   OH237368   6.414   1.962   1.384
 5270TIP3    H137369   6.397   2.058   1.374
 5270TIP3    H237370   6.339   1.925   1.334
 5271TIP3   OH237371   6.543   2.390   1.744
 5271TIP3    H137372   6.511   2.376   1.836
 5271TIP3    H237373   6.460   2.375   1.694
 5272TIP3   OH237374   6.809   2.304   1.652
 5272TIP3    H137375   6.714   2.314   1.668
 5272TIP3    H237376   6.841   2.246   1.723
 5273TIP3   OH237377   6.980   2.172   1.846
 5273TIP3    H137378   6.971   2.076   1.850
 5273TIP3    H237379   6.946   2.201   1.933
 5274TIP3   OH237380   5.949   2.297   1.757
 5274TIP3    H137381   5.979   2.225   1.698
 5274TIP3    H237382   5.944   2.253   1.843
 5275TIP3   OH237383   6.437   1.899   1.653
 5275TIP3    H137384   6.504   1.828   1.649
 5275TIP3    H237385   6.422   1.916   1.558
 5276TIP3   OH237386   6.480   2.064   1.856
 5276TIP3    H137387   6.454   2.010   1.778
 5276TIP3    H237388   6.415   2.137   1.856
 5277TIP3   OH237389   6.422   3.746   0.172
 5277TIP3    H137390   6.517   3.765   0.190
 5277TIP3    H237391   6.401   3.820   0.114
 5278TIP3   OH237392   5.778   3.213   0.129
 5278TIP3    H137393   5.874   3.221   0.150
 5278TIP3    H237394   5.780   3.152   0.054
 5279TIP3   OH237395   5.652   3.750   0.626
 5279TIP3    H137396   5.581   3.701   0.579
 5279TIP3    H237397   5.680   3.684   0.692
 5280TIP3   OH237398   5.735   3.563   0.813
 5280TIP3    H137399   5.699   3.475   0.834
 5280TIP3    H237400   5.758   3.596   0.902
 5281TIP3   OH237401   7.281   3.372   1.329
 5281TIP3    H137402   7.215   3.408   1.390
 5281TIP3    H237403   7.229   3.329   1.259
 5282TIP3   OH237404   7.184   2.665   0.665
 5282TIP3    H137405   7.221   2.576   0.670
 5282TIP3    H237406   7.203   2.694   0.758
 5283TIP3   OH237407   5.740   2.870   1.062
 5283TIP3    H137408   5.759   2.862   0.966
 5283TIP3    H237409   5.829   2.852   1.099
 5284TIP3   OH237410   7.227   2.271   0.021
 5284TIP3    H137411   7.300   2.223   0.064
 5284TIP3    H237412   7.153   2.211   0.027
 5285TIP3   OH237413   7.198   2.416   0.491
 5285TIP3    H137414   7.233   2.331   0.526
 5285TIP3    H237415   7.283   2.450   0.455
 5286TIP3   OH237416  -0.053   2.392   1.045
 5286TIP3    H137417   0.036   2.429   1.033
 5286TIP3    H237418  -0.073   2.456   1.115
 5287TIP3   OH237419   7.278   2.552   1.348
 5287TIP3    H137420   7.185   2.579   1.360
 5287TIP3    H237421   7.315   2.623   1.293
 5288TIP3   OH237422   5.701   2.389   1.658
 5288TIP3    H137423   5.793   2.383   1.696
 5288TIP3    H237424   5.657   2.321   1.714
 5289TIP3   OH237425   7.182   2.120   0.571
 5289TIP3    H137426   7.276   2.101   0.594
 5289TIP3    H237427   7.188   2.077   0.483
 5290TIP3   OH237428   5.821   2.229   0.966
 5290TIP3    H137429   5.870   2.147   0.988
 5290TIP3    H237430   5.878   2.299   1.001
 5291TIP3   OH237431   5.652   2.527   1.069
 5291TIP3    H137432   5.706   2.505   0.990
 5291TIP3    H237433   5.696   2.611   1.093
 5292TIP3   OH237434   5.687   2.156   0.473
 5292TIP3    H137435   5.592   2.174   0.460
 5292TIP3    H237436   5.728   2.205   0.401
 5293TIP3   OH237437   7.143   3.633   0.681
 5293TIP3    H137438   7.208   3.602   0.616
 5293TIP3    H237439   7.198   3.694   0.733
 5294TIP3   OH237440   5.684   2.030   1.312
 5294TIP3    H137441   5.612   1.989   1.364
 5294TIP3    H237442   5.637   2.083   1.243
 5295TIP3   OH237443   5.903   3.347   1.723
 5295TIP3    H137444   5.820   3.362   1.676
 5295TIP3    H237445   5.874   3.332   1.813
 5296TIP3   OH237446   6.195   3.442   1.348
 5296TIP3    H137447   6.161   3.528   1.319
 5296TIP3    H237448   6.288   3.450   1.317
 5297TIP3   OH237449   6.627   3.583   1.641
 5297TIP3    H137450   6.648   3.550   1.730
 5297TIP3    H237451   6.716   3.613   1.612
 5298TIP3   OH237452   6.857   3.709   1.568
 5298TIP3    H137453   6.931   3.651   1.545
 5298TIP3    H237454   6.895   3.754   1.647
 5299TIP3   OH237455   5.938   3.766   1.347
 5299TIP3    H137456   5.865   3.815   1.307
 5299TIP3    H237457   5.904   3.746   1.436
 5300TIP3   OH237458   6.185   3.723   1.254
 5300TIP3    H137459   6.096   3.738   1.294
 5300TIP3    H237460   6.179   3.782   1.177
 5301TIP3   OH237461   6.661   3.715   1.168
 5301TIP3    H137462   6.607   3.769   1.107
 5301TIP3    H237463   6.668   3.777   1.245
 5302TIP3   OH237464   6.890   3.598   1.260
 5302TIP3    H137465   6.797   3.622   1.242
 5302TIP3    H237466   6.927   3.687   1.275
 5303TIP3   OH237467   7.125   3.752   1.291
 5303TIP3    H137468   7.130   3.849   1.278
 5303TIP3    H237469   7.176   3.719   1.216
 5304TIP3   OH237470   5.883   3.630   1.042
 5304TIP3    H137471   5.876   3.585   1.128
 5304TIP3    H237472   5.965   3.593   1.003
 5305TIP3   OH237473   6.091   3.501   0.907
 5305TIP3    H137474   6.074   3.408   0.930
 5305TIP3    H237475   6.177   3.516   0.953
 5306TIP3   OH237476   6.349   3.550   0.994
 5306TIP3    H137477   6.367   3.458   0.968
 5306TIP3    H237478   6.356   3.544   1.091
 5307TIP3   OH237479   6.696   2.114   0.909
 5307TIP3    H137480   6.629   2.049   0.936
 5307TIP3    H237481   6.752   2.062   0.850
 5308TIP3   OH237482   7.212   1.919   0.917
 5308TIP3    H137483   7.270   1.981   0.871
 5308TIP3    H237484   7.123   1.955   0.895
 5309TIP3   OH237485   5.933   1.976   0.695
 5309TIP3    H137486   5.854   1.956   0.641
 5309TIP3    H237487   5.981   1.892   0.688
 5310TIP3   OH237488   5.809   1.952   0.266
 5310TIP3    H137489   5.859   2.016   0.212
 5310TIP3    H237490   5.753   2.010   0.322
 5311TIP3   OH237491   6.382   1.970   0.672
 5311TIP3    H137492   6.472   2.006   0.665
 5311TIP3    H237493   6.378   1.948   0.765
 5312TIP3   OH237494   6.954   1.968   0.835
 5312TIP3    H137495   6.950   1.984   0.740
 5312TIP3    H237496   6.912   1.879   0.846
 5313TIP3   OH237497   7.076   1.968   0.389
 5313TIP3    H137498   7.005   2.033   0.385
 5313TIP3    H237499   7.030   1.888   0.421
 5314TIP3   OH237500   5.804   3.549   0.366
 5314TIP3    H137501   5.736   3.549   0.296
 5314TIP3    H237502   5.805   3.643   0.384
 5315TIP3   OH237503   5.986   2.119   0.131
 5315TIP3    H137504   6.041   2.070   0.069
 5315TIP3    H237505   6.049   2.161   0.194
 5316TIP3   OH237506   6.500   2.173   0.355
 5316TIP3    H137507   6.522   2.115   0.430
 5316TIP3    H237508   6.501   2.258   0.405
 5317TIP3   OH237509   6.685   3.702   0.206
 5317TIP3    H137510   6.782   3.708   0.189
 5317TIP3    H237511   6.672   3.636   0.134
 5318TIP3   OH237512   5.920   2.032   1.638
 5318TIP3    H137513   5.887   1.951   1.681
 5318TIP3    H237514   6.013   2.029   1.672
 5319TIP3   OH237515   6.122   1.966   1.799
 5319TIP3    H137516   6.211   1.936   1.775
 5319TIP3    H237517   6.090   1.886   1.842
 5320TIP3   OH237518   5.990   3.652   0.061
 5320TIP3    H137519   5.954   3.672   0.149
 5320TIP3    H237520   6.059   3.589   0.080
 5321TIP3   OH237521   7.284   3.503   1.689
 5321TIP3    H137522   7.209   3.486   1.629
 5321TIP3    H237523   7.269   3.598   1.702
 5322TIP3   OH237524   1.186   4.777   0.680
 5322TIP3    H137525   1.185   4.875   0.674
 5322TIP3    H237526   1.114   4.753   0.619
 5323TIP3   OH237527   1.071   4.703   1.029
 5323TIP3    H137528   1.070   4.637   1.100
 5323TIP3    H237529   1.038   4.652   0.953
 5324TIP3   OH237530   0.312   4.668   1.181
 5324TIP3    H137531   0.318   4.601   1.253
 5324TIP3    H237532   0.382   4.729   1.208
 5325TIP3   OH237533   1.441   4.998   0.857
 5325TIP3    H137534   1.400   4.925   0.906
 5325TIP3    H237535   1.443   5.068   0.924
 5326TIP3   OH237536   0.400   5.113   1.036
 5326TIP3    H137537   0.368   5.028   1.002
 5326TIP3    H237538   0.496   5.096   1.039
 5327TIP3   OH237539   0.092   4.470   0.544
 5327TIP3    H137540   0.044   4.550   0.577
 5327TIP3    H237541   0.012   4.417   0.540
 5328TIP3   OH237542   0.132   4.687   0.793
 5328TIP3    H137543   0.161   4.611   0.846
 5328TIP3    H237544   0.206   4.703   0.733
 5329TIP3   OH237545   1.152   5.513   0.881
 5329TIP3    H137546   1.217   5.444   0.853
 5329TIP3    H237547   1.132   5.480   0.968
 5330TIP3   OH237548   0.909   4.943   1.075
 5330TIP3    H137549   0.943   4.880   1.010
 5330TIP3    H237550   0.990   4.958   1.128
 5331TIP3   OH237551   1.770   4.108   1.149
 5331TIP3    H137552   1.787   4.168   1.225
 5331TIP3    H237553   1.826   4.150   1.082
 5332TIP3   OH237554   1.226   4.389   1.107
 5332TIP3    H137555   1.243   4.293   1.107
 5332TIP3    H237556   1.217   4.405   1.011
 5333TIP3   OH237557   0.541   4.197   0.829
 5333TIP3    H137558   0.549   4.283   0.782
 5333TIP3    H237559   0.496   4.143   0.761
 5334TIP3   OH237560   1.312   4.206   0.666
 5334TIP3    H137561   1.377   4.175   0.733
 5334TIP3    H237562   1.368   4.263   0.611
 5335TIP3   OH237563   0.198   4.431   0.897
 5335TIP3    H137564   0.270   4.384   0.944
 5335TIP3    H237565   0.214   4.404   0.807
 5336TIP3   OH237566   0.716   4.595   0.833
 5336TIP3    H137567   0.783   4.537   0.874
 5336TIP3    H237568   0.664   4.528   0.784
 5337TIP3   OH237569   1.812   4.249   1.378
 5337TIP3    H137570   1.752   4.327   1.364
 5337TIP3    H237571   1.816   4.242   1.474
 5338TIP3   OH237572   0.431   4.086   1.231
 5338TIP3    H137573   0.402   4.145   1.158
 5338TIP3    H237574   0.364   4.110   1.299
 5339TIP3   OH237575   1.157   5.036   0.588
 5339TIP3    H137576   1.129   5.008   0.499
 5339TIP3    H237577   1.127   5.129   0.592
 5340TIP3   OH237578   0.682   4.853   1.256
 5340TIP3    H137579   0.610   4.916   1.279
 5340TIP3    H237580   0.752   4.913   1.228
 5341TIP3   OH237581   1.490   4.142   0.866
 5341TIP3    H137582   1.471   4.064   0.918
 5341TIP3    H237583   1.560   4.184   0.919
 5342TIP3   OH237584   0.382   4.273   1.036
 5342TIP3    H137585   0.445   4.342   1.070
 5342TIP3    H237586   0.438   4.234   0.964
 5343TIP3   OH237587   0.524   5.051   1.339
 5343TIP3    H137588   0.520   5.143   1.306
 5343TIP3    H237589   0.435   5.044   1.380
 5344TIP3   OH237590   0.129   5.018   0.416
 5344TIP3    H137591   0.111   5.049   0.325
 5344TIP3    H237592   0.140   5.100   0.468
 5345TIP3   OH237593   1.493   5.182   1.092
 5345TIP3    H137594   1.397   5.192   1.107
 5345TIP3    H237595   1.520   5.274   1.074
 5346TIP3   OH237596   1.526   4.010   1.234
 5346TIP3    H137597   1.453   4.072   1.224
 5346TIP3    H237598   1.597   4.051   1.180
 5347TIP3   OH237599   0.821   3.822   0.975
 5347TIP3    H137600   0.811   3.725   0.974
 5347TIP3    H237601   0.736   3.852   1.012
 5348TIP3   OH237602   1.319   5.359   0.753
 5348TIP3    H137603   1.363   5.288   0.703
 5348TIP3    H237604   1.362   5.439   0.714
 5349TIP3   OH237605   1.440   5.152   0.604
 5349TIP3    H137606   1.411   5.082   0.543
 5349TIP3    H237607   1.444   5.103   0.689
 5350TIP3   OH237608   1.581   5.037   1.445
 5350TIP3    H137609   1.615   4.956   1.398
 5350TIP3    H237610   1.630   5.109   1.402
 5351TIP3   OH237611   1.051   4.701   0.429
 5351TIP3    H137612   0.982   4.759   0.391
 5351TIP3    H237613   1.122   4.710   0.363
 5352TIP3   OH237614   1.056   4.554   0.139
 5352TIP3    H137615   1.130   4.554   0.202
 5352TIP3    H237616   1.089   4.490   0.074
 5353TIP3   OH237617   1.793   4.625   1.234
 5353TIP3    H137618   1.737   4.701   1.268
 5353TIP3    H237619   1.844   4.672   1.168
 5354TIP3   OH237620   1.396   4.722   0.525
 5354TIP3    H137621   1.321   4.746   0.585
 5354TIP3    H237622   1.443   4.654   0.575
 5355TIP3   OH237623   1.385   4.536   1.435
 5355TIP3    H137624   1.393   4.619   1.486
 5355TIP3    H237625   1.327   4.570   1.365
 5356TIP3   OH237626   0.560   4.789   0.714
 5356TIP3    H137627   0.524   4.748   0.631
 5356TIP3    H237628   0.620   4.718   0.748
 5357TIP3   OH237629   0.690   5.127   0.982
 5357TIP3    H137630   0.689   5.073   0.902
 5357TIP3    H237631   0.768   5.090   1.028
 5358TIP3   OH237632   0.594   4.662   1.080
 5358TIP3    H137633   0.648   4.673   1.000
 5358TIP3    H237634   0.629   4.730   1.142
 5359TIP3   OH237635   1.231   5.220   1.151
 5359TIP3    H137636   1.202   5.284   1.217
 5359TIP3    H237637   1.206   5.134   1.193
 5360TIP3   OH237638   0.684   5.104   1.554
 5360TIP3    H137639   0.646   5.184   1.596
 5360TIP3    H237640   0.619   5.086   1.481
 5361TIP3   OH237641   1.284   4.639   0.291
 5361TIP3    H137642   1.339   4.660   0.370
 5361TIP3    H237643   1.325   4.694   0.220
 5362TIP3   OH237644   0.379   4.723   1.468
 5362TIP3    H137645   0.384   4.790   1.538
 5362TIP3    H237646   0.285   4.731   1.443
 5363TIP3   OH237647   1.055   5.313   0.638
 5363TIP3    H137648   1.099   5.345   0.717
 5363TIP3    H237649   1.000   5.388   0.612
 5364TIP3   OH237650   0.509   5.306   1.625
 5364TIP3    H137651   0.505   5.300   1.528
 5364TIP3    H237652   0.415   5.296   1.649
 5365TIP3   OH237653   1.654   3.815   0.278
 5365TIP3    H137654   1.559   3.826   0.304
 5365TIP3    H237655   1.678   3.900   0.239
 5366TIP3   OH237656   0.457   4.690   0.474
 5366TIP3    H137657   0.428   4.768   0.423
 5366TIP3    H237658   0.391   4.624   0.454
 5367TIP3   OH237659   1.766   5.248   0.116
 5367TIP3    H137660   1.779   5.344   0.129
 5367TIP3    H237661   1.859   5.220   0.109
 5368TIP3   OH237662   0.122   4.920   1.339
 5368TIP3    H137663   0.044   4.931   1.281
 5368TIP3    H237664   0.084   4.842   1.386
 5369TIP3   OH237665   0.068   5.228   1.018
 5369TIP3    H137666   0.152   5.190   1.045
 5369TIP3    H237667   0.040   5.277   1.096
 5370TIP3   OH237668   1.865   5.277   1.608
 5370TIP3    H137669   1.853   5.180   1.608
 5370TIP3    H237670   1.779   5.301   1.651
 5371TIP3   OH237671   0.960   5.232   1.497
 5371TIP3    H137672   0.966   5.315   1.550
 5371TIP3    H237673   0.873   5.195   1.523
 5372TIP3   OH237674   1.002   5.605   0.478
 5372TIP3    H137675   0.995   5.598   0.381
 5372TIP3    H237676   1.006   5.701   0.494
 5373TIP3   OH237677   0.363   5.496   0.661
 5373TIP3    H137678   0.382   5.451   0.747
 5373TIP3    H237679   0.284   5.448   0.634
 5374TIP3   OH237680   1.306   5.525   0.174
 5374TIP3    H137681   1.353   5.449   0.133
 5374TIP3    H237682   1.313   5.501   0.269
 5375TIP3   OH237683   1.278   5.520   0.454
 5375TIP3    H137684   1.182   5.527   0.473
 5375TIP3    H237685   1.303   5.446   0.511
 5376TIP3   OH237686   1.576   4.418   1.658
 5376TIP3    H137687   1.533   4.472   1.589
 5376TIP3    H237688   1.580   4.331   1.618
 5377TIP3   OH237689   0.293   5.071   1.465
 5377TIP3    H137690   0.312   5.026   1.549
 5377TIP3    H237691   0.210   5.027   1.435
 5378TIP3   OH237692   0.561   3.914   1.051
 5378TIP3    H137693   0.469   3.900   1.019
 5378TIP3    H237694   0.548   3.994   1.104
 5379TIP3   OH237695   1.023   3.880   1.392
 5379TIP3    H137696   1.063   3.839   1.471
 5379TIP3    H237697   0.926   3.866   1.407
 5380TIP3   OH237698   1.355   4.264   1.480
 5380TIP3    H137699   1.297   4.243   1.557
 5380TIP3    H237700   1.338   4.358   1.459
 5381TIP3   OH237701   1.436   4.749   0.072
 5381TIP3    H137702   1.437   4.731  -0.024
 5381TIP3    H237703   1.523   4.792   0.083
 5382TIP3   OH237704   0.989   4.136   0.124
 5382TIP3    H137705   0.959   4.132   0.216
 5382TIP3    H237706   0.961   4.048   0.096
 5383TIP3   OH237707   0.568   4.408   1.177
 5383TIP3    H137708   0.497   4.408   1.244
 5383TIP3    H237709   0.567   4.500   1.144
 5384TIP3   OH237710   0.568   4.419   0.667
 5384TIP3    H137711   0.474   4.397   0.652
 5384TIP3    H237712   0.606   4.393   0.581
 5385TIP3   OH237713   1.119   4.470   0.541
 5385TIP3    H137714   1.078   4.553   0.509
 5385TIP3    H237715   1.188   4.455   0.474
 5386TIP3   OH237716   1.027   4.491   1.687
 5386TIP3    H137717   0.972   4.416   1.718
 5386TIP3    H237718   1.109   4.479   1.737
 5387TIP3   OH237719   1.222   4.419   0.828
 5387TIP3    H137720   1.194   4.476   0.754
 5387TIP3    H237721   1.232   4.335   0.781
 5388TIP3   OH237722   0.335   4.434   1.349
 5388TIP3    H137723   0.337   4.474   1.438
 5388TIP3    H237724   0.286   4.352   1.368
 5389TIP3   OH237725   0.686   4.195   0.067
 5389TIP3    H137726   0.631   4.132   0.116
 5389TIP3    H237727   0.626   4.231   0.002
 5390TIP3   OH237728   0.034   4.176   0.728
 5390TIP3    H137729   0.069   4.142   0.813
 5390TIP3    H237730   0.047   4.102   0.670
 5391TIP3   OH237731   0.127   4.230   0.282
 5391TIP3    H137732   0.180   4.284   0.220
 5391TIP3    H237733   0.055   4.285   0.307
 5392TIP3   OH237734   1.139   4.578   1.283
 5392TIP3    H137735   1.179   4.510   1.225
 5392TIP3    H237736   1.095   4.525   1.351
 5393TIP3   OH237737   0.820   4.171   0.767
 5393TIP3    H137738   0.728   4.179   0.799
 5393TIP3    H237739   0.871   4.161   0.849
 5394TIP3   OH237740   0.305   4.330   0.653
 5394TIP3    H137741   0.217   4.348   0.615
 5394TIP3    H237742   0.329   4.246   0.612
 5395TIP3   OH237743   0.667   4.335   0.416
 5395TIP3    H137744   0.762   4.349   0.434
 5395TIP3    H237745   0.642   4.403   0.350
 5396TIP3   OH237746   1.262   4.099   1.092
 5396TIP3    H137747   1.194   4.105   1.162
 5396TIP3    H237748   1.212   4.075   1.013
 5397TIP3   OH237749   0.538   4.452   0.176
 5397TIP3    H137750   0.483   4.419   0.104
 5397TIP3    H237751   0.620   4.475   0.129
 5398TIP3   OH237752   1.581   5.667   1.725
 5398TIP3    H137753   1.613   5.704   1.640
 5398TIP3    H237754   1.656   5.692   1.782
 5399TIP3   OH237755   0.348   4.906   1.684
 5399TIP3    H137756   0.423   4.941   1.734
 5399TIP3    H237757   0.269   4.928   1.736
 5400TIP3   OH237758   0.950   4.451   0.956
 5400TIP3    H137759   1.010   4.398   0.903
 5400TIP3    H237760   0.936   4.397   1.035
 5401TIP3   OH237761   0.448   4.072   0.604
 5401TIP3    H137762   0.406   3.984   0.604
 5401TIP3    H237763   0.522   4.078   0.543
 5402TIP3   OH237764   0.814   4.285   1.197
 5402TIP3    H137765   0.732   4.336   1.207
 5402TIP3    H237766   0.869   4.319   1.271
 5403TIP3   OH237767   0.874   4.905   0.369
 5403TIP3    H137768   0.794   4.860   0.335
 5403TIP3    H237769   0.851   4.917   0.464
 5404TIP3   OH237770   1.582   4.805   1.189
 5404TIP3    H137771   1.644   4.881   1.181
 5404TIP3    H237772   1.494   4.844   1.188
 5405TIP3   OH237773   1.260   4.187   0.186
 5405TIP3    H137774   1.165   4.202   0.169
 5405TIP3    H237775   1.290   4.274   0.217
 5406TIP3   OH237776   1.023   4.934   1.489
 5406TIP3    H137777   0.988   4.891   1.568
 5406TIP3    H237778   0.998   5.026   1.501
 5407TIP3   OH237779   1.330   4.380   0.353
 5407TIP3    H137780   1.420   4.366   0.389
 5407TIP3    H237781   1.339   4.461   0.300
 5408TIP3   OH237782   0.383   4.846   0.946
 5408TIP3    H137783   0.452   4.838   0.878
 5408TIP3    H237784   0.393   4.761   0.994
 5409TIP3   OH237785   1.083   5.054   0.273
 5409TIP3    H137786   1.047   5.138   0.307
 5409TIP3    H237787   1.009   4.991   0.291
 5410TIP3   OH237788   0.082   4.684   1.475
 5410TIP3    H137789   0.106   4.640   1.558
 5410TIP3    H237790   0.022   4.621   1.432
 5411TIP3   OH237791   0.783   4.643   1.693
 5411TIP3    H137792   0.753   4.613   1.606
 5411TIP3    H237793   0.876   4.612   1.693
 5412TIP3   OH237794   1.251   5.177   1.486
 5412TIP3    H137795   1.158   5.194   1.462
 5412TIP3    H237796   1.249   5.205   1.579
 5413TIP3   OH237797   1.819   4.394   0.328
 5413TIP3    H137798   1.763   4.363   0.254
 5413TIP3    H237799   1.826   4.488   0.300
 5414TIP3   OH237800   1.822   4.994   1.609
 5414TIP3    H137801   1.731   4.996   1.571
 5414TIP3    H237802   1.872   4.971   1.529
 5415TIP3   OH237803   1.649   5.277   0.365
 5415TIP3    H137804   1.612   5.194   0.398
 5415TIP3    H237805   1.679   5.257   0.274
 5416TIP3   OH237806   1.361   4.762   1.067
 5416TIP3    H137807   1.270   4.733   1.065
 5416TIP3    H237808   1.412   4.684   1.036
 5417TIP3   OH237809   0.620   5.192   0.687
 5417TIP3    H137810   0.671   5.272   0.665
 5417TIP3    H237811   0.532   5.215   0.654
 5418TIP3   OH237812   0.188   4.674   0.144
 5418TIP3    H137813   0.256   4.737   0.177
 5418TIP3    H237814   0.106   4.711   0.176
 5419TIP3   OH237815   0.763   4.958   0.639
 5419TIP3    H137816   0.732   5.050   0.646
 5419TIP3    H237817   0.690   4.909   0.682
 5420TIP3   OH237818   0.809   5.376   1.278
 5420TIP3    H137819   0.853   5.458   1.250
 5420TIP3    H237820   0.870   5.343   1.346
 5421TIP3   OH237821   0.630   5.458   0.590
 5421TIP3    H137822   0.534   5.472   0.604
 5421TIP3    H237823   0.667   5.541   0.626
 5422TIP3   OH237824   1.159   4.976   1.240
 5422TIP3    H137825   1.129   4.957   1.331
 5422TIP3    H237826   1.226   4.907   1.224
 5423TIP3   OH237827   1.389   5.079   0.152
 5423TIP3    H137828   1.420   5.035   0.234
 5423TIP3    H237829   1.294   5.064   0.159
 5424TIP3   OH237830   1.439   5.436   1.490
 5424TIP3    H137831   1.372   5.385   1.439
 5424TIP3    H237832   1.461   5.505   1.424
 5425TIP3   OH237833   1.842   5.522   0.175
 5425TIP3    H137834   1.911   5.585   0.151
 5425TIP3    H237835   1.769   5.582   0.204
 5426TIP3   OH237836   0.247   4.159   1.424
 5426TIP3    H137837   0.159   4.198   1.431
 5426TIP3    H237838   0.236   4.076   1.472
 5427TIP3   OH237839   1.472   4.946   0.374
 5427TIP3    H137840   1.448   4.866   0.426
 5427TIP3    H237841   1.567   4.953   0.395
 5428TIP3   OH237842   0.225   5.345   1.268
 5428TIP3    H137843   0.237   5.249   1.272
 5428TIP3    H237844   0.235   5.368   1.361
 5429TIP3   OH237845   0.685   5.147   0.242
 5429TIP3    H137846   0.710   5.091   0.317
 5429TIP3    H237847   0.693   5.238   0.277
 5430TIP3   OH237848   0.331   4.870   0.289
 5430TIP3    H137849   0.264   4.909   0.349
 5430TIP3    H237850   0.387   4.946   0.267
 5431TIP3   OH237851   1.121   4.137   1.322
 5431TIP3    H137852   1.191   4.144   1.388
 5431TIP3    H237853   1.082   4.050   1.344
 5432TIP3   OH237854   1.195   4.096   0.434
 5432TIP3    H137855   1.220   4.142   0.352
 5432TIP3    H237856   1.254   4.139   0.498
 5433TIP3   OH237857   0.964   5.312   0.316
 5433TIP3    H137858   0.882   5.364   0.322
 5433TIP3    H237859   1.019   5.362   0.252
 5434TIP3   OH237860   0.917   4.267   0.515
 5434TIP3    H137861   0.996   4.326   0.516
 5434TIP3    H237862   0.893   4.258   0.608
 5435TIP3   OH237863   0.974   4.372   1.430
 5435TIP3    H137864   0.983   4.431   1.507
 5435TIP3    H237865   1.040   4.302   1.444
 5436TIP3   OH237866   1.002   3.976   0.602
 5436TIP3    H137867   0.974   4.040   0.669
 5436TIP3    H237868   1.074   4.029   0.559
 5437TIP3   OH237869   0.701   5.415   0.317
 5437TIP3    H137870   0.719   5.497   0.267
 5437TIP3    H237871   0.677   5.450   0.406
 5438TIP3   OH237872   0.570   4.081   0.287
 5438TIP3    H137873   0.564   4.176   0.309
 5438TIP3    H237874   0.666   4.066   0.300
 5439TIP3   OH237875   1.592   4.161   1.522
 5439TIP3    H137876   1.498   4.188   1.504
 5439TIP3    H237877   1.623   4.158   1.430
 5440TIP3   OH237878   1.454   4.537   0.920
 5440TIP3    H137879   1.371   4.493   0.892
 5440TIP3    H237880   1.501   4.470   0.973
 5441TIP3   OH237881   0.392   5.133   0.178
 5441TIP3    H137882   0.459   5.194   0.210
 5441TIP3    H237883   0.444   5.083   0.112
 5442TIP3   OH237884   0.230   4.398   0.102
 5442TIP3    H137885   0.231   4.495   0.110
 5442TIP3    H237886   0.146   4.376   0.061
 5443TIP3   OH237887   1.560   5.463   1.087
 5443TIP3    H137888   1.550   5.532   1.018
 5443TIP3    H237889   1.656   5.470   1.105
 5444TIP3   OH237890   0.313   3.873   0.964
 5444TIP3    H137891   0.287   3.878   0.870
 5444TIP3    H237892   0.268   3.792   0.993
 5445TIP3   OH237893   0.207   5.272   0.585
 5445TIP3    H137894   0.120   5.311   0.576
 5445TIP3    H237895   0.254   5.314   0.511
 5446TIP3   OH237896   0.155   5.538   1.713
 5446TIP3    H137897   0.195   5.504   1.792
 5446TIP3    H237898   0.103   5.457   1.689
 5447TIP3   OH237899   0.590   5.422   1.871
 5447TIP3    H137900   0.669   5.378   1.905
 5447TIP3    H237901   0.591   5.398   1.777
 5448TIP3   OH237902   1.042   5.382   0.068
 5448TIP3    H137903   0.958   5.333   0.059
 5448TIP3    H237904   1.091   5.335   0.000
 5449TIP3   OH237905   1.246   5.264   1.747
 5449TIP3    H137906   1.214   5.174   1.772
 5449TIP3    H237907   1.324   5.270   1.803
 5450TIP3   OH237908   1.463   5.354   0.031
 5450TIP3    H137909   1.489   5.273   0.079
 5450TIP3    H237910   1.541   5.374  -0.023
 5451TIP3   OH237911   0.119   4.911   1.807
 5451TIP3    H137912   0.133   4.820   1.773
 5451TIP3    H237913   0.043   4.938   1.753
 5452TIP3   OH237914   0.560   4.952   0.026
 5452TIP3    H137915   0.565   4.868   0.072
 5452TIP3    H237916   0.616   4.929  -0.051
 5453TIP3   OH237917   0.790   4.908   1.751
 5453TIP3    H137918   0.755   4.940   1.666
 5453TIP3    H237919   0.796   4.811   1.736
 5454TIP3   OH237920   1.354   4.895   1.484
 5454TIP3    H137921   1.435   4.951   1.480
 5454TIP3    H237922   1.288   4.964   1.494
 5455TIP3   OH237923   0.203   4.634   1.748
 5455TIP3    H137924   0.246   4.548   1.734
 5455TIP3    H237925   0.181   4.629   1.842
 5456TIP3   OH237926   0.672   4.749   0.253
 5456TIP3    H137927   0.622   4.695   0.317
 5456TIP3    H237928   0.702   4.679   0.190
 5457TIP3   OH237929   0.598   4.528   1.485
 5457TIP3    H137930   0.537   4.599   1.511
 5457TIP3    H237931   0.636   4.564   1.403
 5458TIP3   OH237932   0.778   4.571   0.074
 5458TIP3    H137933   0.767   4.550  -0.019
 5458TIP3    H237934   0.876   4.578   0.084
 5459TIP3   OH237935   1.103   4.788   1.822
 5459TIP3    H137936   1.199   4.783   1.804
 5459TIP3    H237937   1.087   4.707   1.871
 5460TIP3   OH237938   1.699   4.813   8.525
 5460TIP3    H137939   1.687   4.764   8.442
 5460TIP3    H237940   1.720   4.904   8.498
 5461TIP3   OH237941   0.646   4.265   1.591
 5461TIP3    H137942   0.648   4.195   1.524
 5461TIP3    H237943   0.630   4.346   1.539
 5462TIP3   OH237944   0.679   4.103   1.346
 5462TIP3    H137945   0.730   4.150   1.276
 5462TIP3    H237946   0.590   4.096   1.304
 5463TIP3   OH237947   0.833   4.651   1.367
 5463TIP3    H137948   0.909   4.636   1.310
 5463TIP3    H237949   0.798   4.736   1.337
 5464TIP3   OH237950   1.270   4.428   1.861
 5464TIP3    H137951   1.296   4.335   1.862
 5464TIP3    H237952   1.356   4.474   1.865
 5465TIP3   OH237953   1.405   4.705   1.677
 5465TIP3    H137954   1.384   4.781   1.618
 5465TIP3    H237955   1.502   4.707   1.668
 5466TIP3   OH237956   0.757   3.846   1.385
 5466TIP3    H137957   0.740   3.943   1.374
 5466TIP3    H237958   0.682   3.810   1.334
 5467TIP3   OH237959   0.884   4.279   1.739
 5467TIP3    H137960   0.860   4.252   1.830
 5467TIP3    H237961   0.802   4.262   1.687
 5468TIP3   OH237962   1.156   4.190   1.646
 5468TIP3    H137963   1.060   4.198   1.664
 5468TIP3    H237964   1.186   4.132   1.719
 5469TIP3   OH237965   1.312   4.058   1.848
 5469TIP3    H137966   1.306   3.960   1.848
 5469TIP3    H237967   1.282   4.079   1.938
 5470TIP3   OH237968   0.305   4.178   1.760
 5470TIP3    H137969   0.318   4.109   1.694
 5470TIP3    H237970   0.288   4.135   1.844
 5471TIP3   OH237971   0.779   3.784   1.653
 5471TIP3    H137972   0.847   3.714   1.653
 5471TIP3    H237973   0.768   3.800   1.557
 5472TIP3   OH237974   0.814   3.953   1.858
 5472TIP3    H137975   0.800   3.896   1.779
 5472TIP3    H237976   0.750   4.022   1.850
 5473TIP3   OH237977   0.763   5.638   0.175
 5473TIP3    H137978   0.860   5.649   0.189
 5473TIP3    H237979   0.745   5.706   0.110
 5474TIP3   OH237980   0.124   5.097   0.129
 5474TIP3    H137981   0.219   5.108   0.150
 5474TIP3    H237982   0.124   5.038   0.053
 5475TIP3   OH237983   7.342   5.610   0.579
 5475TIP3    H137984   7.244   5.603   0.560
 5475TIP3    H237985   7.350   5.561   0.665
 5476TIP3   OH237986   0.074   5.456   0.811
 5476TIP3    H137987   0.046   5.363   0.831
 5476TIP3    H237988   0.106   5.478   0.901
 5477TIP3   OH237989   1.831   5.528   1.107
 5477TIP3    H137990   1.834   5.544   1.203
 5477TIP3    H237991   1.902   5.586   1.076
 5478TIP3   OH237992   1.791   5.488   1.400
 5478TIP3    H137993   1.742   5.411   1.364
 5478TIP3    H237994   1.840   5.445   1.471
 5479TIP3   OH237995   1.766   4.892   0.411
 5479TIP3    H137996   1.851   4.933   0.433
 5479TIP3    H237997   1.763   4.821   0.479
 5480TIP3   OH237998   1.801   4.700   0.600
 5480TIP3    H137999   1.726   4.649   0.639
 5480TIP3    H238000   1.860   4.714   0.677
 5481TIP3   OH238001   1.777   4.971   1.098
 5481TIP3    H138002   1.858   4.931   1.063
 5481TIP3    H238003   1.792   5.066   1.083
 5482TIP3   OH238004   1.633   5.264   1.323
 5482TIP3    H138005   1.564   5.292   1.385
 5482TIP3    H238006   1.578   5.218   1.256
 5483TIP3   OH238007   1.834   4.684   0.234
 5483TIP3    H138008   1.771   4.719   0.169
 5483TIP3    H238009   1.824   4.752   0.304
 5484TIP3   OH238010   1.632   4.408   0.101
 5484TIP3    H138011   1.673   4.468   0.037
 5484TIP3    H238012   1.649   4.324   0.054
 5485TIP3   OH238013   1.583   4.547   0.656
 5485TIP3    H138014   1.568   4.452   0.653
 5485TIP3    H238015   1.550   4.570   0.745
 5486TIP3   OH238016   0.086   4.755   1.055
 5486TIP3    H138017   0.105   4.750   0.960
 5486TIP3    H238018   0.173   4.743   1.097
 5487TIP3   OH238019   1.688   4.737   1.717
 5487TIP3    H138020   1.721   4.667   1.655
 5487TIP3    H238021   1.706   4.805   1.648
 5488TIP3   OH238022   1.827   4.528   1.681
 5488TIP3    H138023   1.734   4.499   1.673
 5488TIP3    H238024   1.878   4.447   1.677
 5489TIP3   OH238025   1.593   4.148   0.001
 5489TIP3    H138026   1.651   4.106   0.068
 5489TIP3    H238027   1.505   4.113   0.022
 5490TIP3   OH238028   1.550   4.306   0.504
 5490TIP3    H138029   1.580   4.212   0.516
 5490TIP3    H238030   1.628   4.346   0.464
 5491TIP3   OH238031   1.614   4.358   1.047
 5491TIP3    H138032   1.709   4.385   1.046
 5491TIP3    H238033   1.595   4.377   1.140
 5492TIP3   OH238034   1.620   4.433   1.326
 5492TIP3    H138035   1.533   4.465   1.359
 5492TIP3    H238036   1.664   4.520   1.305
 5493TIP3   OH238037   0.071   4.271   1.674
 5493TIP3    H138038   0.160   4.256   1.709
 5493TIP3    H238039   0.012   4.206   1.719
 5494TIP3   OH238040   1.844   3.842   1.854
 5494TIP3    H138041   1.880   3.768   1.801
 5494TIP3    H238042   1.865   3.918   1.802
 5495TIP3   OH238043   1.616   4.034   0.507
 5495TIP3    H138044   1.639   3.989   0.592
 5495TIP3    H238045   1.556   3.971   0.463
 5496TIP3   OH238046   0.169   4.111   0.959
 5496TIP3    H138047   0.215   4.032   0.993
 5496TIP3    H238048   0.219   4.183   1.003
 5497TIP3   OH238049   0.051   4.488   1.102
 5497TIP3    H138050   0.052   4.445   1.014
 5497TIP3    H238051   0.059   4.579   1.075
 5498TIP3   OH238052   1.798   4.040   0.164
 5498TIP3    H138053   1.842   3.968   0.114
 5498TIP3    H238054   1.871   4.104   0.166
 5499TIP3   OH238055   0.078   4.039   0.438
 5499TIP3    H138056  -0.017   4.055   0.446
 5499TIP3    H238057   0.097   4.111   0.374
 5500TIP3   OH238058   1.504   5.536   0.670
 5500TIP3    H138059   1.572   5.505   0.607
 5500TIP3    H238060   1.556   5.586   0.734
 5501TIP3   OH238061   7.353   3.900   1.322
 5501TIP3    H138062   7.276   3.885   1.377
 5501TIP3    H238063   7.308   3.958   1.258
 5502TIP3   OH238064   0.246   5.230   1.724
 5502TIP3    H138065   0.163   5.246   1.676
 5502TIP3    H238066   0.216   5.221   1.814
 5503TIP3   OH238067   0.542   5.329   1.350
 5503TIP3    H138068   0.501   5.413   1.321
 5503TIP3    H238069   0.633   5.339   1.317
 5504TIP3   OH238070   0.972   5.468   1.637
 5504TIP3    H138071   0.986   5.437   1.729
 5504TIP3    H238072   1.061   5.502   1.613
 5505TIP3   OH238073   1.200   5.595   1.568
 5505TIP3    H138074   1.274   5.536   1.544
 5505TIP3    H238075   1.238   5.639   1.647
 5506TIP3   OH238076   1.700   3.856   1.478
 5506TIP3    H138077   1.618   3.887   1.437
 5506TIP3    H238078   1.718   3.775   1.425
 5507TIP3   OH238079   0.284   5.653   1.350
 5507TIP3    H138080   0.209   5.700   1.309
 5507TIP3    H238081   0.248   5.630   1.437
 5508TIP3   OH238082   0.529   5.610   1.254
 5508TIP3    H138083   0.440   5.622   1.293
 5508TIP3    H238084   0.523   5.669   1.177
 5509TIP3   OH238085   0.999   5.600   1.171
 5509TIP3    H138086   0.952   5.656   1.107
 5509TIP3    H238087   1.012   5.663   1.245
 5510TIP3   OH238088   1.228   5.482   1.273
 5510TIP3    H138089   1.141   5.509   1.238
 5510TIP3    H238090   1.275   5.567   1.264
 5511TIP3   OH238091   1.486   5.638   1.297
 5511TIP3    H138092   1.479   5.734   1.274
 5511TIP3    H238093   1.508   5.601   1.209
 5512TIP3   OH238094   0.221   5.516   1.039
 5512TIP3    H138095   0.222   5.471   1.127
 5512TIP3    H238096   0.304   5.479   1.003
 5513TIP3   OH238097   0.432   5.387   0.908
 5513TIP3    H138098   0.416   5.294   0.930
 5513TIP3    H238099   0.519   5.402   0.952
 5514TIP3   OH238100   0.693   5.435   0.995
 5514TIP3    H138101   0.711   5.343   0.968
 5514TIP3    H238102   0.700   5.430   1.091
 5515TIP3   OH238103   1.041   4.001   0.908
 5515TIP3    H138104   0.974   3.936   0.937
 5515TIP3    H238105   1.096   3.947   0.850
 5516TIP3   OH238106   1.554   3.806   0.916
 5516TIP3    H138107   1.615   3.864   0.865
 5516TIP3    H238108   1.466   3.841   0.892
 5517TIP3   OH238109   1.714   3.938   0.746
 5517TIP3    H138110   1.782   3.876   0.705
 5517TIP3    H238111   1.773   4.016   0.753
 5518TIP3   OH238112   0.283   3.864   0.689
 5518TIP3    H138113   0.199   3.843   0.642
 5518TIP3    H238114   0.322   3.774   0.690
 5519TIP3   OH238115   0.164   3.836   0.273
 5519TIP3    H138116   0.202   3.900   0.210
 5519TIP3    H238117   0.097   3.893   0.316
 5520TIP3   OH238118   0.724   3.858   0.672
 5520TIP3    H138119   0.817   3.891   0.667
 5520TIP3    H238120   0.724   3.833   0.766
 5521TIP3   OH238121   1.293   3.858   0.835
 5521TIP3    H138122   1.294   3.868   0.739
 5521TIP3    H238123   1.259   3.766   0.847
 5522TIP3   OH238124   1.423   3.859   0.401
 5522TIP3    H138125   1.350   3.920   0.385
 5522TIP3    H238126   1.378   3.774   0.423
 5523TIP3   OH238127   0.146   5.435   0.368
 5523TIP3    H138128   0.084   5.433   0.294
 5523TIP3    H238129   0.149   5.531   0.381
 5524TIP3   OH238130   0.337   4.027   0.121
 5524TIP3    H138131   0.388   3.972   0.061
 5524TIP3    H238132   0.405   4.067   0.175
 5525TIP3   OH238133   0.833   4.056   0.361
 5525TIP3    H138134   0.872   4.001   0.431
 5525TIP3    H238135   0.848   4.145   0.403
 5526TIP3   OH238136   1.029   5.590   0.204
 5526TIP3    H138137   1.125   5.592   0.188
 5526TIP3    H238138   1.012   5.520   0.137
 5527TIP3   OH238139   1.703   5.515   0.473
 5527TIP3    H138140   1.683   5.437   0.415
 5527TIP3    H238141   1.695   5.588   0.409
 5528TIP3   OH238142   0.264   3.922   1.648
 5528TIP3    H138143   0.229   3.838   1.676
 5528TIP3    H238144   0.359   3.914   1.666
 5529TIP3   OH238145   0.333   5.533   0.063
 5529TIP3    H138146   0.301   5.558   0.150
 5529TIP3    H238147   0.407   5.476   0.080
 5530TIP3   OH238148   1.309   3.784   1.814
 5530TIP3    H138149   1.317   3.742   1.901
 5530TIP3    H238150   1.401   3.779   1.780
 5531TIP3   OH238151   1.629   5.390   1.680
 5531TIP3    H138152   1.548   5.376   1.628
 5531TIP3    H238153   1.619   5.485   1.703
 5532TIP3   OH238154   3.071   4.777   0.679
 5532TIP3    H138155   3.071   4.875   0.675
 5532TIP3    H238156   2.999   4.753   0.619
 5533TIP3   OH238157   2.957   4.703   1.029
 5533TIP3    H138158   2.956   4.637   1.101
 5533TIP3    H238159   2.923   4.653   0.954
 5534TIP3   OH238160   2.195   4.669   1.183
 5534TIP3    H138161   2.199   4.602   1.255
 5534TIP3    H238162   2.269   4.727   1.206
 5535TIP3   OH238163   3.327   4.997   0.857
 5535TIP3    H138164   3.285   4.926   0.906
 5535TIP3    H238165   3.329   5.068   0.924
 5536TIP3   OH238166   2.286   5.114   1.035
 5536TIP3    H138167   2.254   5.028   1.003
 5536TIP3    H238168   2.381   5.096   1.040
 5537TIP3   OH238169   1.950   4.471   0.583
 5537TIP3    H138170   1.906   4.558   0.578
 5537TIP3    H238171   1.893   4.417   0.526
 5538TIP3   OH238172   2.020   4.693   0.797
 5538TIP3    H138173   2.047   4.611   0.843
 5538TIP3    H238174   2.090   4.703   0.732
 5539TIP3   OH238175   3.038   5.513   0.881
 5539TIP3    H138176   3.103   5.443   0.853
 5539TIP3    H238177   3.017   5.480   0.968
 5540TIP3   OH238178   2.795   4.943   1.075
 5540TIP3    H138179   2.829   4.880   1.010
 5540TIP3    H238180   2.876   4.958   1.128
 5541TIP3   OH238181   3.655   4.108   1.149
 5541TIP3    H138182   3.672   4.167   1.226
 5541TIP3    H238183   3.711   4.151   1.082
 5542TIP3   OH238184   3.112   4.389   1.107
 5542TIP3    H138185   3.128   4.294   1.107
 5542TIP3    H238186   3.102   4.404   1.011
 5543TIP3   OH238187   2.424   4.198   0.829
 5543TIP3    H138188   2.434   4.282   0.780
 5543TIP3    H238189   2.383   4.141   0.761
 5544TIP3   OH238190   3.197   4.203   0.663
 5544TIP3    H138191   3.262   4.176   0.733
 5544TIP3    H238192   3.253   4.264   0.612
 5545TIP3   OH238193   2.086   4.439   0.903
 5545TIP3    H138194   2.153   4.384   0.948
 5545TIP3    H238195   2.096   4.408   0.811
 5546TIP3   OH238196   2.602   4.595   0.833
 5546TIP3    H138197   2.668   4.537   0.875
 5546TIP3    H238198   2.550   4.529   0.784
 5547TIP3   OH238199   3.698   4.249   1.378
 5547TIP3    H138200   3.638   4.326   1.366
 5547TIP3    H238201   3.703   4.242   1.475
 5548TIP3   OH238202   2.314   4.088   1.233
 5548TIP3    H138203   2.286   4.145   1.158
 5548TIP3    H238204   2.246   4.111   1.301
 5549TIP3   OH238205   3.043   5.036   0.588
 5549TIP3    H138206   3.015   5.008   0.500
 5549TIP3    H238207   3.012   5.129   0.592
 5550TIP3   OH238208   2.566   4.852   1.258
 5550TIP3    H138209   2.494   4.917   1.279
 5550TIP3    H238210   2.636   4.912   1.229
 5551TIP3   OH238211   3.378   4.141   0.865
 5551TIP3    H138212   3.356   4.064   0.919
 5551TIP3    H238213   3.445   4.185   0.920
 5552TIP3   OH238214   2.270   4.274   1.036
 5552TIP3    H138215   2.334   4.342   1.067
 5552TIP3    H238216   2.322   4.232   0.963
 5553TIP3   OH238217   2.411   5.053   1.340
 5553TIP3    H138218   2.406   5.144   1.305
 5553TIP3    H238219   2.322   5.046   1.382
 5554TIP3   OH238220   2.017   5.014   0.418
 5554TIP3    H138221   1.995   5.048   0.329
 5554TIP3    H238222   2.024   5.098   0.469
 5555TIP3   OH238223   3.379   5.181   1.094
 5555TIP3    H138224   3.283   5.192   1.106
 5555TIP3    H238225   3.406   5.273   1.074
 5556TIP3   OH238226   3.411   4.009   1.233
 5556TIP3    H138227   3.339   4.073   1.225
 5556TIP3    H238228   3.482   4.051   1.181
 5557TIP3   OH238229   2.709   3.821   0.981
 5557TIP3    H138230   2.695   3.725   0.972
 5557TIP3    H238231   2.621   3.852   1.010
 5558TIP3   OH238232   3.205   5.359   0.753
 5558TIP3    H138233   3.248   5.288   0.702
 5558TIP3    H238234   3.248   5.439   0.714
 5559TIP3   OH238235   3.326   5.152   0.604
 5559TIP3    H138236   3.297   5.082   0.543
 5559TIP3    H238237   3.329   5.103   0.688
 5560TIP3   OH238238   3.489   5.011   1.454
 5560TIP3    H138239   3.503   4.946   1.382
 5560TIP3    H238240   3.508   5.096   1.411
 5561TIP3   OH238241   2.936   4.701   0.430
 5561TIP3    H138242   2.868   4.759   0.391
 5561TIP3    H238243   3.008   4.711   0.365
 5562TIP3   OH238244   2.943   4.555   0.136
 5562TIP3    H138245   3.013   4.556   0.204
 5562TIP3    H238246   2.975   4.487   0.080
 5563TIP3   OH238247   3.676   4.642   1.259
 5563TIP3    H138248   3.611   4.715   1.263
 5563TIP3    H238249   3.725   4.666   1.178
 5564TIP3   OH238250   3.281   4.721   0.524
 5564TIP3    H138251   3.207   4.746   0.585
 5564TIP3    H238252   3.329   4.654   0.576
 5565TIP3   OH238253   3.274   4.538   1.434
 5565TIP3    H138254   3.276   4.619   1.488
 5565TIP3    H238255   3.212   4.568   1.365
 5566TIP3   OH238256   2.443   4.788   0.714
 5566TIP3    H138257   2.412   4.748   0.629
 5566TIP3    H238258   2.505   4.719   0.748
 5567TIP3   OH238259   2.576   5.126   0.982
 5567TIP3    H138260   2.575   5.073   0.902
 5567TIP3    H238261   2.654   5.090   1.028
 5568TIP3   OH238262   2.477   4.662   1.080
 5568TIP3    H138263   2.532   4.673   1.000
 5568TIP3    H238264   2.515   4.729   1.142
 5569TIP3   OH238265   3.118   5.219   1.151
 5569TIP3    H138266   3.089   5.283   1.217
 5569TIP3    H238267   3.092   5.134   1.193
 5570TIP3   OH238268   2.572   5.105   1.550
 5570TIP3    H138269   2.531   5.179   1.599
 5570TIP3    H238270   2.504   5.085   1.481
 5571TIP3   OH238271   3.171   4.638   0.289
 5571TIP3    H138272   3.223   4.659   0.370
 5571TIP3    H238273   3.211   4.695   0.221
 5572TIP3   OH238274   2.265   4.722   1.469
 5572TIP3    H138275   2.269   4.789   1.539
 5572TIP3    H238276   2.171   4.731   1.441
 5573TIP3   OH238277   2.940   5.313   0.638
 5573TIP3    H138278   2.985   5.345   0.717
 5573TIP3    H238279   2.885   5.388   0.612
 5574TIP3   OH238280   2.394   5.304   1.625
 5574TIP3    H138281   2.390   5.297   1.528
 5574TIP3    H238282   2.300   5.299   1.652
 5575TIP3   OH238283   3.541   3.815   0.278
 5575TIP3    H138284   3.447   3.826   0.304
 5575TIP3    H238285   3.563   3.900   0.238
 5576TIP3   OH238286   2.343   4.689   0.472
 5576TIP3    H138287   2.312   4.769   0.424
 5576TIP3    H238288   2.274   4.624   0.455
 5577TIP3   OH238289   3.652   5.247   0.116
 5577TIP3    H138290   3.665   5.344   0.128
 5577TIP3    H238291   3.745   5.220   0.109
 5578TIP3   OH238292   1.959   4.932   1.359
 5578TIP3    H138293   1.903   4.925   1.279
 5578TIP3    H238294   1.952   4.839   1.387
 5579TIP3   OH238295   1.926   5.207   1.043
 5579TIP3    H138296   2.022   5.195   1.041
 5579TIP3    H238297   1.917   5.288   1.094
 5580TIP3   OH238298   3.750   5.276   1.617
 5580TIP3    H138299   3.738   5.181   1.606
 5580TIP3    H238300   3.661   5.301   1.648
 5581TIP3   OH238301   2.845   5.230   1.497
 5581TIP3    H138302   2.852   5.314   1.548
 5581TIP3    H238303   2.758   5.195   1.524
 5582TIP3   OH238304   2.888   5.605   0.478
 5582TIP3    H138305   2.880   5.599   0.381
 5582TIP3    H238306   2.891   5.701   0.494
 5583TIP3   OH238307   2.253   5.493   0.660
 5583TIP3    H138308   2.267   5.452   0.748
 5583TIP3    H238309   2.168   5.452   0.636
 5584TIP3   OH238310   3.192   5.525   0.174
 5584TIP3    H138311   3.239   5.449   0.133
 5584TIP3    H238312   3.199   5.501   0.269
 5585TIP3   OH238313   3.163   5.520   0.454
 5585TIP3    H138314   3.068   5.527   0.473
 5585TIP3    H238315   3.189   5.446   0.511
 5586TIP3   OH238316   3.463   4.426   1.653
 5586TIP3    H138317   3.415   4.470   1.583
 5586TIP3    H238318   3.465   4.332   1.629
 5587TIP3   OH238319   2.179   5.064   1.461
 5587TIP3    H138320   2.198   5.026   1.549
 5587TIP3    H238321   2.092   5.025   1.437
 5588TIP3   OH238322   2.445   3.910   1.054
 5588TIP3    H138323   2.355   3.899   1.018
 5588TIP3    H238324   2.432   3.994   1.102
 5589TIP3   OH238325   2.910   3.881   1.395
 5589TIP3    H138326   2.949   3.836   1.471
 5589TIP3    H238327   2.813   3.867   1.405
 5590TIP3   OH238328   3.237   4.262   1.479
 5590TIP3    H138329   3.184   4.244   1.560
 5590TIP3    H238330   3.222   4.355   1.458
 5591TIP3   OH238331   3.322   4.747   0.070
 5591TIP3    H138332   3.326   4.733  -0.025
 5591TIP3    H238333   3.407   4.792   0.084
 5592TIP3   OH238334   2.879   4.134   0.126
 5592TIP3    H138335   2.839   4.135   0.215
 5592TIP3    H238336   2.846   4.049   0.094
 5593TIP3   OH238337   2.456   4.409   1.180
 5593TIP3    H138338   2.382   4.408   1.244
 5593TIP3    H238339   2.451   4.500   1.143
 5594TIP3   OH238340   2.452   4.421   0.666
 5594TIP3    H138341   2.358   4.396   0.653
 5594TIP3    H238342   2.490   4.391   0.581
 5595TIP3   OH238343   3.003   4.467   0.538
 5595TIP3    H138344   2.963   4.553   0.509
 5595TIP3    H238345   3.075   4.457   0.474
 5596TIP3   OH238346   2.911   4.490   1.684
 5596TIP3    H138347   2.856   4.415   1.717
 5596TIP3    H238348   2.995   4.478   1.730
 5597TIP3   OH238349   3.108   4.420   0.828
 5597TIP3    H138350   3.080   4.476   0.754
 5597TIP3    H238351   3.118   4.335   0.782
 5598TIP3   OH238352   2.219   4.436   1.349
 5598TIP3    H138353   2.226   4.475   1.437
 5598TIP3    H238354   2.175   4.351   1.368
 5599TIP3   OH238355   2.574   4.197   0.067
 5599TIP3    H138356   2.520   4.132   0.116
 5599TIP3    H238357   2.512   4.228   0.001
 5600TIP3   OH238358   1.884   4.148   0.746
 5600TIP3    H138359   1.952   4.142   0.816
 5600TIP3    H238360   1.928   4.107   0.669
 5601TIP3   OH238361   2.015   4.219   0.283
 5601TIP3    H138362   2.062   4.278   0.223
 5601TIP3    H238363   1.944   4.278   0.317
 5602TIP3   OH238364   3.028   4.579   1.284
 5602TIP3    H138365   3.065   4.511   1.225
 5602TIP3    H238366   2.981   4.525   1.351
 5603TIP3   OH238367   2.708   4.173   0.767
 5603TIP3    H138368   2.615   4.177   0.796
 5603TIP3    H238369   2.756   4.161   0.851
 5604TIP3   OH238370   2.189   4.332   0.654
 5604TIP3    H138371   2.100   4.346   0.615
 5604TIP3    H238372   2.217   4.248   0.613
 5605TIP3   OH238373   2.555   4.334   0.416
 5605TIP3    H138374   2.649   4.350   0.435
 5605TIP3    H238375   2.531   4.402   0.351
 5606TIP3   OH238376   3.148   4.099   1.091
 5606TIP3    H138377   3.079   4.105   1.161
 5606TIP3    H238378   3.097   4.075   1.012
 5607TIP3   OH238379   2.418   4.461   0.171
 5607TIP3    H138380   2.370   4.409   0.106
 5607TIP3    H238381   2.506   4.473   0.133
 5608TIP3   OH238382   3.470   5.663   1.726
 5608TIP3    H138383   3.495   5.702   1.640
 5608TIP3    H238384   3.541   5.697   1.783
 5609TIP3   OH238385   2.233   4.908   1.681
 5609TIP3    H138386   2.306   4.938   1.740
 5609TIP3    H238387   2.157   4.926   1.736
 5610TIP3   OH238388   2.836   4.451   0.956
 5610TIP3    H138389   2.896   4.398   0.902
 5610TIP3    H238390   2.822   4.396   1.034
 5611TIP3   OH238391   2.337   4.067   0.601
 5611TIP3    H138392   2.305   3.974   0.599
 5611TIP3    H238393   2.414   4.059   0.544
 5612TIP3   OH238394   2.700   4.285   1.197
 5612TIP3    H138395   2.617   4.336   1.207
 5612TIP3    H238396   2.755   4.319   1.270
 5613TIP3   OH238397   2.759   4.905   0.369
 5613TIP3    H138398   2.679   4.860   0.336
 5613TIP3    H238399   2.737   4.917   0.464
 5614TIP3   OH238400   3.477   4.827   1.248
 5614TIP3    H138401   3.534   4.875   1.185
 5614TIP3    H238402   3.391   4.832   1.201
 5615TIP3   OH238403   3.144   4.186   0.186
 5615TIP3    H138404   3.050   4.204   0.170
 5615TIP3    H238405   3.177   4.272   0.219
 5616TIP3   OH238406   2.908   4.932   1.492
 5616TIP3    H138407   2.874   4.891   1.572
 5616TIP3    H238408   2.883   5.025   1.501
 5617TIP3   OH238409   3.216   4.377   0.349
 5617TIP3    H138410   3.305   4.367   0.389
 5617TIP3    H238411   3.225   4.462   0.302
 5618TIP3   OH238412   2.270   4.846   0.947
 5618TIP3    H138413   2.339   4.838   0.878
 5618TIP3    H238414   2.276   4.760   0.993
 5619TIP3   OH238415   2.969   5.054   0.274
 5619TIP3    H138416   2.932   5.139   0.308
 5619TIP3    H238417   2.895   4.992   0.291
 5620TIP3   OH238418   1.979   4.679   1.469
 5620TIP3    H138419   1.981   4.642   1.558
 5620TIP3    H238420   1.903   4.630   1.431
 5621TIP3   OH238421   2.669   4.641   1.692
 5621TIP3    H138422   2.639   4.613   1.604
 5621TIP3    H238423   2.763   4.614   1.690
 5622TIP3   OH238424   3.138   5.175   1.487
 5622TIP3    H138425   3.046   5.193   1.462
 5622TIP3    H238426   3.134   5.206   1.579
 5623TIP3   OH238427   3.705   4.394   0.327
 5623TIP3    H138428   3.649   4.363   0.254
 5623TIP3    H238429   3.713   4.488   0.299
 5624TIP3   OH238430   3.704   4.979   1.608
 5624TIP3    H138431   3.616   5.001   1.568
 5624TIP3    H238432   3.759   4.974   1.527
 5625TIP3   OH238433   3.535   5.277   0.365
 5625TIP3    H138434   3.498   5.194   0.398
 5625TIP3    H238435   3.565   5.257   0.274
 5626TIP3   OH238436   3.255   4.758   1.076
 5626TIP3    H138437   3.161   4.737   1.065
 5626TIP3    H238438   3.298   4.682   1.033
 5627TIP3   OH238439   2.506   5.191   0.686
 5627TIP3    H138440   2.557   5.272   0.665
 5627TIP3    H238441   2.419   5.215   0.653
 5628TIP3   OH238442   2.084   4.678   0.134
 5628TIP3    H138443   2.141   4.741   0.183
 5628TIP3    H238444   1.996   4.703   0.170
 5629TIP3   OH238445   2.649   4.958   0.639
 5629TIP3    H138446   2.618   5.050   0.646
 5629TIP3    H238447   2.576   4.909   0.682
 5630TIP3   OH238448   2.694   5.376   1.278
 5630TIP3    H138449   2.739   5.457   1.250
 5630TIP3    H238450   2.755   5.343   1.346
 5631TIP3   OH238451   2.516   5.458   0.590
 5631TIP3    H138452   2.420   5.471   0.604
 5631TIP3    H238453   2.552   5.541   0.626
 5632TIP3   OH238454   3.047   4.977   1.240
 5632TIP3    H138455   3.013   4.957   1.330
 5632TIP3    H238456   3.110   4.906   1.224
 5633TIP3   OH238457   3.275   5.079   0.152
 5633TIP3    H138458   3.306   5.035   0.234
 5633TIP3    H238459   3.179   5.064   0.160
 5634TIP3   OH238460   3.327   5.435   1.491
 5634TIP3    H138461   3.259   5.385   1.441
 5634TIP3    H238462   3.346   5.504   1.424
 5635TIP3   OH238463   3.727   5.522   0.175
 5635TIP3    H138464   3.796   5.585   0.151
 5635TIP3    H238465   3.655   5.582   0.204
 5636TIP3   OH238466   2.134   4.162   1.433
 5636TIP3    H138467   2.043   4.194   1.422
 5636TIP3    H238468   2.123   4.075   1.473
 5637TIP3   OH238469   3.358   4.946   0.374
 5637TIP3    H138470   3.334   4.866   0.426
 5637TIP3    H238471   3.453   4.953   0.395
 5638TIP3   OH238472   2.095   5.339   1.272
 5638TIP3    H138473   2.126   5.247   1.272
 5638TIP3    H238474   2.121   5.368   1.360
 5639TIP3   OH238475   2.570   5.147   0.242
 5639TIP3    H138476   2.595   5.091   0.317
 5639TIP3    H238477   2.578   5.238   0.276
 5640TIP3   OH238478   2.219   4.870   0.286
 5640TIP3    H138479   2.154   4.909   0.348
 5640TIP3    H238480   2.276   4.946   0.267
 5641TIP3   OH238481   3.006   4.138   1.323
 5641TIP3    H138482   3.078   4.143   1.387
 5641TIP3    H238483   2.968   4.050   1.341
 5642TIP3   OH238484   3.082   4.098   0.435
 5642TIP3    H138485   3.110   4.146   0.353
 5642TIP3    H238486   3.142   4.142   0.498
 5643TIP3   OH238487   2.850   5.312   0.316
 5643TIP3    H138488   2.768   5.364   0.322
 5643TIP3    H238489   2.904   5.362   0.252
 5644TIP3   OH238490   2.807   4.264   0.515
 5644TIP3    H138491   2.881   4.329   0.517
 5644TIP3    H238492   2.776   4.260   0.607
 5645TIP3   OH238493   2.860   4.372   1.430
 5645TIP3    H138494   2.867   4.429   1.510
 5645TIP3    H238495   2.925   4.303   1.442
 5646TIP3   OH238496   2.890   3.981   0.614
 5646TIP3    H138497   2.853   4.044   0.680
 5646TIP3    H238498   2.960   4.040   0.579
 5647TIP3   OH238499   2.587   5.415   0.318
 5647TIP3    H138500   2.604   5.498   0.267
 5647TIP3    H238501   2.563   5.450   0.407
 5648TIP3   OH238502   2.457   4.084   0.279
 5648TIP3    H138503   2.448   4.175   0.313
 5648TIP3    H238504   2.547   4.062   0.304
 5649TIP3   OH238505   3.476   4.158   1.519
 5649TIP3    H138506   3.384   4.191   1.506
 5649TIP3    H238507   3.508   4.159   1.428
 5650TIP3   OH238508   3.339   4.538   0.920
 5650TIP3    H138509   3.256   4.493   0.892
 5650TIP3    H238510   3.386   4.469   0.972
 5651TIP3   OH238511   2.279   5.131   0.180
 5651TIP3    H138512   2.344   5.196   0.211
 5651TIP3    H238513   2.332   5.085   0.111
 5652TIP3   OH238514   2.123   4.406   0.084
 5652TIP3    H138515   2.108   4.495   0.119
 5652TIP3    H238516   2.032   4.375   0.067
 5653TIP3   OH238517   3.445   5.463   1.087
 5653TIP3    H138518   3.436   5.532   1.018
 5653TIP3    H238519   3.541   5.469   1.105
 5654TIP3   OH238520   2.194   3.877   0.968
 5654TIP3    H138521   2.175   3.879   0.871
 5654TIP3    H238522   2.153   3.791   0.991
 5655TIP3   OH238523   2.090   5.268   0.581
 5655TIP3    H138524   2.005   5.313   0.578
 5655TIP3    H238525   2.138   5.315   0.512
 5656TIP3   OH238526   2.022   5.526   1.700
 5656TIP3    H138527   2.067   5.515   1.785
 5656TIP3    H238528   1.965   5.449   1.693
 5657TIP3   OH238529   2.474   5.422   1.869
 5657TIP3    H138530   2.551   5.375   1.905
 5657TIP3    H238531   2.475   5.396   1.776
 5658TIP3   OH238532   2.927   5.382   0.068
 5658TIP3    H138533   2.844   5.333   0.059
 5658TIP3    H238534   2.977   5.335   0.000
 5659TIP3   OH238535   3.131   5.265   1.744
 5659TIP3    H138536   3.096   5.176   1.769
 5659TIP3    H238537   3.207   5.273   1.801
 5660TIP3   OH238538   3.349   5.354   0.031
 5660TIP3    H138539   3.374   5.273   0.079
 5660TIP3    H238540   3.427   5.374  -0.023
 5661TIP3   OH238541   2.443   4.950   0.024
 5661TIP3    H138542   2.453   4.869   0.074
 5661TIP3    H238543   2.503   4.931  -0.050
 5662TIP3   OH238544   2.675   4.909   1.747
 5662TIP3    H138545   2.640   4.941   1.661
 5662TIP3    H238546   2.680   4.811   1.737
 5663TIP3   OH238547   3.243   4.896   1.488
 5663TIP3    H138548   3.322   4.955   1.480
 5663TIP3    H238549   3.172   4.962   1.490
 5664TIP3   OH238550   2.556   4.747   0.252
 5664TIP3    H138551   2.509   4.695   0.319
 5664TIP3    H238552   2.590   4.678   0.191
 5665TIP3   OH238553   2.485   4.527   1.484
 5665TIP3    H138554   2.425   4.599   1.510
 5665TIP3    H238555   2.523   4.563   1.402
 5666TIP3   OH238556   2.664   4.568   0.073
 5666TIP3    H138557   2.655   4.552  -0.021
 5666TIP3    H238558   2.761   4.579   0.087
 5667TIP3   OH238559   2.992   4.789   1.814
 5667TIP3    H138560   3.088   4.786   1.806
 5667TIP3    H238561   2.973   4.714   1.871
 5668TIP3   OH238562   3.584   4.813   8.525
 5668TIP3    H138563   3.574   4.764   8.442
 5668TIP3    H238564   3.606   4.904   8.498
 5669TIP3   OH238565   2.523   4.268   1.591
 5669TIP3    H138566   2.533   4.196   1.525
 5669TIP3    H238567   2.520   4.347   1.533
 5670TIP3   OH238568   2.565   4.104   1.345
 5670TIP3    H138569   2.616   4.149   1.274
 5670TIP3    H238570   2.475   4.095   1.305
 5671TIP3   OH238571   2.719   4.651   1.371
 5671TIP3    H138572   2.794   4.635   1.312
 5671TIP3    H238573   2.682   4.735   1.337
 5672TIP3   OH238574   3.290   4.709   1.679
 5672TIP3    H138575   3.268   4.781   1.617
 5672TIP3    H238576   3.386   4.702   1.663
 5673TIP3   OH238577   2.371   4.386   1.788
 5673TIP3    H138578   2.295   4.334   1.758
 5673TIP3    H238579   2.436   4.353   1.722
 5674TIP3   OH238580   2.642   3.847   1.384
 5674TIP3    H138581   2.626   3.943   1.374
 5674TIP3    H238582   2.567   3.811   1.334
 5675TIP3   OH238583   2.771   4.272   1.745
 5675TIP3    H138584   2.736   4.252   1.832
 5675TIP3    H238585   2.691   4.261   1.688
 5676TIP3   OH238586   3.040   4.191   1.655
 5676TIP3    H138587   2.943   4.198   1.663
 5676TIP3    H238588   3.066   4.128   1.722
 5677TIP3   OH238589   2.182   4.182   1.760
 5677TIP3    H138590   2.207   4.115   1.692
 5677TIP3    H238591   2.174   4.121   1.832
 5678TIP3   OH238592   2.667   3.785   1.655
 5678TIP3    H138593   2.734   3.715   1.653
 5678TIP3    H238594   2.651   3.803   1.561
 5679TIP3   OH238595   2.648   5.638   0.176
 5679TIP3    H138596   2.745   5.649   0.189
 5679TIP3    H238597   2.630   5.705   0.110
 5680TIP3   OH238598   2.005   5.099   0.130
 5680TIP3    H138599   2.102   5.107   0.150
 5680TIP3    H238600   2.007   5.040   0.054
 5681TIP3   OH238601   1.881   5.635   0.626
 5681TIP3    H138602   1.809   5.587   0.579
 5681TIP3    H238603   1.909   5.569   0.692
 5682TIP3   OH238604   1.963   5.448   0.813
 5682TIP3    H138605   1.928   5.360   0.833
 5682TIP3    H238606   1.986   5.481   0.902
 5683TIP3   OH238607   3.717   5.528   1.107
 5683TIP3    H138608   3.720   5.544   1.203
 5683TIP3    H238609   3.788   5.586   1.076
 5684TIP3   OH238610   3.675   5.488   1.400
 5684TIP3    H138611   3.627   5.411   1.364
 5684TIP3    H238612   3.725   5.444   1.470
 5685TIP3   OH238613   3.525   5.060   1.870
 5685TIP3    H138614   3.434   5.053   1.904
 5685TIP3    H238615   3.551   5.144   1.907
 5686TIP3   OH238616   3.652   4.892   0.411
 5686TIP3    H138617   3.737   4.933   0.432
 5686TIP3    H238618   3.649   4.821   0.479
 5687TIP3   OH238619   3.686   4.700   0.599
 5687TIP3    H138620   3.612   4.649   0.638
 5687TIP3    H238621   3.746   4.714   0.676
 5688TIP3   OH238622   3.662   4.970   1.098
 5688TIP3    H138623   3.744   4.932   1.061
 5688TIP3    H238624   3.677   5.065   1.081
 5689TIP3   OH238625   3.518   5.260   1.325
 5689TIP3    H138626   3.449   5.294   1.384
 5689TIP3    H238627   3.463   5.220   1.254
 5690TIP3   OH238628   3.716   4.682   0.237
 5690TIP3    H138629   3.658   4.719   0.168
 5690TIP3    H238630   3.709   4.752   0.304
 5691TIP3   OH238631   3.516   4.409   0.100
 5691TIP3    H138632   3.562   4.468   0.038
 5691TIP3    H238633   3.536   4.325   0.055
 5692TIP3   OH238634   3.468   4.548   0.657
 5692TIP3    H138635   3.454   4.452   0.653
 5692TIP3    H238636   3.435   4.570   0.746
 5693TIP3   OH238637   1.969   4.759   1.063
 5693TIP3    H138638   1.986   4.748   0.967
 5693TIP3    H238639   2.057   4.739   1.100
 5694TIP3   OH238640   3.551   4.745   1.621
 5694TIP3    H138641   3.612   4.670   1.640
 5694TIP3    H238642   3.613   4.821   1.621
 5695TIP3   OH238643   3.705   4.534   1.676
 5695TIP3    H138644   3.616   4.492   1.680
 5695TIP3    H238645   3.760   4.455   1.688
 5696TIP3   OH238646   3.477   4.148   0.001
 5696TIP3    H138647   3.536   4.108   0.067
 5696TIP3    H238648   3.390   4.110   0.023
 5697TIP3   OH238649   3.435   4.306   0.504
 5697TIP3    H138650   3.466   4.213   0.515
 5697TIP3    H238651   3.513   4.346   0.464
 5698TIP3   OH238652   3.499   4.360   1.047
 5698TIP3    H138653   3.595   4.383   1.045
 5698TIP3    H238654   3.480   4.374   1.141
 5699TIP3   OH238655   3.505   4.433   1.323
 5699TIP3    H138656   3.419   4.461   1.359
 5699TIP3    H238657   3.549   4.519   1.303
 5700TIP3   OH238658   1.930   4.280   1.681
 5700TIP3    H138659   2.026   4.265   1.692
 5700TIP3    H238660   1.886   4.200   1.710
 5701TIP3   OH238661   3.733   3.832   1.855
 5701TIP3    H138662   3.769   3.769   1.792
 5701TIP3    H238663   3.742   3.918   1.811
 5702TIP3   OH238664   3.500   4.034   0.508
 5702TIP3    H138665   3.523   3.990   0.592
 5702TIP3    H238666   3.443   3.969   0.462
 5703TIP3   OH238667   2.051   4.115   0.963
 5703TIP3    H138668   2.097   4.033   0.989
 5703TIP3    H238669   2.104   4.185   1.003
 5704TIP3   OH238670   1.881   4.413   1.067
 5704TIP3    H138671   1.936   4.392   0.989
 5704TIP3    H238672   1.922   4.496   1.096
 5705TIP3   OH238673   3.686   4.049   1.694
 5705TIP3    H138674   3.592   4.073   1.692
 5705TIP3    H238675   3.692   3.994   1.615
 5706TIP3   OH238676   3.684   4.040   0.163
 5706TIP3    H138677   3.727   3.969   0.113
 5706TIP3    H238678   3.756   4.105   0.165
 5707TIP3   OH238679   1.916   4.042   0.475
 5707TIP3    H138680   1.821   4.058   0.461
 5707TIP3    H238681   1.958   4.088   0.401
 5708TIP3   OH238682   3.389   5.536   0.670
 5708TIP3    H138683   3.457   5.506   0.607
 5708TIP3    H238684   3.441   5.586   0.734
 5709TIP3   OH238685   1.911   3.908   1.305
 5709TIP3    H138686   1.844   3.888   1.372
 5709TIP3    H238687   1.865   3.974   1.250
 5710TIP3   OH238688   2.132   5.224   1.722
 5710TIP3    H138689   2.048   5.250   1.679
 5710TIP3    H238690   2.108   5.223   1.815
 5711TIP3   OH238691   2.424   5.327   1.347
 5711TIP3    H138692   2.390   5.413   1.320
 5711TIP3    H238693   2.517   5.336   1.317
 5712TIP3   OH238694   2.859   5.467   1.638
 5712TIP3    H138695   2.873   5.437   1.732
 5712TIP3    H238696   2.947   5.501   1.614
 5713TIP3   OH238697   3.086   5.596   1.568
 5713TIP3    H138698   3.159   5.537   1.545
 5713TIP3    H238699   3.123   5.639   1.648
 5714TIP3   OH238700   3.587   3.859   1.478
 5714TIP3    H138701   3.503   3.886   1.438
 5714TIP3    H238702   3.605   3.776   1.428
 5715TIP3   OH238703   2.167   5.651   1.347
 5715TIP3    H138704   2.093   5.701   1.309
 5715TIP3    H238705   2.136   5.632   1.437
 5716TIP3   OH238706   2.414   5.609   1.254
 5716TIP3    H138707   2.325   5.623   1.294
 5716TIP3    H238708   2.408   5.668   1.177
 5717TIP3   OH238709   2.884   5.600   1.172
 5717TIP3    H138710   2.838   5.655   1.107
 5717TIP3    H238711   2.898   5.663   1.246
 5718TIP3   OH238712   3.114   5.482   1.273
 5718TIP3    H138713   3.028   5.508   1.238
 5718TIP3    H238714   3.161   5.566   1.264
 5719TIP3   OH238715   3.372   5.639   1.297
 5719TIP3    H138716   3.365   5.734   1.274
 5719TIP3    H238717   3.393   5.601   1.209
 5720TIP3   OH238718   2.112   5.516   1.042
 5720TIP3    H138719   2.104   5.470   1.128
 5720TIP3    H238720   2.194   5.478   1.003
 5721TIP3   OH238721   2.320   5.387   0.907
 5721TIP3    H138722   2.303   5.294   0.930
 5721TIP3    H238723   2.406   5.402   0.953
 5722TIP3   OH238724   2.580   5.436   0.995
 5722TIP3    H138725   2.596   5.343   0.968
 5722TIP3    H238726   2.585   5.430   1.091
 5723TIP3   OH238727   2.925   4.000   0.907
 5723TIP3    H138728   2.859   3.936   0.938
 5723TIP3    H238729   2.983   3.946   0.852
 5724TIP3   OH238730   3.439   3.806   0.915
 5724TIP3    H138731   3.501   3.865   0.864
 5724TIP3    H238732   3.351   3.842   0.892
 5725TIP3   OH238733   3.607   3.929   0.743
 5725TIP3    H138734   3.675   3.872   0.701
 5725TIP3    H238735   3.657   4.014   0.753
 5726TIP3   OH238736   2.163   3.866   0.694
 5726TIP3    H138737   2.085   3.840   0.640
 5726TIP3    H238738   2.208   3.779   0.687
 5727TIP3   OH238739   2.034   3.841   0.260
 5727TIP3    H138740   2.089   3.904   0.211
 5727TIP3    H238741   1.984   3.897   0.321
 5728TIP3   OH238742   2.614   3.856   0.670
 5728TIP3    H138743   2.703   3.894   0.669
 5728TIP3    H238744   2.604   3.834   0.763
 5729TIP3   OH238745   3.178   3.859   0.834
 5729TIP3    H138746   3.180   3.867   0.738
 5729TIP3    H238747   3.145   3.766   0.848
 5730TIP3   OH238748   3.308   3.860   0.401
 5730TIP3    H138749   3.237   3.921   0.383
 5730TIP3    H238750   3.266   3.773   0.422
 5731TIP3   OH238751   2.032   5.434   0.366
 5731TIP3    H138752   1.964   5.434   0.296
 5731TIP3    H238753   2.034   5.529   0.383
 5732TIP3   OH238754   2.224   4.029   0.117
 5732TIP3    H138755   2.276   3.969   0.064
 5732TIP3    H238756   2.289   4.063   0.180
 5733TIP3   OH238757   2.738   4.056   0.358
 5733TIP3    H138758   2.734   4.002   0.438
 5733TIP3    H238759   2.728   4.145   0.402
 5734TIP3   OH238760   2.915   5.590   0.205
 5734TIP3    H138761   3.011   5.592   0.188
 5734TIP3    H238762   2.898   5.520   0.137
 5735TIP3   OH238763   3.589   5.515   0.473
 5735TIP3    H138764   3.569   5.437   0.415
 5735TIP3    H238765   3.581   5.588   0.409
 5736TIP3   OH238766   2.148   3.922   1.643
 5736TIP3    H138767   2.117   3.838   1.680
 5736TIP3    H238768   2.243   3.912   1.671
 5737TIP3   OH238769   2.346   3.851   1.791
 5737TIP3    H138770   2.439   3.824   1.780
 5737TIP3    H238771   2.315   3.779   1.848
 5738TIP3   OH238772   2.215   5.532   0.063
 5738TIP3    H138773   2.185   5.558   0.150
 5738TIP3    H238774   2.290   5.476   0.079
 5739TIP3   OH238775   3.512   5.386   1.685
 5739TIP3    H138776   3.434   5.375   1.628
 5739TIP3    H238777   3.503   5.482   1.703
 5740TIP3   OH238778   4.958   4.778   0.678
 5740TIP3    H138779   4.954   4.876   0.677
 5740TIP3    H238780   4.883   4.754   0.621
 5741TIP3   OH238781   4.842   4.703   1.030
 5741TIP3    H138782   4.842   4.637   1.101
 5741TIP3    H238783   4.809   4.653   0.953
 5742TIP3   OH238784   4.079   4.670   1.184
 5742TIP3    H138785   4.087   4.602   1.254
 5742TIP3    H238786   4.153   4.727   1.206
 5743TIP3   OH238787   5.212   4.996   0.856
 5743TIP3    H138788   5.171   4.926   0.907
 5743TIP3    H238789   5.215   5.067   0.922
 5744TIP3   OH238790   4.171   5.115   1.035
 5744TIP3    H138791   4.140   5.028   1.003
 5744TIP3    H238792   4.267   5.096   1.040
 5745TIP3   OH238793   3.835   4.471   0.583
 5745TIP3    H138794   3.791   4.558   0.578
 5745TIP3    H238795   3.779   4.417   0.526
 5746TIP3   OH238796   3.906   4.693   0.797
 5746TIP3    H138797   3.933   4.611   0.843
 5746TIP3    H238798   3.976   4.703   0.731
 5747TIP3   OH238799   4.924   5.513   0.881
 5747TIP3    H138800   4.989   5.443   0.852
 5747TIP3    H238801   4.903   5.480   0.968
 5748TIP3   OH238802   4.681   4.943   1.075
 5748TIP3    H138803   4.715   4.880   1.010
 5748TIP3    H238804   4.761   4.958   1.128
 5749TIP3   OH238805   5.541   4.108   1.149
 5749TIP3    H138806   5.558   4.168   1.226
 5749TIP3    H238807   5.597   4.151   1.083
 5750TIP3   OH238808   4.997   4.390   1.106
 5750TIP3    H138809   5.014   4.294   1.107
 5750TIP3    H238810   4.988   4.404   1.010
 5751TIP3   OH238811   4.309   4.198   0.829
 5751TIP3    H138812   4.319   4.282   0.780
 5751TIP3    H238813   4.269   4.141   0.760
 5752TIP3   OH238814   5.083   4.206   0.666
 5752TIP3    H138815   5.148   4.174   0.733
 5752TIP3    H238816   5.139   4.262   0.611
 5753TIP3   OH238817   3.971   4.439   0.903
 5753TIP3    H138818   4.039   4.384   0.948
 5753TIP3    H238819   3.981   4.408   0.811
 5754TIP3   OH238820   4.487   4.595   0.833
 5754TIP3    H138821   4.554   4.537   0.874
 5754TIP3    H238822   4.435   4.529   0.784
 5755TIP3   OH238823   5.586   4.250   1.378
 5755TIP3    H138824   5.524   4.326   1.365
 5755TIP3    H238825   5.588   4.241   1.474
 5756TIP3   OH238826   4.199   4.088   1.233
 5756TIP3    H138827   4.171   4.145   1.158
 5756TIP3    H238828   4.131   4.111   1.301
 5757TIP3   OH238829   4.932   5.036   0.586
 5757TIP3    H138830   4.898   5.009   0.499
 5757TIP3    H238831   4.898   5.129   0.594
 5758TIP3   OH238832   4.451   4.853   1.258
 5758TIP3    H138833   4.380   4.917   1.279
 5758TIP3    H238834   4.522   4.912   1.229
 5759TIP3   OH238835   5.263   4.140   0.866
 5759TIP3    H138836   5.241   4.063   0.919
 5759TIP3    H238837   5.330   4.184   0.921
 5760TIP3   OH238838   4.156   4.274   1.036
 5760TIP3    H138839   4.219   4.343   1.068
 5760TIP3    H238840   4.208   4.232   0.963
 5761TIP3   OH238841   4.296   5.053   1.340
 5761TIP3    H138842   4.291   5.144   1.305
 5761TIP3    H238843   4.207   5.045   1.384
 5762TIP3   OH238844   3.902   5.014   0.418
 5762TIP3    H138845   3.881   5.048   0.329
 5762TIP3    H238846   3.910   5.098   0.469
 5763TIP3   OH238847   5.265   5.181   1.094
 5763TIP3    H138848   5.168   5.192   1.106
 5763TIP3    H238849   5.292   5.273   1.075
 5764TIP3   OH238850   5.297   4.010   1.234
 5764TIP3    H138851   5.224   4.073   1.224
 5764TIP3    H238852   5.368   4.051   1.181
 5765TIP3   OH238853   4.594   3.822   0.979
 5765TIP3    H138854   4.581   3.725   0.973
 5765TIP3    H238855   4.507   3.852   1.011
 5766TIP3   OH238856   5.091   5.358   0.753
 5766TIP3    H138857   5.134   5.287   0.702
 5766TIP3    H238858   5.133   5.437   0.713
 5767TIP3   OH238859   5.214   5.151   0.604
 5767TIP3    H138860   5.180   5.084   0.543
 5767TIP3    H238861   5.214   5.104   0.690
 5768TIP3   OH238862   5.375   5.012   1.454
 5768TIP3    H138863   5.388   4.947   1.381
 5768TIP3    H238864   5.394   5.097   1.410
 5769TIP3   OH238865   4.824   4.703   0.430
 5769TIP3    H138866   4.752   4.757   0.392
 5769TIP3    H238867   4.891   4.710   0.361
 5770TIP3   OH238868   4.828   4.555   0.137
 5770TIP3    H138869   4.900   4.551   0.202
 5770TIP3    H238870   4.858   4.489   0.074
 5771TIP3   OH238871   5.562   4.642   1.257
 5771TIP3    H138872   5.496   4.714   1.263
 5771TIP3    H238873   5.611   4.666   1.177
 5772TIP3   OH238874   5.164   4.717   0.531
 5772TIP3    H138875   5.088   4.741   0.593
 5772TIP3    H238876   5.211   4.651   0.586
 5773TIP3   OH238877   5.160   4.538   1.433
 5773TIP3    H138878   5.161   4.620   1.488
 5773TIP3    H238879   5.097   4.568   1.365
 5774TIP3   OH238880   4.329   4.788   0.714
 5774TIP3    H138881   4.297   4.748   0.630
 5774TIP3    H238882   4.390   4.718   0.748
 5775TIP3   OH238883   4.461   5.127   0.983
 5775TIP3    H138884   4.460   5.073   0.902
 5775TIP3    H238885   4.539   5.091   1.029
 5776TIP3   OH238886   4.362   4.662   1.080
 5776TIP3    H138887   4.418   4.673   1.000
 5776TIP3    H238888   4.401   4.729   1.142
 5777TIP3   OH238889   5.003   5.219   1.151
 5777TIP3    H138890   4.975   5.283   1.217
 5777TIP3    H238891   4.978   5.134   1.193
 5778TIP3   OH238892   4.457   5.104   1.552
 5778TIP3    H138893   4.418   5.180   1.600
 5778TIP3    H238894   4.390   5.086   1.482
 5779TIP3   OH238895   5.056   4.640   0.289
 5779TIP3    H138896   5.102   4.654   0.375
 5779TIP3    H238897   5.092   4.693   0.216
 5780TIP3   OH238898   4.151   4.723   1.467
 5780TIP3    H138899   4.155   4.788   1.541
 5780TIP3    H238900   4.058   4.731   1.444
 5781TIP3   OH238901   4.826   5.313   0.638
 5781TIP3    H138902   4.870   5.345   0.717
 5781TIP3    H238903   4.771   5.388   0.612
 5782TIP3   OH238904   4.281   5.308   1.626
 5782TIP3    H138905   4.277   5.298   1.529
 5782TIP3    H238906   4.188   5.294   1.652
 5783TIP3   OH238907   5.428   3.815   0.277
 5783TIP3    H138908   5.333   3.826   0.302
 5783TIP3    H238909   5.449   3.900   0.237
 5784TIP3   OH238910   4.226   4.691   0.476
 5784TIP3    H138911   4.198   4.768   0.423
 5784TIP3    H238912   4.161   4.624   0.453
 5785TIP3   OH238913   5.538   5.248   0.117
 5785TIP3    H138914   5.550   5.344   0.128
 5785TIP3    H238915   5.631   5.220   0.109
 5786TIP3   OH238916   3.835   4.933   1.364
 5786TIP3    H138917   3.790   4.924   1.278
 5786TIP3    H238918   3.842   4.838   1.387
 5787TIP3   OH238919   3.811   5.206   1.043
 5787TIP3    H138920   3.907   5.195   1.041
 5787TIP3    H238921   3.803   5.288   1.094
 5788TIP3   OH238922   5.634   5.276   1.606
 5788TIP3    H138923   5.624   5.180   1.612
 5788TIP3    H238924   5.549   5.301   1.650
 5789TIP3   OH238925   4.730   5.232   1.496
 5789TIP3    H138926   4.738   5.314   1.552
 5789TIP3    H238927   4.645   5.195   1.525
 5790TIP3   OH238928   4.774   5.605   0.478
 5790TIP3    H138929   4.766   5.599   0.381
 5790TIP3    H238930   4.777   5.701   0.494
 5791TIP3   OH238931   4.139   5.493   0.660
 5791TIP3    H138932   4.153   5.451   0.748
 5791TIP3    H238933   4.054   5.452   0.636
 5792TIP3   OH238934   5.077   5.527   0.176
 5792TIP3    H138935   5.123   5.451   0.133
 5792TIP3    H238936   5.084   5.501   0.269
 5793TIP3   OH238937   5.048   5.522   0.455
 5793TIP3    H138938   4.953   5.527   0.473
 5793TIP3    H238939   5.074   5.447   0.511
 5794TIP3   OH238940   5.348   4.420   1.660
 5794TIP3    H138941   5.303   4.470   1.590
 5794TIP3    H238942   5.350   4.330   1.624
 5795TIP3   OH238943   4.062   5.064   1.459
 5795TIP3    H138944   4.085   5.027   1.548
 5795TIP3    H238945   3.976   5.024   1.437
 5796TIP3   OH238946   4.331   3.911   1.055
 5796TIP3    H138947   4.241   3.899   1.018
 5796TIP3    H238948   4.319   3.995   1.103
 5797TIP3   OH238949   4.795   3.882   1.394
 5797TIP3    H138950   4.834   3.837   1.469
 5797TIP3    H238951   4.698   3.865   1.404
 5798TIP3   OH238952   5.123   4.262   1.481
 5798TIP3    H138953   5.068   4.244   1.561
 5798TIP3    H238954   5.106   4.355   1.457
 5799TIP3   OH238955   5.210   4.747   0.078
 5799TIP3    H138956   5.204   4.731  -0.020
 5799TIP3    H238957   5.296   4.794   0.073
 5800TIP3   OH238958   4.760   4.136   0.125
 5800TIP3    H138959   4.729   4.132   0.218
 5800TIP3    H238960   4.732   4.048   0.096
 5801TIP3   OH238961   4.341   4.409   1.179
 5801TIP3    H138962   4.268   4.407   1.243
 5801TIP3    H238963   4.337   4.500   1.143
 5802TIP3   OH238964   4.337   4.422   0.666
 5802TIP3    H138965   4.244   4.395   0.653
 5802TIP3    H238966   4.376   4.392   0.581
 5803TIP3   OH238967   4.891   4.472   0.542
 5803TIP3    H138968   4.848   4.553   0.509
 5803TIP3    H238969   4.958   4.453   0.474
 5804TIP3   OH238970   4.797   4.490   1.684
 5804TIP3    H138971   4.743   4.415   1.720
 5804TIP3    H238972   4.879   4.482   1.736
 5805TIP3   OH238973   4.993   4.419   0.828
 5805TIP3    H138974   4.964   4.475   0.755
 5805TIP3    H238975   5.003   4.334   0.781
 5806TIP3   OH238976   4.104   4.435   1.349
 5806TIP3    H138977   4.111   4.475   1.437
 5806TIP3    H238978   4.060   4.351   1.369
 5807TIP3   OH238979   4.458   4.196   0.065
 5807TIP3    H138980   4.404   4.133   0.117
 5807TIP3    H238981   4.397   4.231   0.001
 5808TIP3   OH238982   3.770   4.146   0.746
 5808TIP3    H138983   3.838   4.142   0.816
 5808TIP3    H238984   3.815   4.107   0.668
 5809TIP3   OH238985   3.899   4.218   0.283
 5809TIP3    H138986   3.948   4.278   0.223
 5809TIP3    H238987   3.830   4.280   0.315
 5810TIP3   OH238988   4.913   4.579   1.285
 5810TIP3    H138989   4.950   4.511   1.225
 5810TIP3    H238990   4.867   4.525   1.352
 5811TIP3   OH238991   4.593   4.176   0.767
 5811TIP3    H138992   4.500   4.177   0.796
 5811TIP3    H238993   4.642   4.160   0.849
 5812TIP3   OH238994   4.074   4.331   0.654
 5812TIP3    H138995   3.986   4.346   0.615
 5812TIP3    H238996   4.103   4.248   0.613
 5813TIP3   OH238997   4.438   4.337   0.417
 5813TIP3    H138998   4.534   4.347   0.434
 5813TIP3    H238999   4.415   4.403   0.348
 5814TIP3   OH239000   5.034   4.098   1.091
 5814TIP3    H139001   4.965   4.106   1.161
 5814TIP3    H239002   4.983   4.074   1.012
 5815TIP3   OH239003   4.308   4.453   0.176
 5815TIP3    H139004   4.253   4.418   0.104
 5815TIP3    H239005   4.390   4.475   0.130
 5816TIP3   OH239006   4.123   4.912   1.680
 5816TIP3    H139007   4.193   4.936   1.743
 5816TIP3    H239008   4.045   4.921   1.738
 5817TIP3   OH239009   4.722   4.452   0.956
 5817TIP3    H139010   4.781   4.397   0.903
 5817TIP3    H239011   4.707   4.397   1.034
 5818TIP3   OH239012   4.223   4.066   0.601
 5818TIP3    H139013   4.192   3.974   0.598
 5818TIP3    H239014   4.301   4.060   0.545
 5819TIP3   OH239015   4.586   4.285   1.198
 5819TIP3    H139016   4.503   4.336   1.207
 5819TIP3    H239017   4.641   4.319   1.270
 5820TIP3   OH239018   4.645   4.906   0.369
 5820TIP3    H139019   4.565   4.860   0.335
 5820TIP3    H239020   4.622   4.917   0.464
 5821TIP3   OH239021   5.362   4.826   1.247
 5821TIP3    H139022   5.419   4.875   1.184
 5821TIP3    H239023   5.276   4.832   1.200
 5822TIP3   OH239024   5.031   4.186   0.187
 5822TIP3    H139025   4.936   4.201   0.169
 5822TIP3    H239026   5.060   4.273   0.217
 5823TIP3   OH239027   4.792   4.931   1.488
 5823TIP3    H139028   4.758   4.891   1.568
 5823TIP3    H239029   4.768   5.024   1.499
 5824TIP3   OH239030   5.101   4.384   0.355
 5824TIP3    H139031   5.191   4.362   0.388
 5824TIP3    H239032   5.111   4.459   0.296
 5825TIP3   OH239033   4.155   4.846   0.947
 5825TIP3    H139034   4.224   4.838   0.879
 5825TIP3    H239035   4.161   4.760   0.993
 5826TIP3   OH239036   4.856   5.052   0.276
 5826TIP3    H139037   4.818   5.138   0.306
 5826TIP3    H239038   4.780   4.992   0.291
 5827TIP3   OH239039   3.854   4.686   1.473
 5827TIP3    H139040   3.871   4.642   1.559
 5827TIP3    H239041   3.791   4.624   1.431
 5828TIP3   OH239042   4.554   4.642   1.692
 5828TIP3    H139043   4.525   4.613   1.605
 5828TIP3    H239044   4.648   4.612   1.693
 5829TIP3   OH239045   5.023   5.176   1.487
 5829TIP3    H139046   4.930   5.194   1.463
 5829TIP3    H239047   5.019   5.204   1.580
 5830TIP3   OH239048   5.588   4.394   0.328
 5830TIP3    H139049   5.536   4.361   0.253
 5830TIP3    H239050   5.602   4.486   0.298
 5831TIP3   OH239051   5.590   4.979   1.607
 5831TIP3    H139052   5.501   5.001   1.570
 5831TIP3    H239053   5.645   4.974   1.526
 5832TIP3   OH239054   5.420   5.276   0.365
 5832TIP3    H139055   5.383   5.194   0.398
 5832TIP3    H239056   5.451   5.258   0.274
 5833TIP3   OH239057   5.140   4.759   1.075
 5833TIP3    H139058   5.046   4.737   1.065
 5833TIP3    H239059   5.183   4.682   1.033
 5834TIP3   OH239060   4.392   5.191   0.686
 5834TIP3    H139061   4.442   5.272   0.665
 5834TIP3    H239062   4.304   5.215   0.653
 5835TIP3   OH239063   3.965   4.677   0.139
 5835TIP3    H139064   4.028   4.740   0.181
 5835TIP3    H239065   3.879   4.706   0.172
 5836TIP3   OH239066   4.535   4.958   0.639
 5836TIP3    H139067   4.503   5.050   0.646
 5836TIP3    H239068   4.462   4.909   0.682
 5837TIP3   OH239069   4.580   5.376   1.278
 5837TIP3    H139070   4.625   5.457   1.250
 5837TIP3    H239071   4.641   5.342   1.346
 5838TIP3   OH239072   4.402   5.458   0.590
 5838TIP3    H139073   4.305   5.471   0.604
 5838TIP3    H239074   4.438   5.541   0.626
 5839TIP3   OH239075   4.932   4.977   1.239
 5839TIP3    H139076   4.898   4.958   1.329
 5839TIP3    H239077   4.996   4.906   1.224
 5840TIP3   OH239078   5.160   5.074   0.150
 5840TIP3    H139079   5.190   5.042   0.236
 5840TIP3    H239080   5.064   5.068   0.159
 5841TIP3   OH239081   5.209   5.438   1.493
 5841TIP3    H139082   5.145   5.385   1.441
 5841TIP3    H239083   5.232   5.504   1.424
 5842TIP3   OH239084   5.612   5.522   0.175
 5842TIP3    H139085   5.682   5.585   0.151
 5842TIP3    H239086   5.540   5.582   0.204
 5843TIP3   OH239087   4.019   4.161   1.429
 5843TIP3    H139088   3.928   4.195   1.426
 5843TIP3    H239089   4.008   4.075   1.474
 5844TIP3   OH239090   5.246   4.964   0.378
 5844TIP3    H139091   5.209   4.903   0.444
 5844TIP3    H239092   5.342   4.968   0.398
 5845TIP3   OH239093   3.981   5.339   1.272
 5845TIP3    H139094   4.010   5.246   1.272
 5845TIP3    H239095   4.007   5.367   1.360
 5846TIP3   OH239096   4.456   5.147   0.242
 5846TIP3    H139097   4.481   5.091   0.317
 5846TIP3    H239098   4.463   5.238   0.276
 5847TIP3   OH239099   4.104   4.870   0.287
 5847TIP3    H139100   4.039   4.910   0.348
 5847TIP3    H239101   4.161   4.946   0.266
 5848TIP3   OH239102   4.892   4.139   1.323
 5848TIP3    H139103   4.964   4.141   1.388
 5848TIP3    H239104   4.854   4.050   1.340
 5849TIP3   OH239105   4.966   4.097   0.435
 5849TIP3    H139106   4.991   4.142   0.352
 5849TIP3    H239107   5.025   4.140   0.498
 5850TIP3   OH239108   4.735   5.312   0.316
 5850TIP3    H139109   4.654   5.364   0.322
 5850TIP3    H239110   4.790   5.362   0.252
 5851TIP3   OH239111   4.689   4.270   0.514
 5851TIP3    H139112   4.768   4.327   0.518
 5851TIP3    H239113   4.663   4.257   0.607
 5852TIP3   OH239114   4.744   4.372   1.434
 5852TIP3    H139115   4.752   4.428   1.513
 5852TIP3    H239116   4.811   4.303   1.445
 5853TIP3   OH239117   4.775   3.976   0.603
 5853TIP3    H139118   4.743   4.040   0.668
 5853TIP3    H239119   4.844   4.030   0.559
 5854TIP3   OH239120   4.472   5.415   0.318
 5854TIP3    H139121   4.490   5.498   0.267
 5854TIP3    H239122   4.448   5.450   0.407
 5855TIP3   OH239123   4.341   4.084   0.278
 5855TIP3    H139124   4.335   4.176   0.312
 5855TIP3    H239125   4.433   4.062   0.304
 5856TIP3   OH239126   5.363   4.159   1.517
 5856TIP3    H139127   5.270   4.190   1.505
 5856TIP3    H239128   5.393   4.156   1.425
 5857TIP3   OH239129   5.224   4.538   0.922
 5857TIP3    H139130   5.142   4.493   0.892
 5857TIP3    H239131   5.272   4.468   0.972
 5858TIP3   OH239132   4.165   5.131   0.179
 5858TIP3    H139133   4.231   5.194   0.211
 5858TIP3    H239134   4.217   5.084   0.111
 5859TIP3   OH239135   4.003   4.398   0.099
 5859TIP3    H139136   4.000   4.494   0.110
 5859TIP3    H239137   3.916   4.378   0.063
 5860TIP3   OH239138   5.330   5.465   1.088
 5860TIP3    H139139   5.321   5.532   1.018
 5860TIP3    H239140   5.426   5.470   1.105
 5861TIP3   OH239141   4.080   3.876   0.967
 5861TIP3    H139142   4.060   3.878   0.871
 5861TIP3    H239143   4.038   3.791   0.992
 5862TIP3   OH239144   3.976   5.268   0.581
 5862TIP3    H139145   3.890   5.313   0.578
 5862TIP3    H239146   4.024   5.315   0.512
 5863TIP3   OH239147   3.898   5.534   1.713
 5863TIP3    H139148   3.958   5.509   1.783
 5863TIP3    H239149   3.855   5.449   1.690
 5864TIP3   OH239150   4.362   5.429   1.869
 5864TIP3    H139151   4.435   5.374   1.904
 5864TIP3    H239152   4.360   5.396   1.777
 5865TIP3   OH239153   4.813   5.382   0.068
 5865TIP3    H139154   4.729   5.333   0.059
 5865TIP3    H239155   4.863   5.336  -0.000
 5866TIP3   OH239156   5.024   5.259   1.740
 5866TIP3    H139157   4.982   5.177   1.773
 5866TIP3    H239158   5.091   5.272   1.807
 5867TIP3   OH239159   5.234   5.355   0.031
 5867TIP3    H139160   5.260   5.274   0.078
 5867TIP3    H239161   5.312   5.374  -0.023
 5868TIP3   OH239162   3.890   4.912   1.809
 5868TIP3    H139163   3.907   4.821   1.777
 5868TIP3    H239164   3.814   4.938   1.754
 5869TIP3   OH239165   4.331   4.952   0.025
 5869TIP3    H139166   4.336   4.868   0.072
 5869TIP3    H239167   4.387   4.930  -0.052
 5870TIP3   OH239168   4.560   4.909   1.745
 5870TIP3    H139169   4.524   4.939   1.660
 5870TIP3    H239170   4.565   4.811   1.739
 5871TIP3   OH239171   5.130   4.896   1.486
 5871TIP3    H139172   5.208   4.954   1.478
 5871TIP3    H239173   5.059   4.961   1.493
 5872TIP3   OH239174   3.981   4.634   1.749
 5872TIP3    H139175   4.018   4.546   1.739
 5872TIP3    H239176   3.953   4.630   1.842
 5873TIP3   OH239177   4.444   4.748   0.254
 5873TIP3    H139178   4.393   4.695   0.317
 5873TIP3    H239179   4.474   4.679   0.190
 5874TIP3   OH239180   4.369   4.528   1.483
 5874TIP3    H139181   4.310   4.600   1.509
 5874TIP3    H239182   4.409   4.564   1.402
 5875TIP3   OH239183   4.551   4.570   0.074
 5875TIP3    H139184   4.539   4.550  -0.020
 5875TIP3    H239185   4.649   4.578   0.084
 5876TIP3   OH239186   5.466   4.813   8.527
 5876TIP3    H139187   5.460   4.764   8.443
 5876TIP3    H239188   5.491   4.902   8.497
 5877TIP3   OH239189   4.408   4.266   1.592
 5877TIP3    H139190   4.421   4.195   1.527
 5877TIP3    H239191   4.405   4.346   1.535
 5878TIP3   OH239192   4.450   4.103   1.344
 5878TIP3    H139193   4.501   4.150   1.274
 5878TIP3    H239194   4.361   4.095   1.303
 5879TIP3   OH239195   4.604   4.652   1.369
 5879TIP3    H139196   4.679   4.635   1.311
 5879TIP3    H239197   4.567   4.735   1.334
 5880TIP3   OH239198   5.044   4.430   1.861
 5880TIP3    H139199   5.067   4.336   1.867
 5880TIP3    H239200   5.131   4.473   1.870
 5881TIP3   OH239201   5.178   4.704   1.675
 5881TIP3    H139202   5.153   4.782   1.622
 5881TIP3    H239203   5.275   4.705   1.662
 5882TIP3   OH239204   4.255   4.389   1.783
 5882TIP3    H139205   4.179   4.332   1.761
 5882TIP3    H239206   4.321   4.354   1.720
 5883TIP3   OH239207   4.528   3.846   1.385
 5883TIP3    H139208   4.513   3.942   1.374
 5883TIP3    H239209   4.453   3.811   1.334
 5884TIP3   OH239210   4.655   4.281   1.743
 5884TIP3    H139211   4.628   4.258   1.835
 5884TIP3    H239212   4.574   4.260   1.693
 5885TIP3   OH239213   4.928   4.189   1.651
 5885TIP3    H139214   4.832   4.202   1.666
 5885TIP3    H239215   4.952   4.132   1.724
 5886TIP3   OH239216   4.069   4.183   1.757
 5886TIP3    H139217   4.089   4.110   1.697
 5886TIP3    H239218   4.056   4.138   1.842
 5887TIP3   OH239219   4.550   3.786   1.655
 5887TIP3    H139220   4.615   3.715   1.651
 5887TIP3    H239221   4.537   3.803   1.559
 5888TIP3   OH239222   4.591   3.951   1.857
 5888TIP3    H139223   4.568   3.895   1.779
 5888TIP3    H239224   4.528   4.025   1.854
 5889TIP3   OH239225   4.534   5.638   0.176
 5889TIP3    H139226   4.631   5.649   0.189
 5889TIP3    H239227   4.516   5.705   0.110
 5890TIP3   OH239228   3.891   5.098   0.129
 5890TIP3    H139229   3.987   5.107   0.150
 5890TIP3    H239230   3.894   5.038   0.054
 5891TIP3   OH239231   3.766   5.635   0.626
 5891TIP3    H139232   3.695   5.587   0.579
 5891TIP3    H239233   3.795   5.570   0.692
 5892TIP3   OH239234   3.849   5.448   0.813
 5892TIP3    H139235   3.814   5.360   0.833
 5892TIP3    H239236   3.871   5.481   0.902
 5893TIP3   OH239237   5.603   5.528   1.106
 5893TIP3    H139238   5.605   5.543   1.202
 5893TIP3    H239239   5.673   5.586   1.076
 5894TIP3   OH239240   5.561   5.488   1.400
 5894TIP3    H139241   5.512   5.411   1.364
 5894TIP3    H239242   5.612   5.443   1.468
 5895TIP3   OH239243   5.533   4.889   0.411
 5895TIP3    H139244   5.619   4.934   0.430
 5895TIP3    H239245   5.539   4.820   0.482
 5896TIP3   OH239246   5.570   4.701   0.600
 5896TIP3    H139247   5.499   4.647   0.641
 5896TIP3    H239248   5.633   4.713   0.675
 5897TIP3   OH239249   5.548   4.970   1.098
 5897TIP3    H139250   5.630   4.933   1.061
 5897TIP3    H239251   5.562   5.065   1.082
 5898TIP3   OH239252   5.404   5.260   1.326
 5898TIP3    H139253   5.334   5.294   1.384
 5898TIP3    H239254   5.349   5.220   1.255
 5899TIP3   OH239255   5.595   4.680   0.239
 5899TIP3    H139256   5.548   4.720   0.164
 5899TIP3    H239257   5.600   4.753   0.303
 5900TIP3   OH239258   5.403   4.410   0.100
 5900TIP3    H139259   5.447   4.467   0.035
 5900TIP3    H239260   5.419   4.325   0.054
 5901TIP3   OH239261   5.350   4.549   0.655
 5901TIP3    H139262   5.340   4.452   0.654
 5901TIP3    H239263   5.322   4.569   0.746
 5902TIP3   OH239264   3.855   4.756   1.062
 5902TIP3    H139265   3.873   4.748   0.966
 5902TIP3    H239266   3.944   4.739   1.098
 5903TIP3   OH239267   5.438   4.745   1.622
 5903TIP3    H139268   5.499   4.671   1.641
 5903TIP3    H239269   5.499   4.821   1.626
 5904TIP3   OH239270   5.590   4.532   1.687
 5904TIP3    H139271   5.501   4.494   1.677
 5904TIP3    H239272   5.647   4.454   1.681
 5905TIP3   OH239273   5.364   4.147   0.001
 5905TIP3    H139274   5.423   4.106   0.068
 5905TIP3    H239275   5.276   4.112   0.022
 5906TIP3   OH239276   5.321   4.307   0.503
 5906TIP3    H139277   5.351   4.213   0.516
 5906TIP3    H239278   5.401   4.345   0.464
 5907TIP3   OH239279   5.385   4.360   1.047
 5907TIP3    H139280   5.481   4.383   1.045
 5907TIP3    H239281   5.366   4.374   1.141
 5908TIP3   OH239282   5.391   4.433   1.324
 5908TIP3    H139283   5.304   4.462   1.359
 5908TIP3    H239284   5.435   4.519   1.304
 5909TIP3   OH239285   3.818   4.280   1.666
 5909TIP3    H139286   3.908   4.267   1.701
 5909TIP3    H239287   3.770   4.207   1.710
 5910TIP3   OH239288   5.615   3.836   1.856
 5910TIP3    H139289   5.655   3.769   1.799
 5910TIP3    H239290   5.630   3.920   1.810
 5911TIP3   OH239291   5.388   4.033   0.507
 5911TIP3    H139292   5.409   3.990   0.592
 5911TIP3    H239293   5.327   3.970   0.463
 5912TIP3   OH239294   3.936   4.115   0.963
 5912TIP3    H139295   3.983   4.033   0.989
 5912TIP3    H239296   3.991   4.184   1.002
 5913TIP3   OH239297   3.765   4.415   1.067
 5913TIP3    H139298   3.821   4.391   0.991
 5913TIP3    H239299   3.810   4.496   1.095
 5914TIP3   OH239300   5.572   4.054   1.690
 5914TIP3    H139301   5.477   4.072   1.686
 5914TIP3    H239302   5.578   3.992   1.617
 5915TIP3   OH239303   5.570   4.041   0.161
 5915TIP3    H139304   5.613   3.968   0.115
 5915TIP3    H239305   5.642   4.106   0.167
 5916TIP3   OH239306   3.801   4.041   0.473
 5916TIP3    H139307   3.707   4.060   0.461
 5916TIP3    H239308   3.843   4.090   0.401
 5917TIP3   OH239309   5.275   5.536   0.669
 5917TIP3    H139310   5.343   5.504   0.607
 5917TIP3    H239311   5.327   5.586   0.734
 5918TIP3   OH239312   3.797   3.907   1.304
 5918TIP3    H139313   3.729   3.888   1.372
 5918TIP3    H239314   3.751   3.974   1.250
 5919TIP3   OH239315   4.018   5.233   1.723
 5919TIP3    H139316   3.934   5.245   1.677
 5919TIP3    H239317   3.991   5.217   1.813
 5920TIP3   OH239318   4.310   5.327   1.347
 5920TIP3    H139319   4.276   5.413   1.321
 5920TIP3    H239320   4.402   5.336   1.317
 5921TIP3   OH239321   4.744   5.466   1.641
 5921TIP3    H139322   4.761   5.437   1.732
 5921TIP3    H239323   4.831   5.503   1.614
 5922TIP3   OH239324   4.971   5.596   1.567
 5922TIP3    H139325   5.044   5.536   1.546
 5922TIP3    H239326   5.004   5.639   1.648
 5923TIP3   OH239327   5.474   3.859   1.477
 5923TIP3    H139328   5.388   3.885   1.439
 5923TIP3    H239329   5.489   3.776   1.428
 5924TIP3   OH239330   4.053   5.651   1.347
 5924TIP3    H139331   3.979   5.701   1.308
 5924TIP3    H239332   4.021   5.631   1.436
 5925TIP3   OH239333   4.299   5.609   1.255
 5925TIP3    H139334   4.210   5.623   1.294
 5925TIP3    H239335   4.293   5.668   1.177
 5926TIP3   OH239336   4.770   5.601   1.171
 5926TIP3    H139337   4.723   5.656   1.107
 5926TIP3    H239338   4.783   5.663   1.246
 5927TIP3   OH239339   4.999   5.481   1.272
 5927TIP3    H139340   4.912   5.508   1.238
 5927TIP3    H239341   5.046   5.566   1.264
 5928TIP3   OH239342   5.258   5.639   1.297
 5928TIP3    H139343   5.251   5.735   1.274
 5928TIP3    H239344   5.279   5.602   1.209
 5929TIP3   OH239345   3.998   5.516   1.042
 5929TIP3    H139346   3.990   5.470   1.128
 5929TIP3    H239347   4.079   5.479   1.003
 5930TIP3   OH239348   4.206   5.387   0.907
 5930TIP3    H139349   4.189   5.294   0.930
 5930TIP3    H239350   4.291   5.402   0.952
 5931TIP3   OH239351   4.466   5.436   0.995
 5931TIP3    H139352   4.482   5.343   0.968
 5931TIP3    H239353   4.470   5.430   1.091
 5932TIP3   OH239354   4.811   4.001   0.908
 5932TIP3    H139355   4.744   3.936   0.936
 5932TIP3    H239356   4.867   3.947   0.850
 5933TIP3   OH239357   5.326   3.805   0.915
 5933TIP3    H139358   5.386   3.865   0.865
 5933TIP3    H239359   5.237   3.841   0.893
 5934TIP3   OH239360   5.493   3.929   0.743
 5934TIP3    H139361   5.561   3.872   0.701
 5934TIP3    H239362   5.543   4.014   0.753
 5935TIP3   OH239363   4.048   3.863   0.693
 5935TIP3    H139364   3.969   3.843   0.640
 5935TIP3    H239365   4.095   3.778   0.688
 5936TIP3   OH239366   3.923   3.839   0.266
 5936TIP3    H139367   3.974   3.903   0.211
 5936TIP3    H239368   3.869   3.897   0.321
 5937TIP3   OH239369   4.497   3.855   0.672
 5937TIP3    H139370   4.586   3.892   0.665
 5937TIP3    H239371   4.492   3.834   0.765
 5938TIP3   OH239372   5.066   3.857   0.835
 5938TIP3    H139373   5.063   3.868   0.739
 5938TIP3    H239374   5.029   3.767   0.847
 5939TIP3   OH239375   5.194   3.860   0.400
 5939TIP3    H139376   5.120   3.920   0.385
 5939TIP3    H239377   5.150   3.775   0.422
 5940TIP3   OH239378   3.918   5.434   0.366
 5940TIP3    H139379   3.850   5.434   0.296
 5940TIP3    H239380   3.920   5.529   0.383
 5941TIP3   OH239381   4.108   4.025   0.119
 5941TIP3    H139382   4.163   3.970   0.063
 5941TIP3    H239383   4.174   4.066   0.178
 5942TIP3   OH239384   4.612   4.058   0.357
 5942TIP3    H139385   4.637   4.000   0.431
 5942TIP3    H239386   4.617   4.144   0.404
 5943TIP3   OH239387   4.800   5.590   0.205
 5943TIP3    H139388   4.896   5.592   0.188
 5943TIP3    H239389   4.783   5.520   0.137
 5944TIP3   OH239390   5.475   5.515   0.473
 5944TIP3    H139391   5.455   5.437   0.415
 5944TIP3    H239392   5.466   5.589   0.409
 5945TIP3   OH239393   4.036   3.918   1.639
 5945TIP3    H139394   3.998   3.838   1.680
 5945TIP3    H239395   4.128   3.913   1.673
 5946TIP3   OH239396   4.239   3.856   1.802
 5946TIP3    H139397   4.328   3.824   1.778
 5946TIP3    H239398   4.203   3.773   1.840
 5947TIP3   OH239399   4.100   5.532   0.063
 5947TIP3    H139400   4.070   5.558   0.150
 5947TIP3    H239401   4.176   5.476   0.079
 5948TIP3   OH239402   5.399   5.389   1.681
 5948TIP3    H139403   5.318   5.375   1.628
 5948TIP3    H239404   5.392   5.483   1.702
 5949TIP3   OH239405   6.843   4.776   0.680
 5949TIP3    H139406   6.844   4.874   0.675
 5949TIP3    H239407   6.771   4.753   0.619
 5950TIP3   OH239408   6.729   4.703   1.029
 5950TIP3    H139409   6.727   4.638   1.100
 5950TIP3    H239410   6.697   4.652   0.953
 5951TIP3   OH239411   5.964   4.670   1.184
 5951TIP3    H139412   5.973   4.601   1.254
 5951TIP3    H239413   6.039   4.727   1.206
 5952TIP3   OH239414   7.100   4.996   0.858
 5952TIP3    H139415   7.057   4.925   0.907
 5952TIP3    H239416   7.100   5.068   0.924
 5953TIP3   OH239417   6.057   5.115   1.035
 5953TIP3    H139418   6.025   5.028   1.003
 5953TIP3    H239419   6.152   5.096   1.040
 5954TIP3   OH239420   5.720   4.471   0.583
 5954TIP3    H139421   5.678   4.558   0.578
 5954TIP3    H239422   5.665   4.416   0.526
 5955TIP3   OH239423   5.791   4.693   0.797
 5955TIP3    H139424   5.818   4.611   0.843
 5955TIP3    H239425   5.862   4.703   0.731
 5956TIP3   OH239426   6.812   5.514   0.880
 5956TIP3    H139427   6.873   5.441   0.853
 5956TIP3    H239428   6.787   5.481   0.967
 5957TIP3   OH239429   6.567   4.943   1.075
 5957TIP3    H139430   6.600   4.880   1.010
 5957TIP3    H239431   6.647   4.958   1.128
 5958TIP3   OH239432   6.884   4.389   1.107
 5958TIP3    H139433   6.900   4.293   1.105
 5958TIP3    H239434   6.874   4.405   1.011
 5959TIP3   OH239435   6.194   4.198   0.829
 5959TIP3    H139436   6.205   4.282   0.780
 5959TIP3    H239437   6.154   4.141   0.760
 5960TIP3   OH239438   6.971   4.210   0.667
 5960TIP3    H139439   7.036   4.175   0.733
 5960TIP3    H239440   7.029   4.262   0.612
 5961TIP3   OH239441   5.857   4.439   0.903
 5961TIP3    H139442   5.924   4.384   0.948
 5961TIP3    H239443   5.867   4.408   0.811
 5962TIP3   OH239444   6.373   4.595   0.833
 5962TIP3    H139445   6.440   4.537   0.874
 5962TIP3    H239446   6.321   4.529   0.784
 5963TIP3   OH239447   6.085   4.088   1.233
 5963TIP3    H139448   6.057   4.145   1.159
 5963TIP3    H239449   6.017   4.111   1.301
 5964TIP3   OH239450   6.814   5.036   0.587
 5964TIP3    H139451   6.787   5.008   0.498
 5964TIP3    H239452   6.783   5.129   0.593
 5965TIP3   OH239453   6.337   4.853   1.258
 5965TIP3    H139454   6.266   4.917   1.278
 5965TIP3    H239455   6.407   4.912   1.229
 5966TIP3   OH239456   7.120   4.138   0.878
 5966TIP3    H139457   7.124   4.057   0.928
 5966TIP3    H239458   7.197   4.185   0.915
 5967TIP3   OH239459   6.041   4.274   1.036
 5967TIP3    H139460   6.105   4.342   1.067
 5967TIP3    H239461   6.094   4.232   0.963
 5968TIP3   OH239462   6.181   5.052   1.338
 5968TIP3    H139463   6.177   5.144   1.306
 5968TIP3    H239464   6.093   5.045   1.384
 5969TIP3   OH239465   5.784   5.013   0.418
 5969TIP3    H139466   5.768   5.049   0.328
 5969TIP3    H239467   5.795   5.096   0.469
 5970TIP3   OH239468   7.131   5.174   1.103
 5970TIP3    H139469   7.035   5.195   1.108
 5970TIP3    H239470   7.170   5.259   1.074
 5971TIP3   OH239471   7.162   4.020   1.206
 5971TIP3    H139472   7.095   4.089   1.222
 5971TIP3    H239473   7.240   4.070   1.178
 5972TIP3   OH239474   6.481   3.820   0.981
 5972TIP3    H139475   6.465   3.725   0.973
 5972TIP3    H239476   6.393   3.852   1.010
 5973TIP3   OH239477   6.971   5.353   0.756
 5973TIP3    H139478   7.017   5.284   0.704
 5973TIP3    H239479   7.011   5.433   0.718
 5974TIP3   OH239480   7.096   5.152   0.605
 5974TIP3    H139481   7.071   5.081   0.544
 5974TIP3    H239482   7.102   5.101   0.689
 5975TIP3   OH239483   7.233   5.025   1.466
 5975TIP3    H139484   7.261   4.955   1.402
 5975TIP3    H239485   7.275   5.100   1.420
 5976TIP3   OH239486   6.707   4.701   0.429
 5976TIP3    H139487   6.639   4.759   0.390
 5976TIP3    H239488   6.779   4.709   0.364
 5977TIP3   OH239489   6.714   4.553   0.138
 5977TIP3    H139490   6.787   4.554   0.202
 5977TIP3    H239491   6.747   4.489   0.074
 5978TIP3   OH239492   7.050   4.722   0.520
 5978TIP3    H139493   6.978   4.748   0.583
 5978TIP3    H239494   7.098   4.658   0.576
 5979TIP3   OH239495   7.048   4.539   1.432
 5979TIP3    H139496   7.044   4.619   1.487
 5979TIP3    H239497   6.983   4.567   1.364
 5980TIP3   OH239498   6.214   4.788   0.714
 5980TIP3    H139499   6.182   4.748   0.629
 5980TIP3    H239500   6.276   4.719   0.748
 5981TIP3   OH239501   6.347   5.127   0.982
 5981TIP3    H139502   6.346   5.073   0.902
 5981TIP3    H239503   6.425   5.091   1.028
 5982TIP3   OH239504   6.248   4.662   1.080
 5982TIP3    H139505   6.303   4.673   1.000
 5982TIP3    H239506   6.286   4.729   1.142
 5983TIP3   OH239507   6.883   5.220   1.151
 5983TIP3    H139508   6.861   5.283   1.219
 5983TIP3    H239509   6.863   5.133   1.193
 5984TIP3   OH239510   6.341   5.104   1.553
 5984TIP3    H139511   6.303   5.181   1.598
 5984TIP3    H239512   6.276   5.085   1.481
 5985TIP3   OH239513   6.941   4.638   0.290
 5985TIP3    H139514   6.995   4.661   0.370
 5985TIP3    H239515   6.979   4.695   0.220
 5986TIP3   OH239516   6.036   4.722   1.468
 5986TIP3    H139517   6.040   4.788   1.540
 5986TIP3    H239518   5.943   4.731   1.443
 5987TIP3   OH239519   6.711   5.313   0.637
 5987TIP3    H139520   6.755   5.344   0.717
 5987TIP3    H239521   6.656   5.388   0.612
 5988TIP3   OH239522   6.163   5.309   1.626
 5988TIP3    H139523   6.164   5.298   1.529
 5988TIP3    H239524   6.070   5.295   1.647
 5989TIP3   OH239525   6.111   4.691   0.476
 5989TIP3    H139526   6.084   4.768   0.423
 5989TIP3    H239527   6.046   4.624   0.453
 5990TIP3   OH239528   5.723   4.932   1.361
 5990TIP3    H139529   5.675   4.924   1.277
 5990TIP3    H239530   5.728   4.838   1.387
 5991TIP3   OH239531   5.697   5.206   1.043
 5991TIP3    H139532   5.793   5.195   1.041
 5991TIP3    H239533   5.688   5.288   1.094
 5992TIP3   OH239534   6.618   5.231   1.499
 5992TIP3    H139535   6.622   5.315   1.549
 5992TIP3    H239536   6.531   5.195   1.524
 5993TIP3   OH239537   6.660   5.605   0.478
 5993TIP3    H139538   6.653   5.599   0.381
 5993TIP3    H239539   6.664   5.702   0.493
 5994TIP3   OH239540   6.024   5.493   0.660
 5994TIP3    H139541   6.039   5.452   0.748
 5994TIP3    H239542   5.939   5.452   0.636
 5995TIP3   OH239543   6.962   5.524   0.174
 5995TIP3    H139544   7.012   5.450   0.133
 5995TIP3    H239545   6.968   5.501   0.269
 5996TIP3   OH239546   6.934   5.520   0.458
 5996TIP3    H139547   6.837   5.526   0.473
 5996TIP3    H239548   6.956   5.443   0.511
 5997TIP3   OH239549   7.187   4.440   1.661
 5997TIP3    H139550   7.184   4.477   1.573
 5997TIP3    H239551   7.240   4.357   1.643
 5998TIP3   OH239552   5.947   5.064   1.460
 5998TIP3    H139553   5.970   5.026   1.547
 5998TIP3    H239554   5.861   5.023   1.437
 5999TIP3   OH239555   6.217   3.911   1.055
 5999TIP3    H139556   6.126   3.899   1.018
 5999TIP3    H239557   6.204   3.995   1.103
 6000TIP3   OH239558   6.683   3.877   1.390
 6000TIP3    H139559   6.720   3.839   1.472
 6000TIP3    H239560   6.586   3.867   1.405
 6001TIP3   OH239561   7.006   4.259   1.476
 6001TIP3    H139562   6.954   4.243   1.558
 6001TIP3    H239563   6.995   4.354   1.460
 6002TIP3   OH239564   7.100   4.739   0.070
 6002TIP3    H139565   7.095   4.731  -0.027
 6002TIP3    H239566   7.175   4.798   0.079
 6003TIP3   OH239567   6.644   4.136   0.125
 6003TIP3    H139568   6.614   4.131   0.218
 6003TIP3    H239569   6.618   4.048   0.096
 6004TIP3   OH239570   6.227   4.409   1.179
 6004TIP3    H139571   6.154   4.407   1.243
 6004TIP3    H239572   6.223   4.500   1.143
 6005TIP3   OH239573   6.223   4.421   0.666
 6005TIP3    H139574   6.129   4.395   0.653
 6005TIP3    H239575   6.261   4.392   0.581
 6006TIP3   OH239576   6.777   4.470   0.542
 6006TIP3    H139577   6.735   4.553   0.510
 6006TIP3    H239578   6.845   4.455   0.475
 6007TIP3   OH239579   6.684   4.491   1.686
 6007TIP3    H139580   6.629   4.415   1.720
 6007TIP3    H239581   6.766   4.481   1.737
 6008TIP3   OH239582   6.876   4.421   0.829
 6008TIP3    H139583   6.853   4.476   0.753
 6008TIP3    H239584   6.889   4.335   0.783
 6009TIP3   OH239585   5.990   4.435   1.349
 6009TIP3    H139586   5.997   4.475   1.437
 6009TIP3    H239587   5.945   4.351   1.369
 6010TIP3   OH239588   6.345   4.196   0.065
 6010TIP3    H139589   6.292   4.135   0.119
 6010TIP3    H239590   6.284   4.233   0.002
 6011TIP3   OH239591   5.655   4.146   0.746
 6011TIP3    H139592   5.723   4.142   0.816
 6011TIP3    H239593   5.700   4.107   0.668
 6012TIP3   OH239594   5.784   4.218   0.283
 6012TIP3    H139595   5.833   4.278   0.223
 6012TIP3    H239596   5.715   4.279   0.315
 6013TIP3   OH239597   6.798   4.578   1.283
 6013TIP3    H139598   6.836   4.509   1.225
 6013TIP3    H239599   6.752   4.525   1.351
 6014TIP3   OH239600   6.479   4.175   0.767
 6014TIP3    H139601   6.385   4.177   0.797
 6014TIP3    H239602   6.528   4.160   0.849
 6015TIP3   OH239603   5.960   4.331   0.654
 6015TIP3    H139604   5.871   4.346   0.615
 6015TIP3    H239605   5.988   4.248   0.613
 6016TIP3   OH239606   6.324   4.338   0.417
 6016TIP3    H139607   6.419   4.347   0.434
 6016TIP3    H239608   6.301   4.403   0.349
 6017TIP3   OH239609   6.914   4.089   1.093
 6017TIP3    H139610   6.847   4.105   1.163
 6017TIP3    H239611   6.863   4.079   1.011
 6018TIP3   OH239612   6.194   4.453   0.176
 6018TIP3    H139613   6.138   4.418   0.104
 6018TIP3    H239614   6.276   4.475   0.130
 6019TIP3   OH239615   7.230   5.670   1.730
 6019TIP3    H139616   7.260   5.700   1.641
 6019TIP3    H239617   7.308   5.694   1.780
 6020TIP3   OH239618   6.010   4.910   1.681
 6020TIP3    H139619   6.079   4.936   1.744
 6020TIP3    H239620   5.930   4.920   1.737
 6021TIP3   OH239621   6.607   4.451   0.956
 6021TIP3    H139622   6.667   4.398   0.903
 6021TIP3    H239623   6.593   4.397   1.035
 6022TIP3   OH239624   6.109   4.066   0.600
 6022TIP3    H139625   6.077   3.974   0.599
 6022TIP3    H239626   6.187   4.059   0.544
 6023TIP3   OH239627   6.471   4.284   1.198
 6023TIP3    H139628   6.389   4.336   1.207
 6023TIP3    H239629   6.526   4.319   1.270
 6024TIP3   OH239630   6.530   4.905   0.369
 6024TIP3    H139631   6.450   4.860   0.335
 6024TIP3    H239632   6.508   4.917   0.464
 6025TIP3   OH239633   7.218   4.826   1.247
 6025TIP3    H139634   7.291   4.845   1.183
 6025TIP3    H239635   7.142   4.830   1.187
 6026TIP3   OH239636   6.917   4.186   0.189
 6026TIP3    H139637   6.823   4.199   0.169
 6026TIP3    H239638   6.945   4.275   0.217
 6027TIP3   OH239639   6.680   4.933   1.492
 6027TIP3    H139640   6.645   4.891   1.571
 6027TIP3    H239641   6.656   5.025   1.502
 6028TIP3   OH239642   6.988   4.381   0.348
 6028TIP3    H139643   7.075   4.368   0.390
 6028TIP3    H239644   6.995   4.465   0.300
 6029TIP3   OH239645   6.040   4.846   0.947
 6029TIP3    H139646   6.110   4.838   0.879
 6029TIP3    H239647   6.047   4.760   0.993
 6030TIP3   OH239648   6.739   5.054   0.273
 6030TIP3    H139649   6.703   5.139   0.308
 6030TIP3    H239650   6.666   4.991   0.292
 6031TIP3   OH239651   5.740   4.686   1.473
 6031TIP3    H139652   5.757   4.643   1.559
 6031TIP3    H239653   5.678   4.625   1.431
 6032TIP3   OH239654   6.441   4.643   1.691
 6032TIP3    H139655   6.410   4.612   1.604
 6032TIP3    H239656   6.534   4.612   1.690
 6033TIP3   OH239657   6.909   5.174   1.487
 6033TIP3    H139658   6.817   5.192   1.460
 6033TIP3    H239659   6.905   5.204   1.579
 6034TIP3   OH239660   7.021   4.757   1.076
 6034TIP3    H139661   6.927   4.734   1.063
 6034TIP3    H239662   7.069   4.682   1.035
 6035TIP3   OH239663   6.278   5.192   0.686
 6035TIP3    H139664   6.328   5.272   0.665
 6035TIP3    H239665   6.190   5.215   0.653
 6036TIP3   OH239666   5.851   4.677   0.139
 6036TIP3    H139667   5.914   4.740   0.181
 6036TIP3    H239668   5.765   4.706   0.172
 6037TIP3   OH239669   6.420   4.958   0.639
 6037TIP3    H139670   6.389   5.050   0.646
 6037TIP3    H239671   6.347   4.909   0.682
 6038TIP3   OH239672   6.465   5.376   1.277
 6038TIP3    H139673   6.510   5.458   1.250
 6038TIP3    H239674   6.525   5.343   1.346
 6039TIP3   OH239675   6.289   5.458   0.591
 6039TIP3    H139676   6.192   5.471   0.604
 6039TIP3    H239677   6.324   5.542   0.626
 6040TIP3   OH239678   6.820   4.977   1.240
 6040TIP3    H139679   6.784   4.957   1.329
 6040TIP3    H239680   6.882   4.905   1.224
 6041TIP3   OH239681   7.047   5.077   0.150
 6041TIP3    H139682   7.079   5.037   0.233
 6041TIP3    H239683   6.951   5.065   0.158
 6042TIP3   OH239684   7.095   5.435   1.491
 6042TIP3    H139685   7.027   5.385   1.441
 6042TIP3    H239686   7.120   5.504   1.425
 6043TIP3   OH239687   5.905   4.161   1.430
 6043TIP3    H139688   5.814   4.195   1.425
 6043TIP3    H239689   5.893   4.075   1.474
 6044TIP3   OH239690   7.130   4.942   0.371
 6044TIP3    H139691   7.105   4.866   0.428
 6044TIP3    H239692   7.223   4.955   0.398
 6045TIP3   OH239693   5.866   5.339   1.271
 6045TIP3    H139694   5.895   5.246   1.272
 6045TIP3    H239695   5.893   5.368   1.360
 6046TIP3   OH239696   6.341   5.147   0.242
 6046TIP3    H139697   6.367   5.091   0.317
 6046TIP3    H239698   6.349   5.238   0.277
 6047TIP3   OH239699   5.990   4.870   0.287
 6047TIP3    H139700   5.924   4.909   0.348
 6047TIP3    H239701   6.047   4.945   0.266
 6048TIP3   OH239702   6.775   4.137   1.325
 6048TIP3    H139703   6.850   4.143   1.386
 6048TIP3    H239704   6.737   4.050   1.345
 6049TIP3   OH239705   6.858   4.094   0.434
 6049TIP3    H139706   6.877   4.142   0.352
 6049TIP3    H239707   6.913   4.140   0.498
 6050TIP3   OH239708   6.621   5.312   0.316
 6050TIP3    H139709   6.539   5.364   0.322
 6050TIP3    H239710   6.675   5.362   0.252
 6051TIP3   OH239711   6.575   4.269   0.514
 6051TIP3    H139712   6.653   4.327   0.517
 6051TIP3    H239713   6.549   4.258   0.607
 6052TIP3   OH239714   6.632   4.372   1.433
 6052TIP3    H139715   6.642   4.429   1.512
 6052TIP3    H239716   6.698   4.302   1.442
 6053TIP3   OH239717   6.657   3.976   0.602
 6053TIP3    H139718   6.629   4.040   0.669
 6053TIP3    H239719   6.729   4.029   0.558
 6054TIP3   OH239720   6.358   5.416   0.318
 6054TIP3    H139721   6.375   5.498   0.267
 6054TIP3    H239722   6.334   5.450   0.407
 6055TIP3   OH239723   6.227   4.084   0.278
 6055TIP3    H139724   6.220   4.176   0.312
 6055TIP3    H239725   6.318   4.062   0.304
 6056TIP3   OH239726   7.236   4.132   1.501
 6056TIP3    H139727   7.155   4.189   1.503
 6056TIP3    H239728   7.278   4.164   1.420
 6057TIP3   OH239729   7.110   4.538   0.924
 6057TIP3    H139730   7.028   4.494   0.893
 6057TIP3    H239731   7.153   4.467   0.972
 6058TIP3   OH239732   6.051   5.131   0.179
 6058TIP3    H139733   6.116   5.194   0.211
 6058TIP3    H239734   6.102   5.084   0.111
 6059TIP3   OH239735   5.889   4.398   0.099
 6059TIP3    H139736   5.886   4.494   0.110
 6059TIP3    H239737   5.801   4.378   0.063
 6060TIP3   OH239738   7.222   5.465   1.086
 6060TIP3    H139739   7.206   5.532   1.018
 6060TIP3    H239740   7.316   5.473   1.104
 6061TIP3   OH239741   5.966   3.876   0.967
 6061TIP3    H139742   5.946   3.878   0.871
 6061TIP3    H239743   5.924   3.791   0.992
 6062TIP3   OH239744   5.861   5.268   0.581
 6062TIP3    H139745   5.776   5.313   0.578
 6062TIP3    H239746   5.909   5.315   0.512
 6063TIP3   OH239747   5.788   5.532   1.708
 6063TIP3    H139748   5.838   5.511   1.787
 6063TIP3    H239749   5.739   5.450   1.689
 6064TIP3   OH239750   6.699   5.382   0.068
 6064TIP3    H139751   6.615   5.333   0.059
 6064TIP3    H239752   6.748   5.335   0.000
 6065TIP3   OH239753   6.903   5.266   1.749
 6065TIP3    H139754   6.868   5.175   1.769
 6065TIP3    H239755   6.986   5.265   1.797
 6066TIP3   OH239756   7.118   5.352   0.030
 6066TIP3    H139757   7.146   5.272   0.078
 6066TIP3    H239758   7.196   5.376  -0.020
 6067TIP3   OH239759   5.778   4.906   1.806
 6067TIP3    H139760   5.789   4.817   1.772
 6067TIP3    H239761   5.698   4.938   1.760
 6068TIP3   OH239762   6.217   4.952   0.025
 6068TIP3    H139763   6.222   4.868   0.072
 6068TIP3    H239764   6.273   4.930  -0.052
 6069TIP3   OH239765   6.447   4.909   1.749
 6069TIP3    H139766   6.411   4.940   1.664
 6069TIP3    H239767   6.451   4.811   1.738
 6070TIP3   OH239768   7.012   4.892   1.489
 6070TIP3    H139769   7.091   4.952   1.480
 6070TIP3    H239770   6.944   4.960   1.491
 6071TIP3   OH239771   5.867   4.633   1.749
 6071TIP3    H139772   5.905   4.546   1.736
 6071TIP3    H239773   5.836   4.633   1.839
 6072TIP3   OH239774   6.330   4.748   0.254
 6072TIP3    H139775   6.279   4.695   0.317
 6072TIP3    H239776   6.359   4.679   0.190
 6073TIP3   OH239777   6.255   4.528   1.484
 6073TIP3    H139778   6.195   4.600   1.510
 6073TIP3    H239779   6.294   4.564   1.402
 6074TIP3   OH239780   6.436   4.570   0.074
 6074TIP3    H139781   6.425   4.551  -0.020
 6074TIP3    H239782   6.534   4.577   0.084
 6075TIP3   OH239783   6.762   4.784   1.821
 6075TIP3    H139784   6.858   4.782   1.810
 6075TIP3    H239785   6.747   4.708   1.878
 6076TIP3   OH239786   6.295   4.266   1.592
 6076TIP3    H139787   6.306   4.195   1.527
 6076TIP3    H239788   6.291   4.346   1.536
 6077TIP3   OH239789   6.335   4.103   1.344
 6077TIP3    H139790   6.387   4.150   1.274
 6077TIP3    H239791   6.246   4.095   1.303
 6078TIP3   OH239792   6.489   4.651   1.368
 6078TIP3    H139793   6.565   4.635   1.311
 6078TIP3    H239794   6.454   4.735   1.336
 6079TIP3   OH239795   6.934   4.430   1.868
 6079TIP3    H139796   6.957   4.337   1.863
 6079TIP3    H239797   7.021   4.473   1.863
 6080TIP3   OH239798   7.065   4.710   1.681
 6080TIP3    H139799   7.036   4.780   1.618
 6080TIP3    H239800   7.158   4.700   1.661
 6081TIP3   OH239801   6.139   4.388   1.783
 6081TIP3    H139802   6.064   4.330   1.761
 6081TIP3    H239803   6.206   4.355   1.720
 6082TIP3   OH239804   6.414   3.847   1.385
 6082TIP3    H139805   6.397   3.944   1.373
 6082TIP3    H239806   6.340   3.811   1.334
 6083TIP3   OH239807   6.543   4.279   1.743
 6083TIP3    H139808   6.510   4.260   1.833
 6083TIP3    H239809   6.461   4.260   1.693
 6084TIP3   OH239810   6.811   4.192   1.653
 6084TIP3    H139811   6.715   4.199   1.666
 6084TIP3    H239812   6.836   4.128   1.720
 6085TIP3   OH239813   5.953   4.186   1.758
 6085TIP3    H139814   5.975   4.113   1.696
 6085TIP3    H239815   5.942   4.135   1.842
 6086TIP3   OH239816   6.430   3.779   1.652
 6086TIP3    H139817   6.505   3.716   1.649
 6086TIP3    H239818   6.423   3.802   1.558
 6087TIP3   OH239819   6.475   3.951   1.855
 6087TIP3    H139820   6.455   3.897   1.776
 6087TIP3    H239821   6.411   4.024   1.855
 6088TIP3   OH239822   6.419   5.638   0.176
 6088TIP3    H139823   6.516   5.649   0.189
 6088TIP3    H239824   6.402   5.706   0.110
 6089TIP3   OH239825   5.777   5.098   0.129
 6089TIP3    H139826   5.873   5.107   0.150
 6089TIP3    H239827   5.780   5.038   0.054
 6090TIP3   OH239828   5.652   5.636   0.627
 6090TIP3    H139829   5.581   5.587   0.579
 6090TIP3    H239830   5.680   5.570   0.692
 6091TIP3   OH239831   5.735   5.448   0.813
 6091TIP3    H139832   5.699   5.360   0.833
 6091TIP3    H239833   5.758   5.481   0.902
 6092TIP3   OH239834   7.282   5.253   1.330
 6092TIP3    H139835   7.216   5.296   1.387
 6092TIP3    H239836   7.229   5.217   1.257
 6093TIP3   OH239837   7.191   4.555   0.665
 6093TIP3    H139838   7.216   4.462   0.668
 6093TIP3    H239839   7.202   4.579   0.760
 6094TIP3   OH239840   5.740   4.755   1.062
 6094TIP3    H139841   5.759   4.748   0.966
 6094TIP3    H239842   5.829   4.739   1.098
 6095TIP3   OH239843   7.228   4.155   0.018
 6095TIP3    H139844   7.300   4.108   0.063
 6095TIP3    H239845   7.152   4.098   0.029
 6096TIP3   OH239846   7.204   4.301   0.490
 6096TIP3    H139847   7.233   4.215   0.526
 6096TIP3    H239848   7.287   4.336   0.454
 6097TIP3   OH239849  -0.053   4.278   1.045
 6097TIP3    H139850   0.036   4.314   1.033
 6097TIP3    H239851  -0.073   4.342   1.115
 6098TIP3   OH239852   7.278   4.438   1.349
 6098TIP3    H139853   7.185   4.464   1.360
 6098TIP3    H239854   7.314   4.509   1.293
 6099TIP3   OH239855   5.704   4.285   1.678
 6099TIP3    H139856   5.797   4.263   1.696
 6099TIP3    H239857   5.656   4.205   1.709
 6100TIP3   OH239858   7.183   4.003   0.572
 6100TIP3    H139859   7.277   3.987   0.594
 6100TIP3    H239860   7.188   3.963   0.483
 6101TIP3   OH239861   5.822   4.115   0.963
 6101TIP3    H139862   5.868   4.033   0.989
 6101TIP3    H239863   5.876   4.184   1.002
 6102TIP3   OH239864   5.650   4.415   1.067
 6102TIP3    H139865   5.707   4.390   0.990
 6102TIP3    H239866   5.696   4.496   1.094
 6103TIP3   OH239867   5.686   4.043   0.475
 6103TIP3    H139868   5.592   4.060   0.462
 6103TIP3    H239869   5.728   4.090   0.402
 6104TIP3   OH239870   7.139   5.527   0.683
 6104TIP3    H139871   7.202   5.484   0.622
 6104TIP3    H239872   7.198   5.566   0.748
 6105TIP3   OH239873   5.684   3.909   1.303
 6105TIP3    H139874   5.616   3.888   1.371
 6105TIP3    H239875   5.636   3.974   1.249
 6106TIP3   OH239876   5.905   5.237   1.725
 6106TIP3    H139877   5.821   5.245   1.676
 6106TIP3    H239878   5.871   5.215   1.811
 6107TIP3   OH239879   6.196   5.327   1.349
 6107TIP3    H139880   6.161   5.413   1.319
 6107TIP3    H239881   6.288   5.336   1.318
 6108TIP3   OH239882   6.629   5.469   1.639
 6108TIP3    H139883   6.643   5.435   1.730
 6108TIP3    H239884   6.718   5.501   1.612
 6109TIP3   OH239885   6.858   5.593   1.573
 6109TIP3    H139886   6.933   5.539   1.543
 6109TIP3    H239887   6.898   5.642   1.647
 6110TIP3   OH239888   5.937   5.651   1.347
 6110TIP3    H139889   5.864   5.701   1.307
 6110TIP3    H239890   5.904   5.633   1.436
 6111TIP3   OH239891   6.185   5.609   1.254
 6111TIP3    H139892   6.096   5.623   1.295
 6111TIP3    H239893   6.179   5.668   1.177
 6112TIP3   OH239894   6.652   5.599   1.173
 6112TIP3    H139895   6.609   5.655   1.107
 6112TIP3    H239896   6.669   5.663   1.245
 6113TIP3   OH239897   6.885   5.482   1.274
 6113TIP3    H139898   6.799   5.508   1.238
 6113TIP3    H239899   6.930   5.567   1.266
 6114TIP3   OH239900   7.130   5.638   1.298
 6114TIP3    H139901   7.129   5.733   1.275
 6114TIP3    H239902   7.163   5.600   1.214
 6115TIP3   OH239903   5.883   5.516   1.042
 6115TIP3    H139904   5.876   5.470   1.128
 6115TIP3    H239905   5.965   5.478   1.003
 6116TIP3   OH239906   6.091   5.387   0.907
 6116TIP3    H139907   6.075   5.294   0.930
 6116TIP3    H239908   6.177   5.402   0.953
 6117TIP3   OH239909   6.349   5.436   0.994
 6117TIP3    H139910   6.367   5.344   0.968
 6117TIP3    H239911   6.356   5.430   1.091
 6118TIP3   OH239912   6.698   3.999   0.911
 6118TIP3    H139913   6.628   3.937   0.935
 6118TIP3    H239914   6.751   3.949   0.848
 6119TIP3   OH239915   7.207   3.804   0.920
 6119TIP3    H139916   7.270   3.862   0.874
 6119TIP3    H239917   7.123   3.846   0.889
 6120TIP3   OH239918   5.934   3.863   0.693
 6120TIP3    H139919   5.854   3.843   0.641
 6120TIP3    H239920   5.980   3.777   0.688
 6121TIP3   OH239921   5.807   3.839   0.263
 6121TIP3    H139922   5.860   3.904   0.213
 6121TIP3    H239923   5.754   3.896   0.322
 6122TIP3   OH239924   6.382   3.855   0.672
 6122TIP3    H139925   6.472   3.891   0.665
 6122TIP3    H239926   6.377   3.834   0.765
 6123TIP3   OH239927   6.959   3.849   0.837
 6123TIP3    H139928   6.950   3.874   0.743
 6123TIP3    H239929   6.905   3.766   0.841
 6124TIP3   OH239930   7.077   3.852   0.388
 6124TIP3    H139931   7.007   3.919   0.386
 6124TIP3    H239932   7.030   3.773   0.421
 6125TIP3   OH239933   5.804   5.434   0.366
 6125TIP3    H139934   5.736   5.434   0.296
 6125TIP3    H239935   5.805   5.530   0.383
 6126TIP3   OH239936   5.994   4.025   0.117
 6126TIP3    H139937   6.052   3.970   0.066
 6126TIP3    H239938   6.057   4.068   0.178
 6127TIP3   OH239939   6.498   4.058   0.357
 6127TIP3    H139940   6.523   4.000   0.431
 6127TIP3    H239941   6.503   4.144   0.404
 6128TIP3   OH239942   6.685   5.590   0.204
 6128TIP3    H139943   6.781   5.592   0.187
 6128TIP3    H239944   6.669   5.519   0.137
 6129TIP3   OH239945   5.924   3.917   1.636
 6129TIP3    H139946   5.883   3.840   1.679
 6129TIP3    H239947   6.013   3.913   1.676
 6130TIP3   OH239948   6.123   3.856   1.803
 6130TIP3    H139949   6.212   3.826   1.777
 6130TIP3    H239950   6.083   3.775   1.842
 6131TIP3   OH239951   5.986   5.532   0.063
 6131TIP3    H139952   5.956   5.558   0.150
 6131TIP3    H239953   6.062   5.476   0.079
 6132TIP3   OH239954   6.971   3.790   1.815
 6132TIP3    H139955   6.974   3.737   1.896
 6132TIP3    H239956   7.060   3.780   1.777
 6133TIP3   OH239957   7.260   5.378   1.695
 6133TIP3    H139958   7.199   5.371   1.619
 6133TIP3    H239959   7.265   5.476   1.701
 6134TIP3   OH239960   1.185   6.661   0.679
 6134TIP3    H139961   1.185   6.759   0.675
 6134TIP3    H239962   1.113   6.638   0.618
 6135TIP3   OH239963   1.072   6.588   1.029
 6135TIP3    H139964   1.070   6.523   1.100
 6135TIP3    H239965   1.038   6.538   0.953
 6136TIP3   OH239966   0.313   6.552   1.182
 6136TIP3    H139967   0.318   6.486   1.254
 6136TIP3    H239968   0.382   6.615   1.207
 6137TIP3   OH239969   1.441   6.882   0.858
 6137TIP3    H139970   1.398   6.811   0.907
 6137TIP3    H239971   1.444   6.954   0.923
 6138TIP3   OH239972   0.400   6.992   1.045
 6138TIP3    H139973   0.367   6.912   1.001
 6138TIP3    H239974   0.496   6.980   1.038
 6139TIP3   OH239975   0.092   6.357   0.548
 6139TIP3    H139976   0.044   6.436   0.580
 6139TIP3    H239977   0.012   6.305   0.541
 6140TIP3   OH239978   0.243   6.585   0.791
 6140TIP3    H139979   0.173   6.530   0.834
 6140TIP3    H239980   0.212   6.583   0.701
 6141TIP3   OH239981   0.908   6.827   1.076
 6141TIP3    H139982   0.943   6.765   1.010
 6141TIP3    H239983   0.988   6.845   1.128
 6142TIP3   OH239984   1.770   5.994   1.149
 6142TIP3    H139985   1.787   6.053   1.226
 6142TIP3    H239986   1.826   6.036   1.082
 6143TIP3   OH239987   1.226   6.275   1.107
 6143TIP3    H139988   1.243   6.179   1.107
 6143TIP3    H239989   1.216   6.289   1.011
 6144TIP3   OH239990   0.540   6.083   0.830
 6144TIP3    H139991   0.549   6.167   0.781
 6144TIP3    H239992   0.500   6.027   0.761
 6145TIP3   OH239993   1.312   6.092   0.666
 6145TIP3    H139994   1.377   6.061   0.733
 6145TIP3    H239995   1.368   6.149   0.611
 6146TIP3   OH239996   0.196   6.310   0.900
 6146TIP3    H139997   0.273   6.269   0.944
 6146TIP3    H239998   0.215   6.295   0.807
 6147TIP3   OH239999   0.716   6.480   0.833
 6147TIP3    H140000   0.782   6.422   0.874
 6147TIP3    H240001   0.663   6.414   0.784
 6148TIP3   OH240002   1.814   6.135   1.375
 6148TIP3    H140003   1.752   6.211   1.368
 6148TIP3    H240004   1.818   6.124   1.472
 6149TIP3   OH240005   0.432   5.973   1.232
 6149TIP3    H140006   0.402   6.031   1.159
 6149TIP3    H240007   0.364   5.996   1.300
 6150TIP3   OH240008   1.156   6.920   0.588
 6150TIP3    H140009   1.131   6.895   0.498
 6150TIP3    H240010   1.128   7.013   0.593
 6151TIP3   OH240011   0.681   6.737   1.257
 6151TIP3    H140012   0.609   6.801   1.278
 6151TIP3    H240013   0.751   6.797   1.229
 6152TIP3   OH240014   1.492   6.026   0.865
 6152TIP3    H140015   1.470   5.949   0.919
 6152TIP3    H240016   1.559   6.070   0.921
 6153TIP3   OH240017   0.385   6.155   1.037
 6153TIP3    H140018   0.444   6.227   1.069
 6153TIP3    H240019   0.439   6.118   0.963
 6154TIP3   OH240020   0.526   6.939   1.338
 6154TIP3    H140021   0.518   7.029   1.301
 6154TIP3    H240022   0.437   6.929   1.379
 6155TIP3   OH240023   0.129   6.906   0.416
 6155TIP3    H140024   0.110   6.937   0.325
 6155TIP3    H240025   0.140   6.990   0.467
 6156TIP3   OH240026   1.494   7.068   1.099
 6156TIP3    H140027   1.396   7.076   1.108
 6156TIP3    H240028   1.523   7.158   1.073
 6157TIP3   OH240029   1.526   5.895   1.233
 6157TIP3    H140030   1.453   5.958   1.225
 6157TIP3    H240031   1.597   5.937   1.181
 6158TIP3   OH240032   0.823   5.707   0.979
 6158TIP3    H140033   0.810   5.611   0.973
 6158TIP3    H240034   0.735   5.737   1.010
 6159TIP3   OH240035   1.325   7.214   0.738
 6159TIP3    H140036   1.381   7.154   0.685
 6159TIP3    H240037   1.359   7.299   0.711
 6160TIP3   OH240038   1.444   7.030   0.602
 6160TIP3    H140039   1.409   6.963   0.541
 6160TIP3    H240040   1.444   6.985   0.689
 6161TIP3   OH240041   1.605   6.900   1.455
 6161TIP3    H140042   1.616   6.833   1.383
 6161TIP3    H240043   1.626   6.983   1.409
 6162TIP3   OH240044   1.051   6.587   0.429
 6162TIP3    H140045   0.982   6.645   0.391
 6162TIP3    H240046   1.122   6.595   0.363
 6163TIP3   OH240047   1.056   6.439   0.138
 6163TIP3    H140048   1.130   6.439   0.201
 6163TIP3    H240049   1.089   6.376   0.074
 6164TIP3   OH240050   1.791   6.528   1.259
 6164TIP3    H140051   1.725   6.600   1.263
 6164TIP3    H240052   1.840   6.551   1.178
 6165TIP3   OH240053   1.396   6.609   0.524
 6165TIP3    H140054   1.321   6.632   0.585
 6165TIP3    H240055   1.443   6.540   0.575
 6166TIP3   OH240056   1.388   6.424   1.433
 6166TIP3    H140057   1.390   6.504   1.488
 6166TIP3    H240058   1.325   6.454   1.365
 6167TIP3   OH240059   0.561   6.675   0.714
 6167TIP3    H140060   0.523   6.634   0.633
 6167TIP3    H240061   0.619   6.604   0.748
 6168TIP3   OH240062   0.690   7.012   0.982
 6168TIP3    H140063   0.689   6.959   0.902
 6168TIP3    H240064   0.768   6.977   1.029
 6169TIP3   OH240065   0.595   6.546   1.080
 6169TIP3    H140066   0.647   6.561   0.999
 6169TIP3    H240067   0.626   6.616   1.141
 6170TIP3   OH240068   1.235   7.104   1.153
 6170TIP3    H140069   1.199   7.167   1.214
 6170TIP3    H240070   1.206   7.018   1.193
 6171TIP3   OH240071   0.686   6.992   1.553
 6171TIP3    H140072   0.642   7.068   1.595
 6171TIP3    H240073   0.621   6.968   1.481
 6172TIP3   OH240074   1.284   6.524   0.291
 6172TIP3    H140075   1.339   6.545   0.370
 6172TIP3    H240076   1.325   6.579   0.220
 6173TIP3   OH240077   0.379   6.608   1.469
 6173TIP3    H140078   0.384   6.675   1.539
 6173TIP3    H240079   0.286   6.619   1.443
 6174TIP3   OH240080   1.055   7.198   0.636
 6174TIP3    H140081   1.099   7.230   0.715
 6174TIP3    H240082   0.997   7.271   0.611
 6175TIP3   OH240083   0.509   7.185   1.623
 6175TIP3    H140084   0.501   7.184   1.524
 6175TIP3    H240085   0.415   7.181   1.649
 6176TIP3   OH240086   1.655   5.700   0.278
 6176TIP3    H140087   1.560   5.712   0.304
 6176TIP3    H240088   1.677   5.786   0.238
 6177TIP3   OH240089   0.457   6.575   0.473
 6177TIP3    H140090   0.428   6.653   0.423
 6177TIP3    H240091   0.389   6.510   0.456
 6178TIP3   OH240092   1.770   7.131   0.118
 6178TIP3    H140093   1.776   7.227   0.131
 6178TIP3    H240094   1.863   7.106   0.109
 6179TIP3   OH240095   0.122   6.805   1.341
 6179TIP3    H140096   0.046   6.816   1.279
 6179TIP3    H240097   0.083   6.726   1.385
 6180TIP3   OH240098   0.066   7.111   1.023
 6180TIP3    H140099   0.153   7.079   1.046
 6180TIP3    H240100   0.045   7.170   1.096
 6181TIP3   OH240101   1.860   7.162   1.617
 6181TIP3    H140102   1.852   7.066   1.608
 6181TIP3    H240103   1.772   7.187   1.653
 6182TIP3   OH240104   0.961   7.114   1.505
 6182TIP3    H140105   0.967   7.200   1.546
 6182TIP3    H240106   0.870   7.081   1.522
 6183TIP3   OH240107   1.583   6.309   1.659
 6183TIP3    H140108   1.535   6.356   1.589
 6183TIP3    H240109   1.581   6.217   1.629
 6184TIP3   OH240110   0.297   6.955   1.466
 6184TIP3    H140111   0.312   6.910   1.551
 6184TIP3    H240112   0.212   6.914   1.436
 6185TIP3   OH240113   0.561   5.798   1.055
 6185TIP3    H140114   0.471   5.786   1.018
 6185TIP3    H240115   0.548   5.881   1.103
 6186TIP3   OH240116   1.024   5.764   1.392
 6186TIP3    H140117   1.063   5.723   1.471
 6186TIP3    H240118   0.927   5.752   1.407
 6187TIP3   OH240119   1.352   6.148   1.479
 6187TIP3    H140120   1.298   6.128   1.559
 6187TIP3    H240121   1.337   6.241   1.459
 6188TIP3   OH240122   1.436   6.634   0.072
 6188TIP3    H140123   1.437   6.616  -0.023
 6188TIP3    H240124   1.523   6.677   0.083
 6189TIP3   OH240125   0.989   6.021   0.125
 6189TIP3    H140126   0.958   6.016   0.217
 6189TIP3    H240127   0.961   5.933   0.096
 6190TIP3   OH240128   0.570   6.294   1.179
 6190TIP3    H140129   0.496   6.294   1.244
 6190TIP3    H240130   0.567   6.386   1.143
 6191TIP3   OH240131   0.567   6.306   0.666
 6191TIP3    H140132   0.473   6.282   0.652
 6191TIP3    H240133   0.605   6.277   0.581
 6192TIP3   OH240134   1.119   6.355   0.541
 6192TIP3    H140135   1.078   6.439   0.509
 6192TIP3    H240136   1.188   6.341   0.474
 6193TIP3   OH240137   1.027   6.378   1.687
 6193TIP3    H140138   0.970   6.305   1.721
 6193TIP3    H240139   1.108   6.365   1.738
 6194TIP3   OH240140   1.222   6.305   0.828
 6194TIP3    H140141   1.194   6.361   0.754
 6194TIP3    H240142   1.232   6.220   0.781
 6195TIP3   OH240143   0.336   6.318   1.350
 6195TIP3    H140144   0.336   6.362   1.436
 6195TIP3    H240145   0.285   6.238   1.368
 6196TIP3   OH240146   0.687   6.081   0.065
 6196TIP3    H140147   0.633   6.018   0.117
 6196TIP3    H240148   0.625   6.117   0.001
 6197TIP3   OH240149   0.028   6.052   0.729
 6197TIP3    H140150   0.073   6.032   0.814
 6197TIP3    H240151   0.063   5.993   0.665
 6198TIP3   OH240152   0.129   6.115   0.282
 6198TIP3    H140153   0.180   6.169   0.220
 6198TIP3    H240154   0.055   6.172   0.305
 6199TIP3   OH240155   1.142   6.465   1.285
 6199TIP3    H140156   1.179   6.397   1.225
 6199TIP3    H240157   1.095   6.411   1.352
 6200TIP3   OH240158   0.822   6.061   0.767
 6200TIP3    H140159   0.729   6.062   0.796
 6200TIP3    H240160   0.870   6.046   0.849
 6201TIP3   OH240161   0.304   6.215   0.655
 6201TIP3    H140162   0.218   6.236   0.614
 6201TIP3    H240163   0.331   6.133   0.610
 6202TIP3   OH240164   0.667   6.223   0.417
 6202TIP3    H140165   0.762   6.233   0.433
 6202TIP3    H240166   0.642   6.288   0.349
 6203TIP3   OH240167   1.263   5.984   1.091
 6203TIP3    H140168   1.194   5.991   1.162
 6203TIP3    H240169   1.212   5.960   1.013
 6204TIP3   OH240170   0.538   6.338   0.175
 6204TIP3    H140171   0.483   6.304   0.104
 6204TIP3    H240172   0.620   6.360   0.129
 6205TIP3   OH240173   0.349   6.801   1.679
 6205TIP3    H140174   0.420   6.819   1.742
 6205TIP3    H240175   0.272   6.811   1.737
 6206TIP3   OH240176   0.950   6.337   0.956
 6206TIP3    H140177   1.010   6.284   0.903
 6206TIP3    H240178   0.936   6.282   1.035
 6207TIP3   OH240179   0.448   5.952   0.600
 6207TIP3    H140180   0.422   5.859   0.597
 6207TIP3    H240181   0.528   5.948   0.546
 6208TIP3   OH240182   0.814   6.170   1.198
 6208TIP3    H140183   0.732   6.222   1.207
 6208TIP3    H240184   0.870   6.205   1.270
 6209TIP3   OH240185   0.874   6.791   0.369
 6209TIP3    H140186   0.794   6.745   0.335
 6209TIP3    H240187   0.851   6.802   0.464
 6210TIP3   OH240188   1.592   6.711   1.247
 6210TIP3    H140189   1.648   6.761   1.186
 6210TIP3    H240190   1.506   6.718   1.201
 6211TIP3   OH240191   1.260   6.072   0.186
 6211TIP3    H140192   1.165   6.087   0.169
 6211TIP3    H240193   1.290   6.159   0.217
 6212TIP3   OH240194   1.024   6.822   1.492
 6212TIP3    H140195   0.985   6.776   1.566
 6212TIP3    H240196   0.996   6.913   1.501
 6213TIP3   OH240197   1.330   6.266   0.353
 6213TIP3    H140198   1.420   6.252   0.388
 6213TIP3    H240199   1.339   6.346   0.300
 6214TIP3   OH240200   0.399   6.738   0.958
 6214TIP3    H140201   0.449   6.722   0.876
 6214TIP3    H240202   0.387   6.647   0.989
 6215TIP3   OH240203   1.083   6.939   0.272
 6215TIP3    H140204   1.048   7.024   0.307
 6215TIP3    H240205   1.009   6.878   0.291
 6216TIP3   OH240206   0.080   6.571   1.476
 6216TIP3    H140207   0.106   6.526   1.559
 6216TIP3    H240208   0.023   6.507   1.431
 6217TIP3   OH240209   0.786   6.534   1.690
 6217TIP3    H140210   0.752   6.499   1.606
 6217TIP3    H240211   0.875   6.495   1.692
 6218TIP3   OH240212   1.251   7.064   1.482
 6218TIP3    H140213   1.158   7.076   1.460
 6218TIP3    H240214   1.250   7.088   1.577
 6219TIP3   OH240215   1.819   6.279   0.327
 6219TIP3    H140216   1.763   6.248   0.254
 6219TIP3    H240217   1.827   6.373   0.299
 6220TIP3   OH240218   1.820   6.861   1.605
 6220TIP3    H140219   1.731   6.888   1.570
 6220TIP3    H240220   1.874   6.860   1.523
 6221TIP3   OH240221   1.665   7.138   0.385
 6221TIP3    H140222   1.605   7.065   0.398
 6221TIP3    H240223   1.675   7.144   0.288
 6222TIP3   OH240224   1.369   6.644   1.076
 6222TIP3    H140225   1.275   6.623   1.065
 6222TIP3    H240226   1.412   6.568   1.033
 6223TIP3   OH240227   0.629   7.058   0.668
 6223TIP3    H140228   0.668   7.147   0.673
 6223TIP3    H240229   0.538   7.094   0.661
 6224TIP3   OH240230   0.188   6.560   0.143
 6224TIP3    H140231   0.256   6.623   0.176
 6224TIP3    H240232   0.106   6.597   0.176
 6225TIP3   OH240233   0.766   6.839   0.641
 6225TIP3    H140234   0.734   6.933   0.645
 6225TIP3    H240235   0.689   6.794   0.682
 6226TIP3   OH240236   0.838   7.232   1.247
 6226TIP3    H140237   0.852   7.328   1.242
 6226TIP3    H240238   0.868   7.217   1.338
 6227TIP3   OH240239   1.163   6.863   1.239
 6227TIP3    H140240   1.127   6.841   1.327
 6227TIP3    H240241   1.225   6.791   1.224
 6228TIP3   OH240242   1.390   6.959   0.152
 6228TIP3    H140243   1.421   6.922   0.237
 6228TIP3    H240244   1.294   6.951   0.160
 6229TIP3   OH240245   0.249   6.046   1.427
 6229TIP3    H140246   0.159   6.083   1.429
 6229TIP3    H240247   0.235   5.961   1.471
 6230TIP3   OH240248   1.473   6.825   0.372
 6230TIP3    H140249   1.448   6.750   0.428
 6230TIP3    H240250   1.566   6.839   0.395
 6231TIP3   OH240251   0.230   7.226   1.265
 6231TIP3    H140252   0.237   7.131   1.273
 6231TIP3    H240253   0.229   7.255   1.357
 6232TIP3   OH240254   0.687   7.029   0.238
 6232TIP3    H140255   0.708   6.976   0.316
 6232TIP3    H240256   0.693   7.119   0.274
 6233TIP3   OH240257   0.331   6.756   0.289
 6233TIP3    H140258   0.264   6.796   0.349
 6233TIP3    H240259   0.387   6.833   0.267
 6234TIP3   OH240260   1.121   6.023   1.323
 6234TIP3    H140261   1.192   6.029   1.388
 6234TIP3    H240262   1.083   5.935   1.344
 6235TIP3   OH240263   1.195   5.982   0.434
 6235TIP3    H140264   1.220   6.028   0.352
 6235TIP3    H240265   1.254   6.024   0.498
 6236TIP3   OH240266   0.966   7.197   0.318
 6236TIP3    H140267   0.882   7.246   0.323
 6236TIP3    H240268   1.018   7.246   0.251
 6237TIP3   OH240269   0.918   6.155   0.514
 6237TIP3    H140270   0.997   6.212   0.517
 6237TIP3    H240271   0.892   6.143   0.608
 6238TIP3   OH240272   0.974   6.258   1.432
 6238TIP3    H140273   0.981   6.314   1.511
 6238TIP3    H240274   1.040   6.189   1.445
 6239TIP3   OH240275   1.004   5.861   0.603
 6239TIP3    H140276   0.972   5.926   0.668
 6239TIP3    H240277   1.073   5.916   0.558
 6240TIP3   OH240278   0.705  -0.001   0.313
 6240TIP3    H140279   0.715   0.084   0.270
 6240TIP3    H240280   0.681   0.029   0.404
 6241TIP3   OH240281   0.571   5.970   0.278
 6241TIP3    H140282   0.564   6.061   0.312
 6241TIP3    H240283   0.662   5.948   0.305
 6242TIP3   OH240284   1.591   6.044   1.519
 6242TIP3    H140285   1.499   6.075   1.505
 6242TIP3    H240286   1.623   6.044   1.427
 6243TIP3   OH240287   1.453   6.423   0.920
 6243TIP3    H140288   1.371   6.379   0.892
 6243TIP3    H240289   1.501   6.354   0.972
 6244TIP3   OH240290   0.394   7.015   0.182
 6244TIP3    H140291   0.458   7.081   0.209
 6244TIP3    H240292   0.445   6.972   0.111
 6245TIP3   OH240293   0.230   6.284   0.102
 6245TIP3    H140294   0.231   6.380   0.111
 6245TIP3    H240295   0.146   6.261   0.061
 6246TIP3   OH240296   0.311   5.761   0.967
 6246TIP3    H140297   0.293   5.763   0.870
 6246TIP3    H240298   0.269   5.676   0.994
 6247TIP3   OH240299   0.206   7.151   0.572
 6247TIP3    H140300   0.123   7.198   0.581
 6247TIP3    H240301   0.259   7.205   0.513
 6248TIP3   OH240302   0.621   7.279   1.894
 6248TIP3    H140303   0.707   7.241   1.909
 6248TIP3    H240304   0.610   7.268   1.797
 6249TIP3   OH240305   1.037   7.280   0.076
 6249TIP3    H140306   0.957   7.227   0.061
 6249TIP3    H240307   1.088   7.234   0.007
 6250TIP3   OH240308   1.243   7.120   1.733
 6250TIP3    H140309   1.212   7.043   1.778
 6250TIP3    H240310   1.314   7.152   1.793
 6251TIP3   OH240311   1.459   7.234   0.033
 6251TIP3    H140312   1.487   7.156   0.083
 6251TIP3    H240313   1.540   7.250  -0.019
 6252TIP3   OH240314   0.116   6.792   1.809
 6252TIP3    H140315   0.136   6.704   1.775
 6252TIP3    H240316   0.043   6.822   1.754
 6253TIP3   OH240317   0.559   6.835   0.027
 6253TIP3    H140318   0.565   6.752   0.073
 6253TIP3    H240319   0.616   6.815  -0.050
 6254TIP3   OH240320   1.358   6.782   1.489
 6254TIP3    H140321   1.437   6.838   1.479
 6254TIP3    H240322   1.288   6.848   1.491
 6255TIP3   OH240323   0.199   6.520   1.747
 6255TIP3    H140324   0.249   6.437   1.737
 6255TIP3    H240325   0.185   6.517   1.843
 6256TIP3   OH240326   0.672   6.634   0.252
 6256TIP3    H140327   0.623   6.582   0.318
 6256TIP3    H240328   0.702   6.564   0.190
 6257TIP3   OH240329   0.598   6.413   1.483
 6257TIP3    H140330   0.539   6.485   1.511
 6257TIP3    H240331   0.637   6.450   1.402
 6258TIP3   OH240332   0.778   6.456   0.074
 6258TIP3    H140333   0.767   6.436  -0.019
 6258TIP3    H240334   0.876   6.463   0.084
 6259TIP3   OH240335   1.699   6.700   8.525
 6259TIP3    H140336   1.688   6.650   8.442
 6259TIP3    H240337   1.719   6.791   8.497
 6260TIP3   OH240338   0.636   6.150   1.591
 6260TIP3    H140339   0.650   6.080   1.524
 6260TIP3    H240340   0.632   6.231   1.537
 6261TIP3   OH240341   0.678   5.989   1.345
 6261TIP3    H140342   0.730   6.035   1.275
 6261TIP3    H240343   0.590   5.981   1.303
 6262TIP3   OH240344   0.834   6.538   1.370
 6262TIP3    H140345   0.908   6.521   1.311
 6262TIP3    H240346   0.795   6.620   1.334
 6263TIP3   OH240347   1.273   6.312   1.861
 6263TIP3    H140348   1.300   6.219   1.859
 6263TIP3    H240349   1.358   6.358   1.863
 6264TIP3   OH240350   1.407   6.592   1.679
 6264TIP3    H140351   1.381   6.666   1.620
 6264TIP3    H240352   1.503   6.590   1.660
 6265TIP3   OH240353   0.484   6.274   1.784
 6265TIP3    H140354   0.408   6.218   1.763
 6265TIP3    H240355   0.551   6.242   1.721
 6266TIP3   OH240356   0.757   5.732   1.385
 6266TIP3    H140357   0.741   5.828   1.374
 6266TIP3    H240358   0.682   5.696   1.334
 6267TIP3   OH240359   0.888   6.160   1.744
 6267TIP3    H140360   0.853   6.146   1.834
 6267TIP3    H240361   0.805   6.148   1.694
 6268TIP3   OH240362   1.156   6.076   1.651
 6268TIP3    H140363   1.060   6.085   1.667
 6268TIP3    H240364   1.183   6.016   1.722
 6269TIP3   OH240365   1.316   5.943   1.848
 6269TIP3    H140366   1.309   5.846   1.847
 6269TIP3    H240367   1.289   5.970   1.938
 6270TIP3   OH240368   0.306   6.068   1.762
 6270TIP3    H140369   0.318   5.999   1.694
 6270TIP3    H240370   0.285   6.021   1.842
 6271TIP3   OH240371   0.781   5.672   1.652
 6271TIP3    H140372   0.846   5.599   1.651
 6271TIP3    H240373   0.767   5.686   1.557
 6272TIP3   OH240374   0.812   5.829   1.862
 6272TIP3    H140375   0.799   5.782   1.777
 6272TIP3    H240376   0.758   5.910   1.854
 6273TIP3   OH240377   0.125   6.983   0.128
 6273TIP3    H140378   0.220   6.994   0.152
 6273TIP3    H240379   0.126   6.922   0.055
 6274TIP3   OH240380   1.631   6.946   1.866
 6274TIP3    H140381   1.546   6.942   1.911
 6274TIP3    H240382   1.672   7.024   1.911
 6275TIP3   OH240383   1.766   6.775   0.410
 6275TIP3    H140384   1.849   6.820   0.433
 6275TIP3    H240385   1.764   6.705   0.480
 6276TIP3   OH240386   1.801   6.586   0.600
 6276TIP3    H140387   1.726   6.534   0.638
 6276TIP3    H240388   1.861   6.599   0.676
 6277TIP3   OH240389   1.777   6.855   1.101
 6277TIP3    H140390   1.858   6.818   1.061
 6277TIP3    H240391   1.791   6.950   1.084
 6278TIP3   OH240392   1.627   7.143   1.329
 6278TIP3    H140393   1.558   7.181   1.384
 6278TIP3    H240394   1.576   7.107   1.253
 6279TIP3   OH240395   1.830   6.568   0.237
 6279TIP3    H140396   1.772   6.606   0.169
 6279TIP3    H240397   1.824   6.638   0.305
 6280TIP3   OH240398   1.632   6.294   0.100
 6280TIP3    H140399   1.675   6.353   0.037
 6280TIP3    H240400   1.649   6.210   0.054
 6281TIP3   OH240401   1.583   6.433   0.657
 6281TIP3    H140402   1.568   6.338   0.653
 6281TIP3    H240403   1.550   6.455   0.746
 6282TIP3   OH240404   0.104   6.670   1.073
 6282TIP3    H140405   0.098   6.638   0.979
 6282TIP3    H240406   0.185   6.624   1.102
 6283TIP3   OH240407   1.668   6.627   1.626
 6283TIP3    H140408   1.728   6.553   1.639
 6283TIP3    H240409   1.726   6.706   1.628
 6284TIP3   OH240410   1.593   6.032   0.001
 6284TIP3    H140411   1.651   5.992   0.068
 6284TIP3    H240412   1.504   5.999   0.022
 6285TIP3   OH240413   1.550   6.192   0.504
 6285TIP3    H140414   1.581   6.099   0.515
 6285TIP3    H240415   1.628   6.232   0.464
 6286TIP3   OH240416   1.613   6.246   1.047
 6286TIP3    H140417   1.709   6.269   1.045
 6286TIP3    H240418   1.595   6.260   1.141
 6287TIP3   OH240419   1.620   6.319   1.323
 6287TIP3    H140420   1.533   6.347   1.359
 6287TIP3    H240421   1.664   6.405   1.303
 6288TIP3   OH240422   0.071   6.157   1.675
 6288TIP3    H140423   0.160   6.144   1.712
 6288TIP3    H240424   0.012   6.091   1.718
 6289TIP3   OH240425   1.617   5.919   0.507
 6289TIP3    H140426   1.637   5.875   0.592
 6289TIP3    H240427   1.556   5.856   0.463
 6290TIP3   OH240428   0.169   5.994   0.956
 6290TIP3    H140429   0.217   5.917   0.993
 6290TIP3    H240430   0.217   6.067   1.001
 6291TIP3   OH240431   0.055   6.371   1.106
 6291TIP3    H140432   0.053   6.332   1.015
 6291TIP3    H240433   0.052   6.461   1.074
 6292TIP3   OH240434   1.798   5.941   1.691
 6292TIP3    H140435   1.703   5.959   1.690
 6292TIP3    H240436   1.806   5.877   1.619
 6293TIP3   OH240437   1.798   5.926   0.163
 6293TIP3    H140438   1.842   5.854   0.113
 6293TIP3    H240439   1.871   5.991   0.165
 6294TIP3   OH240440   0.076   5.927   0.441
 6294TIP3    H140441  -0.020   5.944   0.439
 6294TIP3    H240442   0.100   5.995   0.374
 6295TIP3   OH240443   7.355   5.790   1.325
 6295TIP3    H140444   7.275   5.768   1.376
 6295TIP3    H240445   7.308   5.843   1.258
 6296TIP3   OH240446   0.242   7.120   1.720
 6296TIP3    H140447   0.156   7.132   1.680
 6296TIP3    H240448   0.220   7.105   1.813
 6297TIP3   OH240449   0.547   7.216   1.357
 6297TIP3    H140450   0.497   7.289   1.316
 6297TIP3    H240451   0.631   7.212   1.309
 6298TIP3   OH240452   1.702   5.744   1.476
 6298TIP3    H140453   1.617   5.772   1.438
 6298TIP3    H240454   1.718   5.660   1.428
 6299TIP3   OH240455   0.429   7.238   0.966
 6299TIP3    H140456   0.427   7.151   0.926
 6299TIP3    H240457   0.517   7.274   0.946
 6300TIP3   OH240458   1.040   5.886   0.908
 6300TIP3    H140459   0.973   5.822   0.936
 6300TIP3    H240460   1.096   5.833   0.850
 6301TIP3   OH240461   1.554   5.692   0.915
 6301TIP3    H140462   1.615   5.750   0.864
 6301TIP3    H240463   1.466   5.727   0.892
 6302TIP3   OH240464   1.721   5.815   0.743
 6302TIP3    H140465   1.790   5.758   0.701
 6302TIP3    H240466   1.771   5.899   0.753
 6303TIP3   OH240467   0.269   5.745   0.699
 6303TIP3    H140468   0.207   5.723   0.628
 6303TIP3    H240469   0.329   5.667   0.687
 6304TIP3   OH240470   0.162   5.722   0.272
 6304TIP3    H140471   0.204   5.786   0.210
 6304TIP3    H240472   0.098   5.780   0.315
 6305TIP3   OH240473   0.725   5.741   0.672
 6305TIP3    H140474   0.815   5.777   0.665
 6305TIP3    H240475   0.721   5.719   0.765
 6306TIP3   OH240476   1.295   5.743   0.835
 6306TIP3    H140477   1.292   5.754   0.739
 6306TIP3    H240478   1.258   5.652   0.847
 6307TIP3   OH240479   1.423   5.746   0.400
 6307TIP3    H140480   1.349   5.806   0.385
 6307TIP3    H240481   1.378   5.660   0.422
 6308TIP3   OH240482   0.336   5.914   0.121
 6308TIP3    H140483   0.388   5.857   0.064
 6308TIP3    H240484   0.406   5.952   0.177
 6309TIP3   OH240485   0.840   5.943   0.357
 6309TIP3    H140486   0.866   5.885   0.431
 6309TIP3    H240487   0.846   6.030   0.404
 6310TIP3   OH240488   0.263   5.806   1.656
 6310TIP3    H140489   0.229   5.716   1.674
 6310TIP3    H240490   0.359   5.795   1.664
 6311TIP3   OH240491   1.308   5.670   1.818
 6311TIP3    H140492   1.318   5.624   1.904
 6311TIP3    H240493   1.399   5.668   1.782
 6312TIP3   OH240494   1.614  -0.033   1.697
 6312TIP3    H140495   1.548  -0.047   1.629
 6312TIP3    H240496   1.623   0.063   1.701
 6313TIP3   OH240497   3.071   6.660   0.679
 6313TIP3    H140498   3.072   6.758   0.674
 6313TIP3    H240499   2.999   6.638   0.618
 6314TIP3   OH240500   2.956   6.591   1.029
 6314TIP3    H140501   2.957   6.526   1.101
 6314TIP3    H240502   2.924   6.539   0.954
 6315TIP3   OH240503   2.193   6.555   1.184
 6315TIP3    H140504   2.202   6.487   1.254
 6315TIP3    H240505   2.268   6.613   1.206
 6316TIP3   OH240506   3.323   6.883   0.858
 6316TIP3    H140507   3.287   6.809   0.907
 6316TIP3    H240508   3.332   6.953   0.925
 6317TIP3   OH240509   2.286   7.000   1.038
 6317TIP3    H140510   2.253   6.915   1.003
 6317TIP3    H240511   2.381   6.980   1.039
 6318TIP3   OH240512   1.950   6.356   0.583
 6318TIP3    H140513   1.906   6.444   0.578
 6318TIP3    H240514   1.893   6.303   0.526
 6319TIP3   OH240515   2.020   6.579   0.797
 6319TIP3    H140516   2.047   6.497   0.843
 6319TIP3    H240517   2.091   6.589   0.731
 6320TIP3   OH240518   2.798   6.835   1.072
 6320TIP3    H140519   2.827   6.765   1.011
 6320TIP3    H240520   2.876   6.839   1.130
 6321TIP3   OH240521   3.656   5.995   1.150
 6321TIP3    H140522   3.673   6.055   1.226
 6321TIP3    H240523   3.711   6.037   1.083
 6322TIP3   OH240524   3.112   6.275   1.107
 6322TIP3    H140525   3.128   6.179   1.107
 6322TIP3    H240526   3.101   6.289   1.011
 6323TIP3   OH240527   2.423   6.084   0.829
 6323TIP3    H140528   2.434   6.168   0.780
 6323TIP3    H240529   2.383   6.026   0.760
 6324TIP3   OH240530   3.197   6.092   0.666
 6324TIP3    H140531   3.263   6.061   0.733
 6324TIP3    H240532   3.253   6.149   0.611
 6325TIP3   OH240533   2.086   6.325   0.903
 6325TIP3    H140534   2.153   6.270   0.948
 6325TIP3    H240535   2.096   6.293   0.811
 6326TIP3   OH240536   2.602   6.480   0.834
 6326TIP3    H140537   2.668   6.422   0.874
 6326TIP3    H240538   2.550   6.414   0.784
 6327TIP3   OH240539   3.700   6.135   1.377
 6327TIP3    H140540   3.638   6.211   1.367
 6327TIP3    H240541   3.703   6.125   1.474
 6328TIP3   OH240542   2.314   5.974   1.233
 6328TIP3    H140543   2.286   6.031   1.158
 6328TIP3    H240544   2.246   5.997   1.301
 6329TIP3   OH240545   3.040   6.920   0.590
 6329TIP3    H140546   3.018   6.895   0.500
 6329TIP3    H240547   3.013   7.014   0.591
 6330TIP3   OH240548   2.565   6.737   1.258
 6330TIP3    H140549   2.494   6.800   1.280
 6330TIP3    H240550   2.636   6.796   1.229
 6331TIP3   OH240551   3.378   6.026   0.865
 6331TIP3    H140552   3.356   5.949   0.919
 6331TIP3    H240553   3.445   6.070   0.920
 6332TIP3   OH240554   2.270   6.160   1.036
 6332TIP3    H140555   2.333   6.228   1.068
 6332TIP3    H240556   2.322   6.118   0.963
 6333TIP3   OH240557   2.411   6.938   1.339
 6333TIP3    H140558   2.404   7.028   1.304
 6333TIP3    H240559   2.322   6.929   1.381
 6334TIP3   OH240560   2.016   6.905   0.419
 6334TIP3    H140561   1.994   6.935   0.328
 6334TIP3    H240562   2.024   6.988   0.469
 6335TIP3   OH240563   3.379   7.068   1.099
 6335TIP3    H140564   3.282   7.077   1.108
 6335TIP3    H240565   3.411   7.157   1.074
 6336TIP3   OH240566   3.411   5.895   1.233
 6336TIP3    H140567   3.339   5.958   1.225
 6336TIP3    H240568   3.482   5.937   1.181
 6337TIP3   OH240569   2.709   5.707   0.980
 6337TIP3    H140570   2.695   5.611   0.973
 6337TIP3    H240571   2.621   5.738   1.010
 6338TIP3   OH240572   3.207   7.214   0.736
 6338TIP3    H140573   3.265   7.155   0.685
 6338TIP3    H240574   3.246   7.298   0.711
 6339TIP3   OH240575   3.331   7.031   0.599
 6339TIP3    H140576   3.295   6.963   0.541
 6339TIP3    H240577   3.331   6.986   0.686
 6340TIP3   OH240578   3.484   6.900   1.453
 6340TIP3    H140579   3.506   6.832   1.385
 6340TIP3    H240580   3.514   6.981   1.410
 6341TIP3   OH240581   2.937   6.587   0.429
 6341TIP3    H140582   2.868   6.644   0.391
 6341TIP3    H240583   3.008   6.595   0.363
 6342TIP3   OH240584   2.941   6.439   0.138
 6342TIP3    H140585   3.015   6.439   0.201
 6342TIP3    H240586   2.974   6.376   0.074
 6343TIP3   OH240587   3.670   6.523   1.251
 6343TIP3    H140588   3.612   6.601   1.264
 6343TIP3    H240589   3.726   6.552   1.178
 6344TIP3   OH240590   3.281   6.608   0.525
 6344TIP3    H140591   3.207   6.631   0.585
 6344TIP3    H240592   3.329   6.539   0.575
 6345TIP3   OH240593   3.272   6.423   1.433
 6345TIP3    H140594   3.275   6.504   1.487
 6345TIP3    H240595   3.210   6.454   1.364
 6346TIP3   OH240596   2.444   6.673   0.714
 6346TIP3    H140597   2.411   6.634   0.630
 6346TIP3    H240598   2.505   6.604   0.748
 6347TIP3   OH240599   2.582   7.018   0.980
 6347TIP3    H140600   2.573   6.959   0.904
 6347TIP3    H240601   2.651   6.971   1.030
 6348TIP3   OH240602   2.477   6.548   1.080
 6348TIP3    H140603   2.532   6.558   1.000
 6348TIP3    H240604   2.515   6.614   1.141
 6349TIP3   OH240605   3.105   7.104   1.148
 6349TIP3    H140606   3.098   7.165   1.222
 6349TIP3    H240607   3.098   7.016   1.194
 6350TIP3   OH240608   2.572   6.992   1.551
 6350TIP3    H140609   2.530   7.067   1.599
 6350TIP3    H240610   2.506   6.971   1.480
 6351TIP3   OH240611   3.170   6.524   0.291
 6351TIP3    H140612   3.224   6.544   0.370
 6351TIP3    H240613   3.210   6.579   0.220
 6352TIP3   OH240614   2.265   6.606   1.468
 6352TIP3    H140615   2.270   6.674   1.537
 6352TIP3    H240616   2.171   6.617   1.444
 6353TIP3   OH240617   2.933   7.196   0.643
 6353TIP3    H140618   2.989   7.231   0.712
 6353TIP3    H240619   2.887   7.273   0.608
 6354TIP3   OH240620   2.395   7.187   1.624
 6354TIP3    H140621   2.389   7.183   1.527
 6354TIP3    H240622   2.302   7.179   1.650
 6355TIP3   OH240623   3.541   5.700   0.278
 6355TIP3    H140624   3.446   5.712   0.304
 6355TIP3    H240625   3.563   5.786   0.238
 6356TIP3   OH240626   2.340   6.576   0.476
 6356TIP3    H140627   2.312   6.654   0.423
 6356TIP3    H240628   2.275   6.510   0.453
 6357TIP3   OH240629   3.656   7.136   0.105
 6357TIP3    H140630   3.657   7.221   0.151
 6357TIP3    H240631   3.746   7.098   0.117
 6358TIP3   OH240632   1.951   6.819   1.361
 6358TIP3    H140633   1.905   6.811   1.276
 6358TIP3    H240634   1.956   6.725   1.386
 6359TIP3   OH240635   1.928   7.088   1.046
 6359TIP3    H140636   2.024   7.083   1.039
 6359TIP3    H240637   1.919   7.171   1.096
 6360TIP3   OH240638   3.747   7.162   1.618
 6360TIP3    H140639   3.740   7.065   1.607
 6360TIP3    H240640   3.658   7.188   1.648
 6361TIP3   OH240641   2.841   7.120   1.496
 6361TIP3    H140642   2.855   7.197   1.553
 6361TIP3    H240643   2.759   7.078   1.528
 6362TIP3   OH240644   3.462   6.309   1.658
 6362TIP3    H140645   3.417   6.355   1.586
 6362TIP3    H240646   3.466   6.217   1.629
 6363TIP3   OH240647   2.178   6.951   1.460
 6363TIP3    H140648   2.199   6.913   1.548
 6363TIP3    H240649   2.092   6.911   1.437
 6364TIP3   OH240650   2.446   5.797   1.055
 6364TIP3    H140651   2.355   5.785   1.018
 6364TIP3    H240652   2.433   5.880   1.103
 6365TIP3   OH240653   2.910   5.764   1.392
 6365TIP3    H140654   2.949   5.722   1.471
 6365TIP3    H240655   2.813   5.752   1.406
 6366TIP3   OH240656   3.236   6.146   1.476
 6366TIP3    H140657   3.185   6.127   1.558
 6366TIP3    H240658   3.223   6.241   1.459
 6367TIP3   OH240659   3.322   6.635   0.073
 6367TIP3    H140660   3.323   6.616  -0.023
 6367TIP3    H240661   3.409   6.677   0.083
 6368TIP3   OH240662   2.875   6.021   0.125
 6368TIP3    H140663   2.843   6.016   0.217
 6368TIP3    H240664   2.847   5.933   0.096
 6369TIP3   OH240665   2.456   6.294   1.179
 6369TIP3    H140666   2.382   6.293   1.243
 6369TIP3    H240667   2.451   6.385   1.143
 6370TIP3   OH240668   2.452   6.307   0.666
 6370TIP3    H140669   2.358   6.281   0.653
 6370TIP3    H240670   2.490   6.277   0.581
 6371TIP3   OH240671   3.004   6.355   0.541
 6371TIP3    H140672   2.964   6.439   0.509
 6371TIP3    H240673   3.074   6.341   0.474
 6372TIP3   OH240674   2.909   6.379   1.690
 6372TIP3    H140675   2.856   6.300   1.717
 6372TIP3    H240676   2.994   6.363   1.733
 6373TIP3   OH240677   3.107   6.305   0.828
 6373TIP3    H140678   3.080   6.361   0.754
 6373TIP3    H240679   3.117   6.220   0.781
 6374TIP3   OH240680   2.219   6.321   1.349
 6374TIP3    H140681   2.225   6.361   1.437
 6374TIP3    H240682   2.174   6.237   1.368
 6375TIP3   OH240683   2.573   6.081   0.065
 6375TIP3    H140684   2.518   6.018   0.117
 6375TIP3    H240685   2.511   6.117   0.001
 6376TIP3   OH240686   1.884   6.031   0.746
 6376TIP3    H140687   1.952   6.028   0.816
 6376TIP3    H240688   1.929   5.993   0.669
 6377TIP3   OH240689   2.014   6.104   0.283
 6377TIP3    H140690   2.062   6.163   0.223
 6377TIP3    H240691   1.944   6.165   0.315
 6378TIP3   OH240692   3.027   6.464   1.284
 6378TIP3    H140693   3.065   6.396   1.225
 6378TIP3    H240694   2.981   6.411   1.351
 6379TIP3   OH240695   2.708   6.061   0.767
 6379TIP3    H140696   2.614   6.062   0.796
 6379TIP3    H240697   2.756   6.046   0.849
 6380TIP3   OH240698   2.189   6.217   0.654
 6380TIP3    H140699   2.100   6.232   0.615
 6380TIP3    H240700   2.217   6.134   0.613
 6381TIP3   OH240701   2.552   6.223   0.417
 6381TIP3    H140702   2.648   6.233   0.434
 6381TIP3    H240703   2.530   6.288   0.348
 6382TIP3   OH240704   3.148   5.985   1.091
 6382TIP3    H140705   3.080   5.991   1.162
 6382TIP3    H240706   3.097   5.960   1.013
 6383TIP3   OH240707   2.422   6.339   0.176
 6383TIP3    H140708   2.367   6.304   0.104
 6383TIP3    H240709   2.505   6.360   0.130
 6384TIP3   OH240710   2.235   6.798   1.682
 6384TIP3    H140711   2.307   6.820   1.743
 6384TIP3    H240712   2.158   6.809   1.742
 6385TIP3   OH240713   2.836   6.337   0.956
 6385TIP3    H140714   2.896   6.284   0.903
 6385TIP3    H240715   2.822   6.282   1.035
 6386TIP3   OH240716   2.337   5.952   0.601
 6386TIP3    H140717   2.306   5.859   0.598
 6386TIP3    H240718   2.416   5.946   0.545
 6387TIP3   OH240719   2.700   6.170   1.198
 6387TIP3    H140720   2.617   6.222   1.207
 6387TIP3    H240721   2.755   6.205   1.270
 6388TIP3   OH240722   2.759   6.791   0.369
 6388TIP3    H140723   2.679   6.745   0.335
 6388TIP3    H240724   2.737   6.802   0.464
 6389TIP3   OH240725   3.474   6.711   1.246
 6389TIP3    H140726   3.535   6.760   1.187
 6389TIP3    H240727   3.390   6.719   1.199
 6390TIP3   OH240728   3.146   6.072   0.186
 6390TIP3    H140729   3.051   6.087   0.169
 6390TIP3    H240730   3.175   6.159   0.217
 6391TIP3   OH240731   2.904   6.819   1.487
 6391TIP3    H140732   2.874   6.777   1.568
 6391TIP3    H240733   2.884   6.912   1.503
 6392TIP3   OH240734   3.216   6.266   0.353
 6392TIP3    H140735   3.306   6.252   0.388
 6392TIP3    H240736   3.224   6.346   0.300
 6393TIP3   OH240737   2.269   6.731   0.947
 6393TIP3    H140738   2.339   6.724   0.879
 6393TIP3    H240739   2.276   6.645   0.993
 6394TIP3   OH240740   2.968   6.939   0.271
 6394TIP3    H140741   2.934   7.023   0.306
 6394TIP3    H240742   2.894   6.878   0.291
 6395TIP3   OH240743   1.967   6.572   1.475
 6395TIP3    H140744   1.989   6.527   1.558
 6395TIP3    H240745   1.907   6.510   1.429
 6396TIP3   OH240746   2.671   6.527   1.692
 6396TIP3    H140747   2.638   6.498   1.605
 6396TIP3    H240748   2.764   6.498   1.690
 6397TIP3   OH240749   3.135   7.067   1.478
 6397TIP3    H140750   3.041   7.078   1.465
 6397TIP3    H240751   3.135   7.084   1.577
 6398TIP3   OH240752   3.705   6.279   0.327
 6398TIP3    H140753   3.649   6.248   0.254
 6398TIP3    H240754   3.713   6.373   0.299
 6399TIP3   OH240755   3.705   6.864   1.609
 6399TIP3    H140756   3.618   6.886   1.568
 6399TIP3    H240757   3.760   6.857   1.527
 6400TIP3   OH240758   3.548   7.143   0.381
 6400TIP3    H140759   3.493   7.068   0.402
 6400TIP3    H240760   3.559   7.139   0.286
 6401TIP3   OH240761   3.255   6.644   1.076
 6401TIP3    H140762   3.161   6.621   1.065
 6401TIP3    H240763   3.298   6.568   1.033
 6402TIP3   OH240764   2.511   7.075   0.681
 6402TIP3    H140765   2.557   7.158   0.666
 6402TIP3    H240766   2.420   7.097   0.657
 6403TIP3   OH240767   2.080   6.563   0.139
 6403TIP3    H140768   2.142   6.626   0.181
 6403TIP3    H240769   1.993   6.592   0.172
 6404TIP3   OH240770   2.653   6.844   0.643
 6404TIP3    H140771   2.618   6.935   0.645
 6404TIP3    H240772   2.577   6.796   0.682
 6405TIP3   OH240773   2.735   7.229   1.242
 6405TIP3    H140774   2.734   7.327   1.245
 6405TIP3    H240775   2.751   7.217   1.338
 6406TIP3   OH240776   3.046   6.864   1.239
 6406TIP3    H140777   3.013   6.841   1.329
 6406TIP3    H240778   3.110   6.792   1.224
 6407TIP3   OH240779   3.275   6.964   0.152
 6407TIP3    H140780   3.307   6.922   0.235
 6407TIP3    H240781   3.180   6.949   0.160
 6408TIP3   OH240782   2.134   6.046   1.429
 6408TIP3    H140783   2.043   6.081   1.426
 6408TIP3    H240784   2.123   5.961   1.475
 6409TIP3   OH240785   3.358   6.825   0.372
 6409TIP3    H140786   3.334   6.750   0.428
 6409TIP3    H240787   3.451   6.839   0.395
 6410TIP3   OH240788   2.097   7.221   1.270
 6410TIP3    H140789   2.123   7.129   1.274
 6410TIP3    H240790   2.116   7.255   1.359
 6411TIP3   OH240791   2.571   7.029   0.240
 6411TIP3    H140792   2.594   6.975   0.316
 6411TIP3    H240793   2.580   7.120   0.274
 6412TIP3   OH240794   2.219   6.756   0.288
 6412TIP3    H140795   2.153   6.796   0.348
 6412TIP3    H240796   2.275   6.833   0.265
 6413TIP3   OH240797   3.007   6.022   1.322
 6413TIP3    H140798   3.078   6.029   1.387
 6413TIP3    H240799   2.968   5.935   1.343
 6414TIP3   OH240800   3.080   5.982   0.434
 6414TIP3    H140801   3.106   6.028   0.352
 6414TIP3    H240802   3.139   6.024   0.498
 6415TIP3   OH240803   2.852   7.198   0.319
 6415TIP3    H140804   2.768   7.246   0.321
 6415TIP3    H240805   2.903   7.246   0.252
 6416TIP3   OH240806   2.803   6.155   0.514
 6416TIP3    H140807   2.882   6.212   0.517
 6416TIP3    H240808   2.778   6.143   0.608
 6417TIP3   OH240809   2.859   6.257   1.432
 6417TIP3    H140810   2.867   6.315   1.510
 6417TIP3    H240811   2.926   6.188   1.443
 6418TIP3   OH240812   2.889   5.861   0.603
 6418TIP3    H140813   2.857   5.926   0.668
 6418TIP3    H240814   2.959   5.916   0.558
 6419TIP3   OH240815   2.590  -0.001   0.315
 6419TIP3    H140816   2.601   0.082   0.268
 6419TIP3    H240817   2.566   0.031   0.404
 6420TIP3   OH240818   2.456   5.970   0.278
 6420TIP3    H140819   2.449   6.062   0.312
 6420TIP3    H240820   2.547   5.948   0.304
 6421TIP3   OH240821   3.477   6.044   1.521
 6421TIP3    H140822   3.384   6.075   1.507
 6421TIP3    H240823   3.508   6.045   1.429
 6422TIP3   OH240824   3.339   6.423   0.920
 6422TIP3    H140825   3.256   6.379   0.892
 6422TIP3    H240826   3.386   6.354   0.972
 6423TIP3   OH240827   2.281   7.014   0.183
 6423TIP3    H140828   2.345   7.081   0.207
 6423TIP3    H240829   2.330   6.972   0.109
 6424TIP3   OH240830   2.118   6.283   0.099
 6424TIP3    H140831   2.114   6.380   0.110
 6424TIP3    H240832   2.030   6.263   0.063
 6425TIP3   OH240833   2.195   5.761   0.967
 6425TIP3    H140834   2.174   5.764   0.871
 6425TIP3    H240835   2.153   5.677   0.992
 6426TIP3   OH240836   2.091   7.154   0.578
 6426TIP3    H140837   2.005   7.197   0.578
 6426TIP3    H240838   2.141   7.203   0.511
 6427TIP3   OH240839   2.508   7.287   1.894
 6427TIP3    H140840   2.589   7.238   1.909
 6427TIP3    H240841   2.497   7.268   1.798
 6428TIP3   OH240842   2.925   7.280   0.076
 6428TIP3    H140843   2.843   7.229   0.062
 6428TIP3    H240844   2.972   7.232   0.006
 6429TIP3   OH240845   3.143   7.111   1.729
 6429TIP3    H140846   3.088   7.050   1.782
 6429TIP3    H240847   3.193   7.155   1.798
 6430TIP3   OH240848   3.354   7.243   0.035
 6430TIP3    H140849   3.365   7.158   0.082
 6430TIP3    H240850   3.428   7.236  -0.024
 6431TIP3   OH240851   2.001   6.792   1.811
 6431TIP3    H140852   2.020   6.705   1.774
 6431TIP3    H240853   1.928   6.826   1.755
 6432TIP3   OH240854   2.445   6.836   0.027
 6432TIP3    H140855   2.451   6.752   0.073
 6432TIP3    H240856   2.501   6.815  -0.051
 6433TIP3   OH240857   2.673   6.793   1.747
 6433TIP3    H140858   2.639   6.824   1.661
 6433TIP3    H240859   2.682   6.696   1.737
 6434TIP3   OH240860   3.242   6.781   1.488
 6434TIP3    H140861   3.321   6.839   1.479
 6434TIP3    H240862   3.172   6.847   1.494
 6435TIP3   OH240863   2.086   6.518   1.747
 6435TIP3    H140864   2.134   6.434   1.737
 6435TIP3    H240865   2.072   6.521   1.843
 6436TIP3   OH240866   2.558   6.634   0.253
 6436TIP3    H140867   2.508   6.581   0.317
 6436TIP3    H240868   2.588   6.565   0.190
 6437TIP3   OH240869   2.484   6.413   1.484
 6437TIP3    H140870   2.423   6.485   1.510
 6437TIP3    H240871   2.523   6.450   1.402
 6438TIP3   OH240872   2.665   6.456   0.074
 6438TIP3    H140873   2.653   6.436  -0.020
 6438TIP3    H240874   2.763   6.463   0.084
 6439TIP3   OH240875   2.989   6.668   1.816
 6439TIP3    H140876   3.085   6.670   1.806
 6439TIP3    H240877   2.972   6.593   1.873
 6440TIP3   OH240878   3.584   6.699   8.525
 6440TIP3    H140879   3.573   6.649   8.442
 6440TIP3    H240880   3.604   6.789   8.497
 6441TIP3   OH240881   2.526   6.151   1.591
 6441TIP3    H140882   2.535   6.080   1.525
 6441TIP3    H240883   2.520   6.232   1.535
 6442TIP3   OH240884   2.564   5.989   1.344
 6442TIP3    H140885   2.615   6.035   1.274
 6442TIP3    H240886   2.475   5.981   1.303
 6443TIP3   OH240887   2.719   6.537   1.370
 6443TIP3    H140888   2.794   6.521   1.311
 6443TIP3    H240889   2.682   6.621   1.336
 6444TIP3   OH240890   3.291   6.594   1.681
 6444TIP3    H140891   3.268   6.665   1.617
 6444TIP3    H240892   3.387   6.591   1.660
 6445TIP3   OH240893   2.367   6.276   1.779
 6445TIP3    H140894   2.292   6.216   1.764
 6445TIP3    H240895   2.434   6.239   1.719
 6446TIP3   OH240896   2.643   5.733   1.384
 6446TIP3    H140897   2.626   5.829   1.374
 6446TIP3    H240898   2.568   5.696   1.334
 6447TIP3   OH240899   2.770   6.165   1.745
 6447TIP3    H140900   2.738   6.143   1.834
 6447TIP3    H240901   2.690   6.146   1.691
 6448TIP3   OH240902   3.041   6.079   1.652
 6448TIP3    H140903   2.945   6.083   1.666
 6448TIP3    H240904   3.070   6.017   1.722
 6449TIP3   OH240905   3.196   5.944   1.850
 6449TIP3    H140906   3.194   5.846   1.849
 6449TIP3    H240907   3.174   5.966   1.941
 6450TIP3   OH240908   2.183   6.068   1.756
 6450TIP3    H140909   2.203   5.993   1.697
 6450TIP3    H240910   2.169   6.022   1.841
 6451TIP3   OH240911   2.663   5.671   1.653
 6451TIP3    H140912   2.731   5.600   1.652
 6451TIP3    H240913   2.653   5.686   1.558
 6452TIP3   OH240914   2.699   5.834   1.863
 6452TIP3    H140915   2.684   5.782   1.781
 6452TIP3    H240916   2.640   5.910   1.854
 6453TIP3   OH240917   2.007   6.982   0.129
 6453TIP3    H140918   2.102   6.995   0.151
 6453TIP3    H240919   2.012   6.923   0.054
 6454TIP3   OH240920   3.514   6.947   1.873
 6454TIP3    H140921   3.427   6.941   1.910
 6454TIP3    H240922   3.560   7.023   1.914
 6455TIP3   OH240923   3.652   6.775   0.410
 6455TIP3    H140924   3.735   6.820   0.433
 6455TIP3    H240925   3.649   6.705   0.480
 6456TIP3   OH240926   3.686   6.586   0.600
 6456TIP3    H140927   3.612   6.534   0.638
 6456TIP3    H240928   3.747   6.598   0.676
 6457TIP3   OH240929   3.658   6.856   1.093
 6457TIP3    H140930   3.743   6.818   1.064
 6457TIP3    H240931   3.678   6.951   1.086
 6458TIP3   OH240932   3.513   7.144   1.330
 6458TIP3    H140933   3.443   7.181   1.385
 6458TIP3    H240934   3.464   7.106   1.254
 6459TIP3   OH240935   3.716   6.568   0.237
 6459TIP3    H140936   3.657   6.606   0.168
 6459TIP3    H240937   3.709   6.638   0.305
 6460TIP3   OH240938   3.517   6.294   0.100
 6460TIP3    H140939   3.561   6.353   0.037
 6460TIP3    H240940   3.534   6.210   0.054
 6461TIP3   OH240941   3.469   6.433   0.657
 6461TIP3    H140942   3.453   6.337   0.653
 6461TIP3    H240943   3.435   6.455   0.746
 6462TIP3   OH240944   1.969   6.642   1.062
 6462TIP3    H140945   1.987   6.633   0.966
 6462TIP3    H240946   2.058   6.625   1.098
 6463TIP3   OH240947   3.553   6.629   1.631
 6463TIP3    H140948   3.618   6.556   1.639
 6463TIP3    H240949   3.612   6.706   1.623
 6464TIP3   OH240950   3.702   6.417   1.696
 6464TIP3    H140951   3.615   6.378   1.673
 6464TIP3    H240952   3.761   6.341   1.682
 6465TIP3   OH240953   3.479   6.033   0.001
 6465TIP3    H140954   3.537   5.992   0.068
 6465TIP3    H240955   3.390   5.999   0.022
 6466TIP3   OH240956   3.435   6.192   0.504
 6466TIP3    H140957   3.466   6.099   0.515
 6466TIP3    H240958   3.513   6.232   0.464
 6467TIP3   OH240959   3.499   6.246   1.047
 6467TIP3    H140960   3.595   6.269   1.045
 6467TIP3    H240961   3.480   6.260   1.141
 6468TIP3   OH240962   3.505   6.317   1.323
 6468TIP3    H140963   3.419   6.347   1.359
 6468TIP3    H240964   3.549   6.404   1.303
 6469TIP3   OH240965   1.932   6.171   1.676
 6469TIP3    H140966   2.024   6.149   1.697
 6469TIP3    H240967   1.885   6.089   1.707
 6470TIP3   OH240968   3.735   5.716   1.861
 6470TIP3    H140969   3.767   5.655   1.793
 6470TIP3    H240970   3.741   5.803   1.815
 6471TIP3   OH240971   3.502   5.919   0.507
 6471TIP3    H140972   3.523   5.875   0.592
 6471TIP3    H240973   3.441   5.856   0.463
 6472TIP3   OH240974   2.051   6.001   0.963
 6472TIP3    H140975   2.097   5.918   0.989
 6472TIP3    H240976   2.105   6.070   1.002
 6473TIP3   OH240977   1.879   6.300   1.067
 6473TIP3    H140978   1.935   6.276   0.990
 6473TIP3    H240979   1.925   6.381   1.095
 6474TIP3   OH240980   3.687   5.930   1.697
 6474TIP3    H140981   3.594   5.962   1.689
 6474TIP3    H240982   3.691   5.881   1.615
 6475TIP3   OH240983   3.684   5.926   0.163
 6475TIP3    H140984   3.727   5.854   0.113
 6475TIP3    H240985   3.756   5.991   0.165
 6476TIP3   OH240986   1.915   5.926   0.473
 6476TIP3    H140987   1.821   5.946   0.461
 6476TIP3    H240988   1.957   5.976   0.401
 6477TIP3   OH240989   1.912   5.794   1.305
 6477TIP3    H140990   1.845   5.773   1.373
 6477TIP3    H240991   1.865   5.860   1.250
 6478TIP3   OH240992   2.134   7.120   1.721
 6478TIP3    H140993   2.047   7.130   1.677
 6478TIP3    H240994   2.108   7.103   1.813
 6479TIP3   OH240995   2.428   7.212   1.353
 6479TIP3    H140996   2.383   7.291   1.320
 6479TIP3    H240997   2.515   7.213   1.313
 6480TIP3   OH240998   3.588   5.743   1.478
 6480TIP3    H140999   3.504   5.772   1.438
 6480TIP3    H241000   3.604   5.661   1.427
 6481TIP3   OH241001   2.345   7.247   0.885
 6481TIP3    H141002   2.305   7.172   0.931
 6481TIP3    H241003   2.401   7.285   0.955
 6482TIP3   OH241004   2.926   5.886   0.908
 6482TIP3    H141005   2.859   5.822   0.936
 6482TIP3    H241006   2.981   5.833   0.850
 6483TIP3   OH241007   3.440   5.691   0.915
 6483TIP3    H141008   3.501   5.750   0.864
 6483TIP3    H241009   3.351   5.727   0.892
 6484TIP3   OH241010   3.607   5.815   0.744
 6484TIP3    H141011   3.675   5.758   0.701
 6484TIP3    H241012   3.657   5.899   0.753
 6485TIP3   OH241013   2.163   5.749   0.693
 6485TIP3    H141014   2.083   5.728   0.640
 6485TIP3    H241015   2.209   5.663   0.688
 6486TIP3   OH241016   2.038   5.724   0.266
 6486TIP3    H141017   2.088   5.788   0.211
 6486TIP3    H241018   1.983   5.782   0.321
 6487TIP3   OH241019   2.611   5.741   0.672
 6487TIP3    H141020   2.701   5.777   0.665
 6487TIP3    H241021   2.607   5.719   0.765
 6488TIP3   OH241022   3.181   5.743   0.835
 6488TIP3    H141023   3.177   5.754   0.739
 6488TIP3    H241024   3.144   5.652   0.847
 6489TIP3   OH241025   3.309   5.746   0.400
 6489TIP3    H141026   3.234   5.806   0.385
 6489TIP3    H241027   3.264   5.660   0.422
 6490TIP3   OH241028   2.223   5.911   0.119
 6490TIP3    H141029   2.277   5.856   0.063
 6490TIP3    H241030   2.289   5.952   0.178
 6491TIP3   OH241031   2.726   5.943   0.357
 6491TIP3    H141032   2.752   5.885   0.431
 6491TIP3    H241033   2.732   6.030   0.404
 6492TIP3   OH241034   2.154   5.802   1.635
 6492TIP3    H141035   2.111   5.727   1.682
 6492TIP3    H241036   2.242   5.798   1.678
 6493TIP3   OH241037   2.353   5.741   1.800
 6493TIP3    H141038   2.441   5.704   1.778
 6493TIP3    H241039   2.313   5.663   1.842
 6494TIP3   OH241040   3.193   5.669   1.814
 6494TIP3    H141041   3.198   5.628   1.902
 6494TIP3    H241042   3.286   5.668   1.783
 6495TIP3   OH241043   3.500  -0.032   1.696
 6495TIP3    H141044   3.433  -0.045   1.629
 6495TIP3    H241045   3.510   0.065   1.698
 6496TIP3   OH241046   4.954   6.658   0.685
 6496TIP3    H141047   4.957   6.757   0.675
 6496TIP3    H241048   4.886   6.638   0.618
 6497TIP3   OH241049   4.841   6.587   1.030
 6497TIP3    H141050   4.832   6.526   1.106
 6497TIP3    H241051   4.791   6.542   0.958
 6498TIP3   OH241052   4.085   6.548   1.176
 6498TIP3    H141053   4.085   6.489   1.254
 6498TIP3    H241054   4.148   6.615   1.208
 6499TIP3   OH241055   5.211   6.881   0.858
 6499TIP3    H141056   5.170   6.812   0.909
 6499TIP3    H241057   5.216   6.954   0.922
 6500TIP3   OH241058   4.173   7.002   1.035
 6500TIP3    H141059   4.139   6.915   1.004
 6500TIP3    H241060   4.268   6.981   1.039
 6501TIP3   OH241061   3.835   6.356   0.583
 6501TIP3    H141062   3.791   6.444   0.578
 6501TIP3    H241063   3.779   6.303   0.526
 6502TIP3   OH241064   3.906   6.579   0.797
 6502TIP3    H141065   3.933   6.497   0.844
 6502TIP3    H241066   3.976   6.589   0.731
 6503TIP3   OH241067   4.679   6.826   1.077
 6503TIP3    H141068   4.714   6.766   1.009
 6503TIP3    H241069   4.759   6.847   1.128
 6504TIP3   OH241070   5.541   5.995   1.148
 6504TIP3    H141071   5.558   6.053   1.226
 6504TIP3    H241072   5.597   6.037   1.082
 6505TIP3   OH241073   5.000   6.278   1.103
 6505TIP3    H141074   5.014   6.181   1.111
 6505TIP3    H241075   4.985   6.280   1.008
 6506TIP3   OH241076   4.309   6.084   0.829
 6506TIP3    H141077   4.319   6.168   0.781
 6506TIP3    H241078   4.269   6.027   0.760
 6507TIP3   OH241079   5.082   6.096   0.669
 6507TIP3    H141080   5.149   6.059   0.732
 6507TIP3    H241081   5.140   6.147   0.610
 6508TIP3   OH241082   3.971   6.324   0.903
 6508TIP3    H141083   4.039   6.269   0.947
 6508TIP3    H241084   3.981   6.294   0.811
 6509TIP3   OH241085   4.490   6.480   0.832
 6509TIP3    H141086   4.552   6.420   0.875
 6509TIP3    H241087   4.434   6.416   0.784
 6510TIP3   OH241088   5.585   6.135   1.376
 6510TIP3    H141089   5.523   6.210   1.366
 6510TIP3    H241090   5.589   6.126   1.472
 6511TIP3   OH241091   4.199   5.974   1.233
 6511TIP3    H141092   4.171   6.031   1.159
 6511TIP3    H241093   4.132   5.998   1.302
 6512TIP3   OH241094   4.926   6.917   0.589
 6512TIP3    H141095   4.903   6.896   0.497
 6512TIP3    H241096   4.899   7.011   0.594
 6513TIP3   OH241097   4.452   6.736   1.258
 6513TIP3    H141098   4.379   6.799   1.280
 6513TIP3    H241099   4.521   6.797   1.229
 6514TIP3   OH241100   5.260   6.030   0.868
 6514TIP3    H141101   5.242   5.950   0.918
 6514TIP3    H241102   5.332   6.068   0.921
 6515TIP3   OH241103   4.157   6.161   1.036
 6515TIP3    H141104   4.220   6.229   1.068
 6515TIP3    H241105   4.208   6.118   0.963
 6516TIP3   OH241106   4.295   6.938   1.340
 6516TIP3    H141107   4.288   7.028   1.304
 6516TIP3    H241108   4.206   6.927   1.382
 6517TIP3   OH241109   3.902   6.904   0.420
 6517TIP3    H141110   3.880   6.934   0.330
 6517TIP3    H241111   3.910   6.987   0.471
 6518TIP3   OH241112   5.266   7.069   1.099
 6518TIP3    H141113   5.168   7.076   1.108
 6518TIP3    H241114   5.294   7.158   1.073
 6519TIP3   OH241115   5.296   5.895   1.233
 6519TIP3    H141116   5.224   5.959   1.224
 6519TIP3    H241117   5.368   5.937   1.181
 6520TIP3   OH241118   4.594   5.707   0.980
 6520TIP3    H141119   4.580   5.610   0.973
 6520TIP3    H241120   4.506   5.738   1.010
 6521TIP3   OH241121   5.093   7.215   0.736
 6521TIP3    H141122   5.150   7.154   0.685
 6521TIP3    H241123   5.132   7.299   0.712
 6522TIP3   OH241124   5.214   7.031   0.601
 6522TIP3    H141125   5.181   6.963   0.542
 6522TIP3    H241126   5.216   6.986   0.688
 6523TIP3   OH241127   5.374   6.900   1.455
 6523TIP3    H141128   5.387   6.833   1.384
 6523TIP3    H241129   5.396   6.983   1.410
 6524TIP3   OH241130   4.824   6.588   0.431
 6524TIP3    H141131   4.753   6.643   0.392
 6524TIP3    H241132   4.893   6.595   0.363
 6525TIP3   OH241133   4.827   6.439   0.139
 6525TIP3    H141134   4.901   6.439   0.201
 6525TIP3    H241135   4.860   6.376   0.074
 6526TIP3   OH241136   5.562   6.528   1.259
 6526TIP3    H141137   5.496   6.600   1.263
 6526TIP3    H241138   5.611   6.551   1.178
 6527TIP3   OH241139   5.166   6.609   0.526
 6527TIP3    H141140   5.091   6.632   0.585
 6527TIP3    H241141   5.216   6.540   0.573
 6528TIP3   OH241142   5.161   6.424   1.434
 6528TIP3    H141143   5.162   6.504   1.490
 6528TIP3    H241144   5.096   6.455   1.368
 6529TIP3   OH241145   4.329   6.673   0.715
 6529TIP3    H141146   4.296   6.634   0.631
 6529TIP3    H241147   4.391   6.604   0.748
 6530TIP3   OH241148   4.462   7.014   0.981
 6530TIP3    H141149   4.461   6.959   0.902
 6530TIP3    H241150   4.538   6.977   1.029
 6531TIP3   OH241151   4.364   6.546   1.079
 6531TIP3    H141152   4.417   6.559   0.999
 6531TIP3    H241153   4.400   6.613   1.141
 6532TIP3   OH241154   5.006   7.104   1.154
 6532TIP3    H141155   4.970   7.168   1.214
 6532TIP3    H241156   4.977   7.019   1.194
 6533TIP3   OH241157   4.459   6.992   1.551
 6533TIP3    H141158   4.413   7.065   1.598
 6533TIP3    H241159   4.392   6.968   1.482
 6534TIP3   OH241160   5.055   6.524   0.290
 6534TIP3    H141161   5.111   6.545   0.369
 6534TIP3    H241162   5.096   6.579   0.220
 6535TIP3   OH241163   4.183   6.541   1.503
 6535TIP3    H141164   4.174   6.635   1.532
 6535TIP3    H241165   4.103   6.564   1.449
 6536TIP3   OH241166   4.823   7.197   0.639
 6536TIP3    H141167   4.872   7.229   0.714
 6536TIP3    H241168   4.772   7.273   0.610
 6537TIP3   OH241169   4.282   7.188   1.625
 6537TIP3    H141170   4.274   7.184   1.527
 6537TIP3    H241171   4.187   7.179   1.649
 6538TIP3   OH241172   5.426   5.700   0.278
 6538TIP3    H141173   5.332   5.712   0.304
 6538TIP3    H241174   5.449   5.786   0.238
 6539TIP3   OH241175   4.226   6.576   0.476
 6539TIP3    H141176   4.198   6.654   0.423
 6539TIP3    H241177   4.160   6.510   0.453
 6540TIP3   OH241178   5.541   7.131   0.118
 6540TIP3    H141179   5.547   7.227   0.131
 6540TIP3    H241180   5.634   7.105   0.108
 6541TIP3   OH241181   3.778   6.826   1.352
 6541TIP3    H141182   3.783   6.806   1.258
 6541TIP3    H241183   3.838   6.751   1.382
 6542TIP3   OH241184   3.814   7.090   1.044
 6542TIP3    H141185   3.910   7.081   1.041
 6542TIP3    H241186   3.805   7.171   1.098
 6543TIP3   OH241187   5.639   7.162   1.619
 6543TIP3    H141188   5.622   7.067   1.607
 6543TIP3    H241189   5.548   7.190   1.648
 6544TIP3   OH241190   4.729   7.118   1.498
 6544TIP3    H141191   4.739   7.199   1.549
 6544TIP3    H241192   4.644   7.079   1.525
 6545TIP3   OH241193   5.347   6.308   1.659
 6545TIP3    H141194   5.302   6.355   1.587
 6545TIP3    H241195   5.351   6.217   1.626
 6546TIP3   OH241196   4.059   7.010   1.476
 6546TIP3    H141197   4.088   6.937   1.536
 6546TIP3    H241198   3.997   6.942   1.436
 6547TIP3   OH241199   4.331   5.797   1.055
 6547TIP3    H141200   4.241   5.785   1.018
 6547TIP3    H241201   4.319   5.880   1.103
 6548TIP3   OH241202   4.796   5.763   1.391
 6548TIP3    H141203   4.834   5.723   1.472
 6548TIP3    H241204   4.699   5.752   1.406
 6549TIP3   OH241205   5.124   6.147   1.480
 6549TIP3    H141206   5.068   6.128   1.558
 6549TIP3    H241207   5.108   6.240   1.459
 6550TIP3   OH241208   5.207   6.634   0.072
 6550TIP3    H141209   5.209   6.616  -0.024
 6550TIP3    H241210   5.295   6.677   0.082
 6551TIP3   OH241211   4.760   6.021   0.125
 6551TIP3    H141212   4.729   6.016   0.217
 6551TIP3    H241213   4.733   5.933   0.096
 6552TIP3   OH241214   4.341   6.294   1.180
 6552TIP3    H141215   4.268   6.294   1.244
 6552TIP3    H241216   4.336   6.386   1.144
 6553TIP3   OH241217   4.338   6.307   0.666
 6553TIP3    H141218   4.244   6.281   0.653
 6553TIP3    H241219   4.376   6.277   0.581
 6554TIP3   OH241220   4.892   6.359   0.544
 6554TIP3    H141221   4.848   6.439   0.508
 6554TIP3    H241222   4.957   6.340   0.473
 6555TIP3   OH241223   4.797   6.379   1.690
 6555TIP3    H141224   4.743   6.301   1.717
 6555TIP3    H241225   4.880   6.364   1.738
 6556TIP3   OH241226   4.994   6.309   0.824
 6556TIP3    H141227   4.963   6.355   0.744
 6556TIP3    H241228   5.003   6.219   0.783
 6557TIP3   OH241229   4.104   6.319   1.347
 6557TIP3    H141230   4.113   6.363   1.434
 6557TIP3    H241231   4.058   6.236   1.370
 6558TIP3   OH241232   4.458   6.081   0.065
 6558TIP3    H141233   4.404   6.018   0.117
 6558TIP3    H241234   4.397   6.117   0.001
 6559TIP3   OH241235   3.770   6.031   0.746
 6559TIP3    H141236   3.838   6.028   0.816
 6559TIP3    H241237   3.815   5.993   0.668
 6560TIP3   OH241238   3.899   6.104   0.283
 6560TIP3    H141239   3.948   6.163   0.223
 6560TIP3    H241240   3.830   6.165   0.315
 6561TIP3   OH241241   4.912   6.464   1.280
 6561TIP3    H141242   4.951   6.392   1.227
 6561TIP3    H241243   4.867   6.414   1.352
 6562TIP3   OH241244   4.593   6.062   0.767
 6562TIP3    H141245   4.500   6.062   0.796
 6562TIP3    H241246   4.641   6.043   0.849
 6563TIP3   OH241247   4.074   6.217   0.654
 6563TIP3    H141248   3.986   6.232   0.615
 6563TIP3    H241249   4.103   6.134   0.613
 6564TIP3   OH241250   4.438   6.223   0.417
 6564TIP3    H141251   4.534   6.233   0.434
 6564TIP3    H241252   4.415   6.288   0.348
 6565TIP3   OH241253   5.034   5.988   1.090
 6565TIP3    H141254   4.966   5.989   1.161
 6565TIP3    H241255   4.983   5.958   1.013
 6566TIP3   OH241256   4.308   6.339   0.176
 6566TIP3    H141257   4.253   6.304   0.104
 6566TIP3    H241258   4.391   6.360   0.130
 6567TIP3   OH241259   4.126   6.798   1.696
 6567TIP3    H141260   4.196   6.825   1.755
 6567TIP3    H241261   4.044   6.810   1.747
 6568TIP3   OH241262   4.730   6.340   0.959
 6568TIP3    H141263   4.776   6.279   0.901
 6568TIP3    H241264   4.704   6.283   1.033
 6569TIP3   OH241265   4.223   5.952   0.601
 6569TIP3    H141266   4.192   5.859   0.598
 6569TIP3    H241267   4.301   5.946   0.545
 6570TIP3   OH241268   4.587   6.171   1.196
 6570TIP3    H141269   4.504   6.221   1.207
 6570TIP3    H241270   4.640   6.204   1.272
 6571TIP3   OH241271   4.645   6.791   0.369
 6571TIP3    H141272   4.565   6.745   0.335
 6571TIP3    H241273   4.623   6.802   0.464
 6572TIP3   OH241274   5.362   6.709   1.246
 6572TIP3    H141275   5.420   6.762   1.187
 6572TIP3    H241276   5.277   6.721   1.201
 6573TIP3   OH241277   5.031   6.072   0.186
 6573TIP3    H141278   4.937   6.087   0.169
 6573TIP3    H241279   5.061   6.159   0.217
 6574TIP3   OH241280   4.790   6.821   1.489
 6574TIP3    H141281   4.759   6.778   1.570
 6574TIP3    H241282   4.769   6.914   1.502
 6575TIP3   OH241283   5.101   6.266   0.353
 6575TIP3    H141284   5.191   6.252   0.388
 6575TIP3    H241285   5.110   6.346   0.300
 6576TIP3   OH241286   4.154   6.731   0.947
 6576TIP3    H141287   4.225   6.724   0.880
 6576TIP3    H241288   4.161   6.646   0.993
 6577TIP3   OH241289   4.854   6.939   0.271
 6577TIP3    H141290   4.820   7.023   0.306
 6577TIP3    H241291   4.780   6.878   0.291
 6578TIP3   OH241292   3.825   6.562   1.481
 6578TIP3    H141293   3.871   6.522   1.557
 6578TIP3    H241294   3.785   6.493   1.428
 6579TIP3   OH241295   4.556   6.529   1.690
 6579TIP3    H141296   4.522   6.498   1.604
 6579TIP3    H241297   4.648   6.497   1.690
 6580TIP3   OH241298   5.022   7.066   1.481
 6580TIP3    H141299   4.928   7.075   1.461
 6580TIP3    H241300   5.020   7.085   1.578
 6581TIP3   OH241301   5.591   6.279   0.329
 6581TIP3    H141302   5.535   6.248   0.255
 6581TIP3    H241303   5.599   6.373   0.299
 6582TIP3   OH241304   5.592   6.867   1.605
 6582TIP3    H141305   5.502   6.886   1.569
 6582TIP3    H241306   5.645   6.858   1.524
 6583TIP3   OH241307   5.436   7.138   0.385
 6583TIP3    H141308   5.376   7.066   0.398
 6583TIP3    H241309   5.446   7.144   0.288
 6584TIP3   OH241310   5.140   6.647   1.068
 6584TIP3    H141311   5.046   6.627   1.079
 6584TIP3    H241312   5.188   6.567   1.038
 6585TIP3   OH241313   4.396   7.074   0.678
 6585TIP3    H141314   4.443   7.158   0.668
 6585TIP3    H241315   4.305   7.098   0.657
 6586TIP3   OH241316   3.965   6.563   0.139
 6586TIP3    H141317   4.028   6.625   0.181
 6586TIP3    H241318   3.879   6.591   0.172
 6587TIP3   OH241319   4.536   6.842   0.640
 6587TIP3    H141320   4.505   6.935   0.646
 6587TIP3    H241321   4.462   6.795   0.682
 6588TIP3   OH241322   4.609   7.231   1.248
 6588TIP3    H141323   4.623   7.327   1.241
 6588TIP3    H241324   4.640   7.217   1.338
 6589TIP3   OH241325   4.931   6.861   1.239
 6589TIP3    H141326   4.898   6.843   1.329
 6589TIP3    H241327   4.998   6.792   1.227
 6590TIP3   OH241328   5.161   6.959   0.152
 6590TIP3    H141329   5.192   6.922   0.237
 6590TIP3    H241330   5.066   6.951   0.160
 6591TIP3   OH241331   4.020   6.047   1.431
 6591TIP3    H141332   3.929   6.081   1.427
 6591TIP3    H241333   4.007   5.960   1.474
 6592TIP3   OH241334   5.244   6.826   0.372
 6592TIP3    H141335   5.220   6.750   0.428
 6592TIP3    H241336   5.337   6.839   0.395
 6593TIP3   OH241337   3.982   7.223   1.269
 6593TIP3    H141338   4.008   7.131   1.275
 6593TIP3    H241339   4.001   7.253   1.360
 6594TIP3   OH241340   4.456   7.029   0.240
 6594TIP3    H141341   4.480   6.975   0.316
 6594TIP3    H241342   4.466   7.120   0.274
 6595TIP3   OH241343   4.104   6.757   0.287
 6595TIP3    H141344   4.039   6.796   0.349
 6595TIP3    H241345   4.161   6.833   0.266
 6596TIP3   OH241346   4.892   6.022   1.325
 6596TIP3    H141347   4.965   6.028   1.387
 6596TIP3    H241348   4.854   5.934   1.344
 6597TIP3   OH241349   4.966   5.982   0.435
 6597TIP3    H141350   4.991   6.028   0.352
 6597TIP3    H241351   5.025   6.025   0.497
 6598TIP3   OH241352   4.737   7.198   0.319
 6598TIP3    H141353   4.653   7.246   0.321
 6598TIP3    H241354   4.790   7.246   0.252
 6599TIP3   OH241355   4.688   6.155   0.513
 6599TIP3    H141356   4.768   6.211   0.516
 6599TIP3    H241357   4.662   6.142   0.606
 6600TIP3   OH241358   4.745   6.258   1.431
 6600TIP3    H141359   4.751   6.314   1.510
 6600TIP3    H241360   4.811   6.188   1.443
 6601TIP3   OH241361   4.775   5.861   0.603
 6601TIP3    H141362   4.743   5.926   0.668
 6601TIP3    H241363   4.844   5.916   0.558
 6602TIP3   OH241364   4.475  -0.001   0.315
 6602TIP3    H141365   4.487   0.082   0.268
 6602TIP3    H241366   4.452   0.031   0.404
 6603TIP3   OH241367   4.341   5.970   0.279
 6603TIP3    H141368   4.335   6.062   0.312
 6603TIP3    H241369   4.433   5.948   0.304
 6604TIP3   OH241370   5.363   6.045   1.519
 6604TIP3    H141371   5.271   6.076   1.506
 6604TIP3    H241372   5.394   6.043   1.427
 6605TIP3   OH241373   5.218   6.423   0.925
 6605TIP3    H141374   5.152   6.364   0.886
 6605TIP3    H241375   5.277   6.356   0.971
 6606TIP3   OH241376   4.165   7.016   0.180
 6606TIP3    H141377   4.231   7.080   0.208
 6606TIP3    H241378   4.216   6.971   0.110
 6607TIP3   OH241379   4.003   6.283   0.099
 6607TIP3    H141380   4.000   6.379   0.110
 6607TIP3    H241381   3.916   6.263   0.063
 6608TIP3   OH241382   4.080   5.761   0.967
 6608TIP3    H141383   4.060   5.763   0.871
 6608TIP3    H241384   4.038   5.677   0.992
 6609TIP3   OH241385   3.977   7.153   0.578
 6609TIP3    H141386   3.891   7.196   0.579
 6609TIP3    H241387   4.027   7.203   0.512
 6610TIP3   OH241388   4.388   7.276   1.893
 6610TIP3    H141389   4.476   7.244   1.911
 6610TIP3    H241390   4.382   7.265   1.796
 6611TIP3   OH241391   4.809   7.280   0.076
 6611TIP3    H141392   4.728   7.227   0.062
 6611TIP3    H241393   4.860   7.234   0.008
 6612TIP3   OH241394   5.019   7.119   1.732
 6612TIP3    H141395   4.976   7.046   1.779
 6612TIP3    H241396   5.082   7.154   1.796
 6613TIP3   OH241397   5.230   7.234   0.033
 6613TIP3    H141398   5.258   7.157   0.083
 6613TIP3    H241399   5.311   7.250  -0.019
 6614TIP3   OH241400   3.882   6.789   1.815
 6614TIP3    H141401   3.908   6.706   1.772
 6614TIP3    H241402   3.817   6.824   1.752
 6615TIP3   OH241403   4.331   6.836   0.027
 6615TIP3    H141404   4.337   6.752   0.073
 6615TIP3    H241405   4.387   6.815  -0.051
 6616TIP3   OH241406   4.559   6.795   1.746
 6616TIP3    H141407   4.522   6.824   1.661
 6616TIP3    H241408   4.566   6.696   1.736
 6617TIP3   OH241409   5.129   6.781   1.488
 6617TIP3    H141410   5.207   6.840   1.479
 6617TIP3    H241411   5.058   6.846   1.490
 6618TIP3   OH241412   3.972   6.517   1.753
 6618TIP3    H141413   4.022   6.436   1.736
 6618TIP3    H241414   3.955   6.514   1.847
 6619TIP3   OH241415   4.445   6.634   0.254
 6619TIP3    H141416   4.394   6.581   0.317
 6619TIP3    H241417   4.474   6.564   0.190
 6620TIP3   OH241418   4.391   6.406   1.486
 6620TIP3    H141419   4.319   6.470   1.512
 6620TIP3    H241420   4.410   6.448   1.401
 6621TIP3   OH241421   4.551   6.456   0.074
 6621TIP3    H141422   4.539   6.436  -0.020
 6621TIP3    H241423   4.649   6.463   0.084
 6622TIP3   OH241424   4.876   6.673   1.823
 6622TIP3    H141425   4.971   6.667   1.802
 6622TIP3    H241426   4.859   6.592   1.872
 6623TIP3   OH241427   5.471   6.701   8.526
 6623TIP3    H141428   5.458   6.651   8.444
 6623TIP3    H241429   5.490   6.791   8.496
 6624TIP3   OH241430   4.408   6.152   1.591
 6624TIP3    H141431   4.421   6.081   1.525
 6624TIP3    H241432   4.406   6.233   1.535
 6625TIP3   OH241433   4.450   5.989   1.345
 6625TIP3    H141434   4.501   6.035   1.275
 6625TIP3    H241435   4.361   5.980   1.305
 6626TIP3   OH241436   4.605   6.538   1.370
 6626TIP3    H141437   4.679   6.521   1.312
 6626TIP3    H241438   4.567   6.621   1.336
 6627TIP3   OH241439   5.045   6.312   1.871
 6627TIP3    H141440   5.068   6.220   1.852
 6627TIP3    H241441   5.131   6.357   1.862
 6628TIP3   OH241442   5.177   6.593   1.679
 6628TIP3    H141443   5.153   6.666   1.618
 6628TIP3    H241444   5.273   6.591   1.664
 6629TIP3   OH241445   4.255   6.275   1.785
 6629TIP3    H141446   4.178   6.218   1.765
 6629TIP3    H241447   4.319   6.241   1.721
 6630TIP3   OH241448   4.529   5.733   1.381
 6630TIP3    H141449   4.511   5.830   1.375
 6630TIP3    H241450   4.453   5.697   1.333
 6631TIP3   OH241451   4.657   6.164   1.745
 6631TIP3    H141452   4.622   6.143   1.833
 6631TIP3    H241453   4.576   6.145   1.692
 6632TIP3   OH241454   4.929   6.082   1.658
 6632TIP3    H141455   4.831   6.084   1.664
 6632TIP3    H241456   4.953   6.012   1.720
 6633TIP3   OH241457   5.094   5.943   1.853
 6633TIP3    H141458   5.076   5.848   1.842
 6633TIP3    H241459   5.053   5.967   1.936
 6634TIP3   OH241460   4.072   6.069   1.756
 6634TIP3    H141461   4.092   5.995   1.696
 6634TIP3    H241462   4.053   6.024   1.839
 6635TIP3   OH241463   4.545   5.667   1.656
 6635TIP3    H141464   4.619   5.603   1.655
 6635TIP3    H241465   4.540   5.688   1.561
 6636TIP3   OH241466   3.892   6.988   0.125
 6636TIP3    H141467   3.987   6.994   0.152
 6636TIP3    H241468   3.898   6.921   0.056
 6637TIP3   OH241469   5.406   6.945   1.870
 6637TIP3    H141470   5.317   6.943   1.906
 6637TIP3    H241471   5.443   7.027   1.910
 6638TIP3   OH241472   5.538   6.775   0.410
 6638TIP3    H141473   5.620   6.820   0.433
 6638TIP3    H241474   5.535   6.705   0.480
 6639TIP3   OH241475   5.573   6.586   0.599
 6639TIP3    H141476   5.499   6.534   0.637
 6639TIP3    H241477   5.632   6.599   0.676
 6640TIP3   OH241478   5.549   6.855   1.101
 6640TIP3    H141479   5.629   6.818   1.061
 6640TIP3    H241480   5.562   6.951   1.083
 6641TIP3   OH241481   5.400   7.144   1.330
 6641TIP3    H141482   5.330   7.181   1.385
 6641TIP3    H241483   5.349   7.108   1.254
 6642TIP3   OH241484   5.602   6.567   0.239
 6642TIP3    H141485   5.544   6.605   0.170
 6642TIP3    H241486   5.595   6.639   0.306
 6643TIP3   OH241487   5.403   6.295   0.100
 6643TIP3    H141488   5.446   6.354   0.035
 6643TIP3    H241489   5.420   6.212   0.052
 6644TIP3   OH241490   5.351   6.434   0.657
 6644TIP3    H141491   5.341   6.337   0.652
 6644TIP3    H241492   5.324   6.455   0.747
 6645TIP3   OH241493   3.854   6.641   1.062
 6645TIP3    H141494   3.874   6.634   0.966
 6645TIP3    H241495   3.943   6.626   1.100
 6646TIP3   OH241496   5.439   6.630   1.626
 6646TIP3    H141497   5.500   6.555   1.642
 6646TIP3    H241498   5.500   6.706   1.624
 6647TIP3   OH241499   5.589   6.418   1.689
 6647TIP3    H141500   5.502   6.378   1.674
 6647TIP3    H241501   5.648   6.341   1.684
 6648TIP3   OH241502   5.364   6.032   0.001
 6648TIP3    H141503   5.422   5.992   0.069
 6648TIP3    H241504   5.275   5.998   0.023
 6649TIP3   OH241505   5.321   6.191   0.504
 6649TIP3    H141506   5.352   6.099   0.515
 6649TIP3    H241507   5.399   6.232   0.464
 6650TIP3   OH241508   5.383   6.249   1.046
 6650TIP3    H141509   5.481   6.268   1.045
 6650TIP3    H241510   5.367   6.258   1.142
 6651TIP3   OH241511   5.390   6.319   1.321
 6651TIP3    H141512   5.304   6.347   1.359
 6651TIP3    H241513   5.436   6.404   1.304
 6652TIP3   OH241514   3.817   6.168   1.670
 6652TIP3    H141515   3.909   6.152   1.700
 6652TIP3    H241516   3.770   6.092   1.710
 6653TIP3   OH241517   5.625   5.724   1.860
 6653TIP3    H141518   5.652   5.656   1.798
 6653TIP3    H241519   5.626   5.805   1.805
 6654TIP3   OH241520   5.388   5.919   0.507
 6654TIP3    H141521   5.409   5.875   0.593
 6654TIP3    H241522   5.327   5.856   0.463
 6655TIP3   OH241523   3.936   6.001   0.963
 6655TIP3    H141524   3.983   5.918   0.989
 6655TIP3    H241525   3.991   6.070   1.002
 6656TIP3   OH241526   3.765   6.300   1.067
 6656TIP3    H141527   3.821   6.276   0.990
 6656TIP3    H241528   3.811   6.382   1.095
 6657TIP3   OH241529   5.573   5.933   1.696
 6657TIP3    H141530   5.479   5.960   1.689
 6657TIP3    H241531   5.576   5.878   1.616
 6658TIP3   OH241532   5.570   5.926   0.164
 6658TIP3    H141533   5.612   5.856   0.112
 6658TIP3    H241534   5.642   5.991   0.165
 6659TIP3   OH241535   3.801   5.926   0.473
 6659TIP3    H141536   3.707   5.946   0.461
 6659TIP3    H241537   3.843   5.976   0.401
 6660TIP3   OH241538   3.797   5.793   1.304
 6660TIP3    H141539   3.729   5.773   1.372
 6660TIP3    H241540   3.751   5.860   1.250
 6661TIP3   OH241541   4.021   7.125   1.725
 6661TIP3    H141542   3.937   7.128   1.674
 6661TIP3    H241543   3.992   7.101   1.813
 6662TIP3   OH241544   4.315   7.214   1.353
 6662TIP3    H141545   4.270   7.291   1.317
 6662TIP3    H241546   4.402   7.213   1.310
 6663TIP3   OH241547   5.474   5.744   1.478
 6663TIP3    H141548   5.390   5.772   1.440
 6663TIP3    H241549   5.490   5.661   1.428
 6664TIP3   OH241550   4.230   7.248   0.885
 6664TIP3    H141551   4.191   7.172   0.930
 6664TIP3    H241552   4.288   7.284   0.954
 6665TIP3   OH241553   4.812   5.886   0.908
 6665TIP3    H141554   4.744   5.822   0.936
 6665TIP3    H241555   4.867   5.833   0.850
 6666TIP3   OH241556   5.325   5.691   0.916
 6666TIP3    H141557   5.387   5.750   0.865
 6666TIP3    H241558   5.237   5.727   0.892
 6667TIP3   OH241559   5.492   5.815   0.744
 6667TIP3    H141560   5.561   5.758   0.701
 6667TIP3    H241561   5.542   5.899   0.753
 6668TIP3   OH241562   4.048   5.749   0.693
 6668TIP3    H141563   3.969   5.728   0.640
 6668TIP3    H241564   4.095   5.663   0.688
 6669TIP3   OH241565   3.923   5.724   0.266
 6669TIP3    H141566   3.974   5.788   0.211
 6669TIP3    H241567   3.869   5.782   0.321
 6670TIP3   OH241568   4.497   5.741   0.672
 6670TIP3    H141569   4.586   5.777   0.665
 6670TIP3    H241570   4.492   5.719   0.765
 6671TIP3   OH241571   5.066   5.743   0.835
 6671TIP3    H141572   5.063   5.754   0.739
 6671TIP3    H241573   5.029   5.653   0.847
 6672TIP3   OH241574   5.194   5.746   0.400
 6672TIP3    H141575   5.120   5.806   0.385
 6672TIP3    H241576   5.150   5.660   0.422
 6673TIP3   OH241577   4.108   5.911   0.119
 6673TIP3    H141578   4.163   5.856   0.063
 6673TIP3    H241579   4.174   5.952   0.178
 6674TIP3   OH241580   4.612   5.943   0.357
 6674TIP3    H141581   4.637   5.885   0.431
 6674TIP3    H241582   4.617   6.030   0.404
 6675TIP3   OH241583   4.038   5.802   1.638
 6675TIP3    H141584   4.000   5.725   1.682
 6675TIP3    H241585   4.128   5.801   1.677
 6676TIP3   OH241586   4.239   5.738   1.799
 6676TIP3    H141587   4.329   5.707   1.775
 6676TIP3    H241588   4.206   5.658   1.840
 6677TIP3   OH241589   5.081   5.672   1.812
 6677TIP3    H141590   5.080   5.621   1.895
 6677TIP3    H241591   5.170   5.666   1.778
 6678TIP3   OH241592   5.387  -0.034   1.692
 6678TIP3    H141593   5.317  -0.045   1.627
 6678TIP3    H241594   5.393   0.063   1.701
 6679TIP3   OH241595   6.841   6.661   0.681
 6679TIP3    H141596   6.845   6.759   0.675
 6679TIP3    H241597   6.770   6.639   0.618
 6680TIP3   OH241598   6.725   6.590   1.030
 6680TIP3    H141599   6.729   6.523   1.100
 6680TIP3    H241600   6.699   6.537   0.952
 6681TIP3   OH241601   5.964   6.555   1.184
 6681TIP3    H141602   5.972   6.487   1.254
 6681TIP3    H241603   6.039   6.613   1.206
 6682TIP3   OH241604   7.094   6.885   0.855
 6682TIP3    H141605   7.062   6.810   0.905
 6682TIP3    H241606   7.103   6.953   0.924
 6683TIP3   OH241607   6.058   7.000   1.038
 6683TIP3    H141608   6.025   6.915   1.003
 6683TIP3    H241609   6.154   6.981   1.039
 6684TIP3   OH241610   5.721   6.356   0.583
 6684TIP3    H141611   5.677   6.444   0.577
 6684TIP3    H241612   5.664   6.303   0.526
 6685TIP3   OH241613   5.791   6.579   0.797
 6685TIP3    H141614   5.818   6.497   0.843
 6685TIP3    H241615   5.862   6.589   0.731
 6686TIP3   OH241616   6.565   6.827   1.076
 6686TIP3    H141617   6.600   6.765   1.011
 6686TIP3    H241618   6.646   6.846   1.127
 6687TIP3   OH241619   6.871   6.270   1.109
 6687TIP3    H141620   6.902   6.178   1.104
 6687TIP3    H241621   6.878   6.293   1.014
 6688TIP3   OH241622   6.195   6.084   0.829
 6688TIP3    H141623   6.205   6.168   0.780
 6688TIP3    H241624   6.154   6.026   0.760
 6689TIP3   OH241625   6.972   6.092   0.665
 6689TIP3    H141626   7.036   6.064   0.735
 6689TIP3    H241627   7.027   6.152   0.613
 6690TIP3   OH241628   5.857   6.325   0.903
 6690TIP3    H141629   5.924   6.270   0.948
 6690TIP3    H241630   5.867   6.293   0.811
 6691TIP3   OH241631   6.373   6.480   0.833
 6691TIP3    H141632   6.440   6.422   0.874
 6691TIP3    H241633   6.321   6.414   0.784
 6692TIP3   OH241634   6.085   5.974   1.233
 6692TIP3    H141635   6.057   6.031   1.159
 6692TIP3    H241636   6.017   5.997   1.301
 6693TIP3   OH241637   6.815   6.920   0.587
 6693TIP3    H141638   6.788   6.895   0.498
 6693TIP3    H241639   6.783   7.013   0.593
 6694TIP3   OH241640   6.337   6.737   1.259
 6694TIP3    H141641   6.266   6.801   1.279
 6694TIP3    H241642   6.407   6.796   1.229
 6695TIP3   OH241643   7.122   6.016   0.875
 6695TIP3    H141644   7.119   5.942   0.936
 6695TIP3    H241645   7.194   6.070   0.918
 6696TIP3   OH241646   6.041   6.160   1.036
 6696TIP3    H141647   6.104   6.228   1.068
 6696TIP3    H241648   6.094   6.118   0.963
 6697TIP3   OH241649   6.181   6.939   1.340
 6697TIP3    H141650   6.176   7.028   1.301
 6697TIP3    H241651   6.092   6.930   1.381
 6698TIP3   OH241652   5.787   6.905   0.419
 6698TIP3    H141653   5.765   6.935   0.328
 6698TIP3    H241654   5.795   6.988   0.469
 6699TIP3   OH241655   7.131   7.063   1.108
 6699TIP3    H141656   7.034   7.080   1.110
 6699TIP3    H241657   7.172   7.145   1.073
 6700TIP3   OH241658   7.163   5.906   1.205
 6700TIP3    H141659   7.095   5.974   1.224
 6700TIP3    H241660   7.240   5.957   1.179
 6701TIP3   OH241661   6.480   5.707   0.979
 6701TIP3    H141662   6.466   5.610   0.973
 6701TIP3    H241663   6.392   5.737   1.010
 6702TIP3   OH241664   6.981   7.216   0.735
 6702TIP3    H141665   7.037   7.154   0.686
 6702TIP3    H241666   7.018   7.301   0.712
 6703TIP3   OH241667   7.100   7.031   0.602
 6703TIP3    H141668   7.067   6.963   0.543
 6703TIP3    H241669   7.102   6.985   0.688
 6704TIP3   OH241670   7.234   6.912   1.465
 6704TIP3    H141671   7.261   6.841   1.403
 6704TIP3    H241672   7.279   6.986   1.421
 6705TIP3   OH241673   6.708   6.587   0.430
 6705TIP3    H141674   6.639   6.644   0.391
 6705TIP3    H241675   6.779   6.595   0.364
 6706TIP3   OH241676   6.714   6.439   0.138
 6706TIP3    H141677   6.787   6.439   0.202
 6706TIP3    H241678   6.747   6.375   0.074
 6707TIP3   OH241679   7.048   6.612   0.519
 6707TIP3    H141680   6.978   6.634   0.584
 6707TIP3    H241681   7.097   6.545   0.573
 6708TIP3   OH241682   7.047   6.425   1.433
 6708TIP3    H141683   7.042   6.506   1.487
 6708TIP3    H241684   6.985   6.452   1.362
 6709TIP3   OH241685   6.215   6.673   0.714
 6709TIP3    H141686   6.183   6.634   0.630
 6709TIP3    H241687   6.276   6.604   0.748
 6710TIP3   OH241688   6.347   7.014   0.983
 6710TIP3    H141689   6.346   6.959   0.903
 6710TIP3    H241690   6.424   6.977   1.029
 6711TIP3   OH241691   6.248   6.548   1.080
 6711TIP3    H141692   6.303   6.558   1.000
 6711TIP3    H241693   6.286   6.614   1.142
 6712TIP3   OH241694   6.883   7.105   1.151
 6712TIP3    H141695   6.858   7.167   1.217
 6712TIP3    H241696   6.862   7.018   1.193
 6713TIP3   OH241697   6.341   6.991   1.553
 6713TIP3    H141698   6.302   7.068   1.598
 6713TIP3    H241699   6.277   6.968   1.480
 6714TIP3   OH241700   6.942   6.524   0.290
 6714TIP3    H141701   6.995   6.547   0.371
 6714TIP3    H241702   6.979   6.580   0.221
 6715TIP3   OH241703   6.036   6.610   1.466
 6715TIP3    H141704   6.041   6.673   1.539
 6715TIP3    H241705   5.942   6.617   1.444
 6716TIP3   OH241706   6.707   7.196   0.640
 6716TIP3    H141707   6.760   7.231   0.712
 6716TIP3    H241708   6.658   7.274   0.610
 6717TIP3   OH241709   6.164   7.191   1.621
 6717TIP3    H141710   6.163   7.179   1.524
 6717TIP3    H241711   6.076   7.168   1.653
 6718TIP3   OH241712   6.111   6.576   0.476
 6718TIP3    H141713   6.084   6.654   0.423
 6718TIP3    H241714   6.046   6.510   0.453
 6719TIP3   OH241715   5.721   6.820   1.365
 6719TIP3    H141716   5.677   6.811   1.278
 6719TIP3    H241717   5.728   6.725   1.388
 6720TIP3   OH241718   5.699   7.088   1.047
 6720TIP3    H141719   5.795   7.082   1.037
 6720TIP3    H241720   5.689   7.171   1.095
 6721TIP3   OH241721   6.615   7.118   1.499
 6721TIP3    H141722   6.625   7.199   1.550
 6721TIP3    H241723   6.529   7.079   1.526
 6722TIP3   OH241724   7.190   6.327   1.661
 6722TIP3    H141725   7.182   6.361   1.571
 6722TIP3    H241726   7.239   6.242   1.643
 6723TIP3   OH241727   5.945   6.958   1.464
 6723TIP3    H141728   5.972   6.909   1.545
 6723TIP3    H241729   5.865   6.908   1.434
 6724TIP3   OH241730   6.217   5.797   1.055
 6724TIP3    H141731   6.126   5.785   1.018
 6724TIP3    H241732   6.204   5.880   1.103
 6725TIP3   OH241733   6.681   5.764   1.391
 6725TIP3    H141734   6.720   5.723   1.470
 6725TIP3    H241735   6.584   5.752   1.405
 6726TIP3   OH241736   7.005   6.144   1.477
 6726TIP3    H141737   6.954   6.127   1.559
 6726TIP3    H241738   6.994   6.239   1.461
 6727TIP3   OH241739   7.099   6.625   0.069
 6727TIP3    H141740   7.095   6.616  -0.027
 6727TIP3    H241741   7.175   6.683   0.079
 6728TIP3   OH241742   6.644   6.021   0.125
 6728TIP3    H141743   6.614   6.016   0.218
 6728TIP3    H241744   6.618   5.933   0.096
 6729TIP3   OH241745   6.227   6.294   1.179
 6729TIP3    H141746   6.153   6.293   1.243
 6729TIP3    H241747   6.223   6.385   1.143
 6730TIP3   OH241748   6.223   6.307   0.666
 6730TIP3    H141749   6.129   6.281   0.653
 6730TIP3    H241750   6.261   6.277   0.581
 6731TIP3   OH241751   6.777   6.356   0.542
 6731TIP3    H141752   6.734   6.439   0.509
 6731TIP3    H241753   6.845   6.341   0.474
 6732TIP3   OH241754   6.685   6.377   1.687
 6732TIP3    H141755   6.629   6.302   1.719
 6732TIP3    H241756   6.766   6.364   1.739
 6733TIP3   OH241757   6.865   6.302   0.826
 6733TIP3    H141758   6.854   6.363   0.751
 6733TIP3    H241759   6.889   6.220   0.781
 6734TIP3   OH241760   5.989   6.321   1.349
 6734TIP3    H141761   5.997   6.360   1.438
 6734TIP3    H241762   5.945   6.236   1.369
 6735TIP3   OH241763   6.344   6.081   0.065
 6735TIP3    H141764   6.289   6.018   0.117
 6735TIP3    H241765   6.283   6.117   0.001
 6736TIP3   OH241766   5.655   6.031   0.746
 6736TIP3    H141767   5.723   6.028   0.816
 6736TIP3    H241768   5.700   5.993   0.668
 6737TIP3   OH241769   5.785   6.104   0.283
 6737TIP3    H141770   5.833   6.163   0.222
 6737TIP3    H241771   5.715   6.165   0.315
 6738TIP3   OH241772   6.799   6.464   1.283
 6738TIP3    H141773   6.837   6.396   1.224
 6738TIP3    H241774   6.752   6.410   1.350
 6739TIP3   OH241775   6.478   6.061   0.767
 6739TIP3    H141776   6.384   6.062   0.797
 6739TIP3    H241777   6.527   6.045   0.849
 6740TIP3   OH241778   5.960   6.217   0.654
 6740TIP3    H141779   5.871   6.232   0.615
 6740TIP3    H241780   5.988   6.134   0.613
 6741TIP3   OH241781   6.324   6.223   0.417
 6741TIP3    H141782   6.420   6.233   0.434
 6741TIP3    H241783   6.301   6.288   0.348
 6742TIP3   OH241784   6.915   5.980   1.091
 6742TIP3    H141785   6.848   5.991   1.162
 6742TIP3    H241786   6.863   5.963   1.011
 6743TIP3   OH241787   6.194   6.339   0.176
 6743TIP3    H141788   6.138   6.304   0.104
 6743TIP3    H241789   6.276   6.360   0.130
 6744TIP3   OH241790   6.008   6.804   1.679
 6744TIP3    H141791   6.078   6.820   1.743
 6744TIP3    H241792   5.929   6.806   1.739
 6745TIP3   OH241793   6.606   6.337   0.955
 6745TIP3    H141794   6.668   6.284   0.903
 6745TIP3    H241795   6.594   6.283   1.035
 6746TIP3   OH241796   6.108   5.952   0.601
 6746TIP3    H141797   6.077   5.859   0.598
 6746TIP3    H241798   6.187   5.946   0.545
 6747TIP3   OH241799   6.471   6.170   1.198
 6747TIP3    H141800   6.389   6.222   1.207
 6747TIP3    H241801   6.526   6.205   1.270
 6748TIP3   OH241802   6.531   6.791   0.369
 6748TIP3    H141803   6.450   6.745   0.335
 6748TIP3    H241804   6.508   6.802   0.464
 6749TIP3   OH241805   7.216   6.714   1.249
 6749TIP3    H141806   7.291   6.727   1.184
 6749TIP3    H241807   7.142   6.714   1.186
 6750TIP3   OH241808   6.917   6.072   0.188
 6750TIP3    H141809   6.823   6.085   0.169
 6750TIP3    H241810   6.945   6.161   0.217
 6751TIP3   OH241811   6.678   6.820   1.490
 6751TIP3    H141812   6.645   6.777   1.571
 6751TIP3    H241813   6.657   6.912   1.501
 6752TIP3   OH241814   6.988   6.267   0.348
 6752TIP3    H141815   7.075   6.255   0.391
 6752TIP3    H241816   6.995   6.351   0.301
 6753TIP3   OH241817   6.040   6.731   0.947
 6753TIP3    H141818   6.110   6.724   0.879
 6753TIP3    H241819   6.047   6.645   0.993
 6754TIP3   OH241820   6.738   6.939   0.270
 6754TIP3    H141821   6.705   7.023   0.307
 6754TIP3    H241822   6.665   6.878   0.291
 6755TIP3   OH241823   5.740   6.573   1.473
 6755TIP3    H141824   5.757   6.529   1.559
 6755TIP3    H241825   5.678   6.510   1.431
 6756TIP3   OH241826   6.440   6.531   1.689
 6756TIP3    H141827   6.412   6.497   1.603
 6756TIP3    H241828   6.531   6.496   1.698
 6757TIP3   OH241829   6.909   7.066   1.481
 6757TIP3    H141830   6.815   7.075   1.461
 6757TIP3    H241831   6.906   7.086   1.577
 6758TIP3   OH241832   7.019   6.643   1.079
 6758TIP3    H141833   6.927   6.618   1.062
 6758TIP3    H241834   7.068   6.570   1.035
 6759TIP3   OH241835   6.281   7.074   0.678
 6759TIP3    H141836   6.328   7.158   0.668
 6759TIP3    H241837   6.190   7.098   0.657
 6760TIP3   OH241838   5.851   6.563   0.139
 6760TIP3    H141839   5.913   6.625   0.181
 6760TIP3    H241840   5.764   6.592   0.172
 6761TIP3   OH241841   6.422   6.842   0.639
 6761TIP3    H141842   6.391   6.935   0.646
 6761TIP3    H241843   6.348   6.795   0.682
 6762TIP3   OH241844   6.493   7.232   1.250
 6762TIP3    H141845   6.509   7.327   1.241
 6762TIP3    H241846   6.526   7.217   1.339
 6763TIP3   OH241847   6.822   6.864   1.243
 6763TIP3    H141848   6.783   6.840   1.329
 6763TIP3    H241849   6.882   6.791   1.223
 6764TIP3   OH241850   7.049   6.961   0.150
 6764TIP3    H141851   7.080   6.923   0.235
 6764TIP3    H241852   6.952   6.951   0.158
 6765TIP3   OH241853   5.905   6.047   1.432
 6765TIP3    H141854   5.814   6.080   1.425
 6765TIP3    H241855   5.892   5.959   1.472
 6766TIP3   OH241856   7.133   6.824   0.369
 6766TIP3    H141857   7.106   6.751   0.430
 6766TIP3    H241858   7.223   6.843   0.399
 6767TIP3   OH241859   5.864   7.220   1.272
 6767TIP3    H141860   5.895   7.129   1.270
 6767TIP3    H241861   5.890   7.255   1.356
 6768TIP3   OH241862   6.342   7.029   0.240
 6768TIP3    H141863   6.366   6.975   0.316
 6768TIP3    H241864   6.351   7.120   0.274
 6769TIP3   OH241865   5.990   6.756   0.288
 6769TIP3    H141866   5.924   6.796   0.348
 6769TIP3    H241867   6.046   6.833   0.265
 6770TIP3   OH241868   6.775   6.021   1.326
 6770TIP3    H141869   6.850   6.029   1.386
 6770TIP3    H241870   6.738   5.934   1.345
 6771TIP3   OH241871   6.859   5.977   0.434
 6771TIP3    H141872   6.878   6.028   0.352
 6771TIP3    H241873   6.910   6.027   0.498
 6772TIP3   OH241874   6.623   7.198   0.319
 6772TIP3    H141875   6.539   7.246   0.321
 6772TIP3    H241876   6.676   7.246   0.252
 6773TIP3   OH241877   6.575   6.155   0.514
 6773TIP3    H141878   6.654   6.213   0.518
 6773TIP3    H241879   6.548   6.143   0.607
 6774TIP3   OH241880   6.633   6.258   1.433
 6774TIP3    H141881   6.641   6.314   1.513
 6774TIP3    H241882   6.698   6.187   1.445
 6775TIP3   OH241883   6.657   5.862   0.602
 6775TIP3    H141884   6.629   5.927   0.668
 6775TIP3    H241885   6.728   5.915   0.558
 6776TIP3   OH241886   6.361  -0.001   0.315
 6776TIP3    H141887   6.373   0.082   0.268
 6776TIP3    H241888   6.337   0.031   0.404
 6777TIP3   OH241889   6.227   5.970   0.279
 6777TIP3    H141890   6.221   6.061   0.312
 6777TIP3    H241891   6.319   5.948   0.304
 6778TIP3   OH241892   7.237   6.022   1.500
 6778TIP3    H141893   7.154   6.075   1.503
 6778TIP3    H241894   7.278   6.051   1.418
 6779TIP3   OH241895   7.062   6.396   0.969
 6779TIP3    H141896   7.023   6.369   0.885
 6779TIP3    H241897   7.150   6.357   0.965
 6780TIP3   OH241898   6.052   7.014   0.183
 6780TIP3    H141899   6.116   7.081   0.207
 6780TIP3    H241900   6.101   6.972   0.109
 6781TIP3   OH241901   5.889   6.283   0.099
 6781TIP3    H141902   5.886   6.380   0.110
 6781TIP3    H241903   5.802   6.263   0.063
 6782TIP3   OH241904   5.966   5.761   0.967
 6782TIP3    H141905   5.946   5.763   0.871
 6782TIP3    H241906   5.924   5.677   0.992
 6783TIP3   OH241907   5.863   7.154   0.578
 6783TIP3    H141908   5.776   7.197   0.578
 6783TIP3    H241909   5.912   7.203   0.511
 6784TIP3   OH241910   6.270   7.266   1.889
 6784TIP3    H141911   6.362   7.242   1.906
 6784TIP3    H241912   6.270   7.265   1.791
 6785TIP3   OH241913   6.691   7.280   0.077
 6785TIP3    H141914   6.612   7.226   0.062
 6785TIP3    H241915   6.743   7.234   0.009
 6786TIP3   OH241916   6.907   7.116   1.735
 6786TIP3    H141917   6.865   7.045   1.782
 6786TIP3    H241918   6.972   7.152   1.799
 6787TIP3   OH241919   7.119   7.239   0.035
 6787TIP3    H141920   7.138   7.157   0.085
 6787TIP3    H241921   7.196   7.248  -0.013
 6788TIP3   OH241922   5.777   6.796   1.804
 6788TIP3    H141923   5.789   6.704   1.776
 6788TIP3    H241924   5.698   6.824   1.755
 6789TIP3   OH241925   6.217   6.836   0.027
 6789TIP3    H141926   6.222   6.752   0.073
 6789TIP3    H241927   6.273   6.815  -0.051
 6790TIP3   OH241928   6.447   6.797   1.745
 6790TIP3    H141929   6.410   6.823   1.659
 6790TIP3    H241930   6.454   6.697   1.739
 6791TIP3   OH241931   7.014   6.778   1.489
 6791TIP3    H141932   7.092   6.839   1.479
 6791TIP3    H241933   6.944   6.845   1.492
 6792TIP3   OH241934   5.861   6.521   1.746
 6792TIP3    H141935   5.904   6.436   1.735
 6792TIP3    H241936   5.839   6.521   1.841
 6793TIP3   OH241937   6.330   6.634   0.254
 6793TIP3    H141938   6.279   6.581   0.317
 6793TIP3    H241939   6.359   6.565   0.190
 6794TIP3   OH241940   6.254   6.413   1.483
 6794TIP3    H141941   6.196   6.486   1.510
 6794TIP3    H241942   6.294   6.450   1.402
 6795TIP3   OH241943   6.436   6.456   0.074
 6795TIP3    H141944   6.425   6.436  -0.020
 6795TIP3    H241945   6.534   6.463   0.084
 6796TIP3   OH241946   6.765   6.670   1.817
 6796TIP3    H141947   6.860   6.668   1.806
 6796TIP3    H241948   6.742   6.595   1.875
 6797TIP3   OH241949   6.293   6.152   1.591
 6797TIP3    H141950   6.307   6.080   1.526
 6797TIP3    H241951   6.291   6.232   1.535
 6798TIP3   OH241952   6.335   5.989   1.344
 6798TIP3    H141953   6.387   6.035   1.274
 6798TIP3    H241954   6.246   5.981   1.303
 6799TIP3   OH241955   6.489   6.537   1.369
 6799TIP3    H141956   6.565   6.521   1.312
 6799TIP3    H241957   6.454   6.621   1.336
 6800TIP3   OH241958   6.930   6.314   1.866
 6800TIP3    H141959   6.950   6.220   1.852
 6800TIP3    H241960   7.017   6.356   1.858
 6801TIP3   OH241961   7.066   6.596   1.681
 6801TIP3    H141962   7.036   6.665   1.617
 6801TIP3    H241963   7.159   6.587   1.660
 6802TIP3   OH241964   6.137   6.272   1.786
 6802TIP3    H141965   6.064   6.215   1.758
 6802TIP3    H241966   6.207   6.243   1.724
 6803TIP3   OH241967   6.414   5.733   1.384
 6803TIP3    H141968   6.397   5.829   1.374
 6803TIP3    H241969   6.339   5.696   1.335
 6804TIP3   OH241970   6.543   6.158   1.742
 6804TIP3    H141971   6.512   6.144   1.833
 6804TIP3    H241972   6.461   6.148   1.692
 6805TIP3   OH241973   6.810   6.079   1.651
 6805TIP3    H141974   6.714   6.084   1.666
 6805TIP3    H241975   6.841   6.017   1.719
 6806TIP3   OH241976   6.978   5.941   1.849
 6806TIP3    H141977   6.963   5.845   1.845
 6806TIP3    H241978   6.945   5.971   1.937
 6807TIP3   OH241979   5.951   6.068   1.758
 6807TIP3    H141980   5.975   5.997   1.695
 6807TIP3    H241981   5.941   6.019   1.840
 6808TIP3   OH241982   6.434   5.669   1.654
 6808TIP3    H141983   6.504   5.601   1.651
 6808TIP3    H241984   6.423   5.687   1.558
 6809TIP3   OH241985   6.470   5.831   1.865
 6809TIP3    H141986   6.457   5.783   1.779
 6809TIP3    H241987   6.415   5.910   1.851
 6810TIP3   OH241988   5.779   6.982   0.129
 6810TIP3    H141989   5.874   6.995   0.151
 6810TIP3    H241990   5.783   6.923   0.054
 6811TIP3   OH241991   7.277   7.138   1.336
 6811TIP3    H141992   7.209   7.183   1.386
 6811TIP3    H241993   7.230   7.103   1.257
 6812TIP3   OH241994   7.166   6.415   0.637
 6812TIP3    H141995   7.217   6.337   0.661
 6812TIP3    H241996   7.189   6.463   0.722
 6813TIP3   OH241997   5.740   6.642   1.063
 6813TIP3    H141998   5.758   6.633   0.966
 6813TIP3    H241999   5.830   6.624   1.098
 6814TIP3   OH242000   7.228   6.041   0.019
 6814TIP3    H142001   7.301   5.993   0.064
 6814TIP3    H242002   7.152   5.983   0.029
 6815TIP3   OH242003   7.206   6.183   0.488
 6815TIP3    H142004   7.237   6.099   0.525
 6815TIP3    H242005   7.287   6.224   0.455
 6816TIP3   OH242006  -0.050   6.161   1.043
 6816TIP3    H142007   0.036   6.203   1.032
 6816TIP3    H242008  -0.074   6.228   1.110
 6817TIP3   OH242009   7.279   6.324   1.353
 6817TIP3    H142010   7.185   6.351   1.357
 6817TIP3    H242011   7.315   6.392   1.292
 6818TIP3   OH242012   5.701   6.173   1.677
 6818TIP3    H142013   5.794   6.150   1.695
 6818TIP3    H242014   5.655   6.091   1.707
 6819TIP3   OH242015   7.185   5.883   0.574
 6819TIP3    H142016   7.282   5.890   0.578
 6819TIP3    H242017   7.183   5.852   0.481
 6820TIP3   OH242018   5.822   6.000   0.963
 6820TIP3    H142019   5.868   5.918   0.989
 6820TIP3    H242020   5.876   6.070   1.002
 6821TIP3   OH242021   5.651   6.300   1.067
 6821TIP3    H142022   5.707   6.276   0.991
 6821TIP3    H242023   5.696   6.381   1.094
 6822TIP3   OH242024   5.687   5.926   0.473
 6822TIP3    H142025   5.592   5.946   0.461
 6822TIP3    H242026   5.728   5.976   0.401
 6823TIP3   OH242027   5.682   5.794   1.303
 6823TIP3    H142028   5.615   5.773   1.371
 6823TIP3    H242029   5.635   5.861   1.249
 6824TIP3   OH242030   5.901   7.120   1.724
 6824TIP3    H142031   5.813   7.114   1.683
 6824TIP3    H242032   5.877   7.098   1.816
 6825TIP3   OH242033   6.198   7.213   1.356
 6825TIP3    H142034   6.157   7.291   1.316
 6825TIP3    H242035   6.285   7.210   1.312
 6826TIP3   OH242036   6.115   7.248   0.885
 6826TIP3    H142037   6.076   7.172   0.931
 6826TIP3    H242038   6.174   7.284   0.954
 6827TIP3   OH242039   6.696   5.886   0.909
 6827TIP3    H142040   6.629   5.821   0.936
 6827TIP3    H242041   6.751   5.834   0.850
 6828TIP3   OH242042   7.211   5.686   0.911
 6828TIP3    H142043   7.270   5.760   0.900
 6828TIP3    H242044   7.119   5.724   0.901
 6829TIP3   OH242045   5.934   5.749   0.693
 6829TIP3    H142046   5.855   5.728   0.640
 6829TIP3    H242047   5.981   5.663   0.688
 6830TIP3   OH242048   5.809   5.724   0.266
 6830TIP3    H142049   5.859   5.788   0.211
 6830TIP3    H242050   5.754   5.782   0.321
 6831TIP3   OH242051   6.382   5.741   0.672
 6831TIP3    H142052   6.472   5.777   0.665
 6831TIP3    H242053   6.377   5.719   0.765
 6832TIP3   OH242054   6.961   5.737   0.832
 6832TIP3    H142055   6.943   5.757   0.739
 6832TIP3    H242056   6.911   5.652   0.847
 6833TIP3   OH242057   7.078   5.739   0.391
 6833TIP3    H142058   7.006   5.804   0.383
 6833TIP3    H242059   7.029   5.658   0.418
 6834TIP3   OH242060   5.994   5.911   0.119
 6834TIP3    H142061   6.049   5.856   0.063
 6834TIP3    H242062   6.060   5.952   0.178
 6835TIP3   OH242063   6.498   5.943   0.357
 6835TIP3    H142064   6.523   5.885   0.431
 6835TIP3    H242065   6.503   6.030   0.404
 6836TIP3   OH242066   5.922   5.805   1.643
 6836TIP3    H142067   5.883   5.724   1.679
 6836TIP3    H242068   6.015   5.797   1.675
 6837TIP3   OH242069   6.125   5.739   1.798
 6837TIP3    H142070   6.215   5.708   1.777
 6837TIP3    H242071   6.091   5.662   1.844
 6838TIP3   OH242072   6.967   5.669   1.815
 6838TIP3    H142073   6.977   5.631   1.901
 6838TIP3    H242074   7.057   5.673   1.776
 6839TIP3   OH242075   7.277  -0.030   1.692
 6839TIP3    H142076   7.206  -0.047   1.630
 6839TIP3    H242077   7.277   0.066   1.700
 6840TIP3   OH242078   1.058   0.780   2.014
 6840TIP3    H142079   1.127   0.787   2.083
 6840TIP3    H242080   1.097   0.715   1.955
 6841TIP3   OH242081   1.282   0.870   2.177
 6841TIP3    H142082   1.341   0.881   2.253
 6841TIP3    H242083   1.327   0.916   2.103
 6842TIP3   OH242084   1.679   0.059   2.174
 6842TIP3    H142085   1.585   0.059   2.195
 6842TIP3    H242086   1.687   0.140   2.121
 6843TIP3   OH242087   1.769   1.481   1.993
 6843TIP3    H142088   1.782   1.574   2.018
 6843TIP3    H242089   1.860   1.447   2.000
 6844TIP3   OH242090   1.428   0.975   1.949
 6844TIP3    H142091   1.431   0.952   1.854
 6844TIP3    H242092   1.515   1.017   1.960
 6845TIP3   OH242093   0.986   0.362   2.007
 6845TIP3    H142094   0.961   0.360   2.099
 6845TIP3    H242095   0.958   0.273   1.978
 6846TIP3   OH242096   0.672   0.404   1.921
 6846TIP3    H142097   0.625   0.360   1.991
 6846TIP3    H242098   0.602   0.446   1.869
 6847TIP3   OH242099   0.186   0.405   2.165
 6847TIP3    H142100   0.187   0.489   2.117
 6847TIP3    H242101   0.101   0.432   2.209
 6848TIP3   OH242102   1.255   0.419   2.076
 6848TIP3    H142103   1.161   0.431   2.057
 6848TIP3    H242104   1.291   0.503   2.105
 6849TIP3   OH242105   1.393   1.305   2.034
 6849TIP3    H142106   1.427   1.268   2.116
 6849TIP3    H242107   1.298   1.294   2.043
 6850TIP3   OH242108   1.839   1.750   2.061
 6850TIP3    H142109   1.910   1.811   2.039
 6850TIP3    H242110   1.767   1.808   2.087
 6851TIP3   OH242111   0.799   1.417   1.880
 6851TIP3    H142112   0.816   1.339   1.824
 6851TIP3    H242113   0.771   1.376   1.963
 6852TIP3   OH242114   0.698   1.641   2.181
 6852TIP3    H142115   0.718   1.726   2.139
 6852TIP3    H242116   0.689   1.672   2.272
 6853TIP3   OH242117   0.229   0.630   1.959
 6853TIP3    H142118   0.224   0.712   2.008
 6853TIP3    H242119   0.137   0.600   1.959
 6854TIP3   OH242120   1.004   1.605   1.893
 6854TIP3    H142121   0.938   1.539   1.923
 6854TIP3    H242122   1.079   1.548   1.874
 6855TIP3   OH242123   1.459   1.579   1.915
 6855TIP3    H142124   1.494   1.503   1.965
 6855TIP3    H242125   1.535   1.604   1.860
 6856TIP3   OH242126   1.095   1.283   1.877
 6856TIP3    H142127   1.061   1.295   1.966
 6856TIP3    H242128   1.076   1.188   1.862
 6857TIP3   OH242129   0.777   0.791   1.961
 6857TIP3    H142130   0.763   0.784   1.866
 6857TIP3    H242131   0.873   0.805   1.970
 6858TIP3   OH242132   1.720   1.028   1.901
 6858TIP3    H142133   1.691   0.992   1.816
 6858TIP3    H242134   1.722   1.125   1.887
 6859TIP3   OH242135   1.675   0.637   1.976
 6859TIP3    H142136   1.672   0.703   1.906
 6859TIP3    H242137   1.648   0.554   1.930
 6860TIP3   OH242138   1.594   0.383   1.892
 6860TIP3    H142139   1.654   0.340   1.956
 6860TIP3    H242140   1.509   0.338   1.909
 6861TIP3   OH242141   1.799   0.266   2.041
 6861TIP3    H142142   1.843   0.192   1.994
 6861TIP3    H242143   1.867   0.331   2.055
 6862TIP3   OH242144   0.164   0.066   2.129
 6862TIP3    H142145   0.208   0.144   2.098
 6862TIP3    H242146   0.107   0.109   2.198
 6863TIP3   OH242147   0.348   0.270   1.991
 6863TIP3    H142148   0.391   0.195   1.949
 6863TIP3    H242149   0.395   0.291   2.072
 6864TIP3   OH242150   2.954   0.787   2.012
 6864TIP3    H142151   3.012   0.776   2.086
 6864TIP3    H242152   2.976   0.710   1.956
 6865TIP3   OH242153   2.556   0.399   1.921
 6865TIP3    H142154   2.514   0.361   1.996
 6865TIP3    H242155   2.490   0.445   1.867
 6866TIP3   OH242156   3.705   0.628   2.210
 6866TIP3    H142157   3.651   0.587   2.139
 6866TIP3    H242158   3.710   0.719   2.178
 6867TIP3   OH242159   2.689   1.417   1.887
 6867TIP3    H142160   2.702   1.342   1.826
 6867TIP3    H242161   2.651   1.372   1.963
 6868TIP3   OH242162   2.278   1.365   2.062
 6868TIP3    H142163   2.345   1.426   2.094
 6868TIP3    H242164   2.330   1.310   1.999
 6869TIP3   OH242165   2.890   1.604   1.892
 6869TIP3    H142166   2.823   1.540   1.923
 6869TIP3    H242167   2.965   1.546   1.873
 6870TIP3   OH242168   2.440   1.178   1.898
 6870TIP3    H142169   2.449   1.099   1.955
 6870TIP3    H242170   2.513   1.160   1.836
 6871TIP3   OH242171   2.976   1.283   1.875
 6871TIP3    H142172   2.952   1.296   1.967
 6871TIP3    H242173   2.958   1.186   1.862
 6872TIP3   OH242174   2.006   1.331   2.008
 6872TIP3    H142175   2.100   1.337   2.036
 6872TIP3    H242176   2.010   1.259   1.942
 6873TIP3   OH242177   3.561   0.632   1.978
 6873TIP3    H142178   3.563   0.701   1.909
 6873TIP3    H242179   3.541   0.549   1.932
 6874TIP3   OH242180   2.067   0.107   2.169
 6874TIP3    H142181   2.082   0.151   2.085
 6874TIP3    H242182   1.979   0.133   2.196
 6875TIP3   OH242183   2.229   0.264   1.998
 6875TIP3    H142184   2.280   0.200   1.944
 6875TIP3    H242185   2.289   0.292   2.066
 6876TIP3   OH242186   2.204   1.754   1.943
 6876TIP3    H142187   2.188   1.777   2.035
 6876TIP3    H242188   2.287   1.702   1.958
 6877TIP3   OH242189   5.071   0.859   2.177
 6877TIP3    H142190   5.110   0.898   2.254
 6877TIP3    H242191   5.094   0.920   2.104
 6878TIP3   OH242192   5.209   0.962   1.951
 6878TIP3    H142193   5.199   0.953   1.853
 6878TIP3    H242194   5.278   1.029   1.962
 6879TIP3   OH242195   4.443   0.404   1.918
 6879TIP3    H142196   4.400   0.363   1.996
 6879TIP3    H242197   4.369   0.442   1.869
 6880TIP3   OH242198   3.899   0.450   2.168
 6880TIP3    H142199   3.948   0.508   2.108
 6880TIP3    H242200   3.827   0.506   2.200
 6881TIP3   OH242201   4.307   0.677   2.062
 6881TIP3    H142202   4.255   0.642   1.988
 6881TIP3    H242203   4.391   0.705   2.019
 6882TIP3   OH242204   5.608   1.747   2.056
 6882TIP3    H142205   5.680   1.808   2.042
 6882TIP3    H242206   5.538   1.807   2.089
 6883TIP3   OH242207   4.573   1.417   1.884
 6883TIP3    H142208   4.590   1.341   1.827
 6883TIP3    H242209   4.539   1.372   1.963
 6884TIP3   OH242210   4.473   1.647   2.197
 6884TIP3    H142211   4.482   1.727   2.146
 6884TIP3    H242212   4.450   1.677   2.286
 6885TIP3   OH242213   4.348   0.321   2.158
 6885TIP3    H142214   4.339   0.409   2.193
 6885TIP3    H242215   4.436   0.294   2.187
 6886TIP3   OH242216   4.167   1.358   2.062
 6886TIP3    H142217   4.227   1.425   2.097
 6886TIP3    H242218   4.221   1.313   1.996
 6887TIP3   OH242219   4.000   0.629   1.975
 6887TIP3    H142220   3.997   0.722   2.001
 6887TIP3    H242221   3.910   0.603   1.954
 6888TIP3   OH242222   4.776   1.604   1.894
 6888TIP3    H142223   4.707   1.540   1.921
 6888TIP3    H242224   4.850   1.545   1.872
 6889TIP3   OH242225   5.230   1.577   1.910
 6889TIP3    H142226   5.261   1.504   1.966
 6889TIP3    H242227   5.308   1.603   1.859
 6890TIP3   OH242228   4.319   1.170   1.897
 6890TIP3    H142229   4.340   1.098   1.959
 6890TIP3    H242230   4.397   1.162   1.838
 6891TIP3   OH242231   4.872   1.283   1.880
 6891TIP3    H142232   4.834   1.295   1.967
 6891TIP3    H242233   4.847   1.189   1.863
 6892TIP3   OH242234   4.544   0.795   1.959
 6892TIP3    H142235   4.532   0.785   1.863
 6892TIP3    H242236   4.640   0.803   1.968
 6893TIP3   OH242237   5.357   0.390   1.897
 6893TIP3    H142238   5.424   0.343   1.949
 6893TIP3    H242239   5.278   0.334   1.905
 6894TIP3   OH242240   4.128   0.289   1.971
 6894TIP3    H142241   4.159   0.200   1.948
 6894TIP3    H242242   4.163   0.289   2.063
 6895TIP3   OH242243   4.807   1.784   2.091
 6895TIP3    H142244   4.888   1.828   2.064
 6895TIP3    H242245   4.778   1.743   2.007
 6896TIP3   OH242246   7.085   0.971   1.948
 6896TIP3    H142247   7.087   0.949   1.853
 6896TIP3    H242248   7.168   1.015   1.962
 6897TIP3   OH242249   6.327   0.411   1.922
 6897TIP3    H142250   6.288   0.357   1.992
 6897TIP3    H242251   6.258   0.436   1.860
 6898TIP3   OH242252   5.854   0.905   2.030
 6898TIP3    H142253   5.914   0.972   2.066
 6898TIP3    H242254   5.768   0.938   2.057
 6899TIP3   OH242255   7.114   1.583   1.917
 6899TIP3    H142256   7.144   1.505   1.966
 6899TIP3    H242257   7.189   1.603   1.859
 6900TIP3   OH242258   6.202   1.161   1.890
 6900TIP3    H142259   6.227   1.096   1.956
 6900TIP3    H242260   6.285   1.164   1.838
 6901TIP3   OH242261   6.757   1.282   1.875
 6901TIP3    H142262   6.723   1.297   1.963
 6901TIP3    H242263   6.730   1.189   1.861
 6902TIP3   OH242264   7.243   0.370   1.885
 6902TIP3    H142265   7.304   0.346   1.956
 6902TIP3    H242266   7.161   0.336   1.919
 6903TIP3   OH242267   1.765   3.367   1.985
 6903TIP3    H142268   1.778   3.456   2.023
 6903TIP3    H242269   1.856   3.335   2.002
 6904TIP3   OH242270   0.123   2.336   2.163
 6904TIP3    H142271   0.177   2.398   2.111
 6904TIP3    H242272   0.055   2.390   2.207
 6905TIP3   OH242273   0.195   2.791   2.029
 6905TIP3    H142274   0.255   2.853   2.071
 6905TIP3    H242275   0.108   2.823   2.056
 6906TIP3   OH242276   1.838   3.637   2.047
 6906TIP3    H142277   1.914   3.696   2.046
 6906TIP3    H242278   1.769   3.688   2.095
 6907TIP3   OH242279   0.805   3.303   1.884
 6907TIP3    H142280   0.814   3.227   1.824
 6907TIP3    H242281   0.768   3.263   1.962
 6908TIP3   OH242282   0.389   3.256   2.052
 6908TIP3    H142283   0.451   3.313   2.102
 6908TIP3    H242284   0.447   3.206   1.996
 6909TIP3   OH242285   0.227   2.511   1.977
 6909TIP3    H142286   0.225   2.605   1.997
 6909TIP3    H242287   0.139   2.488   1.947
 6910TIP3   OH242288   1.458   3.468   1.911
 6910TIP3    H142289   1.493   3.397   1.966
 6910TIP3    H242290   1.538   3.492   1.861
 6911TIP3   OH242291   1.734   2.917   1.895
 6911TIP3    H142292   1.687   2.877   1.821
 6911TIP3    H242293   1.717   3.012   1.888
 6912TIP3   OH242294   0.772   3.742   2.056
 6912TIP3    H142295   0.862   3.770   2.080
 6912TIP3    H242296   0.746   3.815   2.000
 6913TIP3   OH242297   0.123   3.209   2.015
 6913TIP3    H142298   0.216   3.225   2.038
 6913TIP3    H242299   0.129   3.145   1.943
 6914TIP3   OH242300   1.589   2.258   1.886
 6914TIP3    H142301   1.651   2.229   1.954
 6914TIP3    H242302   1.506   2.221   1.915
 6915TIP3   OH242303   1.802   2.149   2.051
 6915TIP3    H142304   1.839   2.081   1.992
 6915TIP3    H242305   1.865   2.222   2.050
 6916TIP3   OH242306   0.351   2.159   1.991
 6916TIP3    H142307   0.393   2.082   1.950
 6916TIP3    H242308   0.403   2.175   2.070
 6917TIP3   OH242309   2.943   2.667   2.013
 6917TIP3    H142310   3.010   2.671   2.083
 6917TIP3    H242311   2.982   2.600   1.956
 6918TIP3   OH242312   3.167   2.764   2.183
 6918TIP3    H142313   3.232   2.760   2.254
 6918TIP3    H242314   3.214   2.800   2.105
 6919TIP3   OH242315   3.533   1.924   2.159
 6919TIP3    H142316   3.449   1.943   2.200
 6919TIP3    H242317   3.562   2.009   2.125
 6920TIP3   OH242318   3.655   3.367   1.990
 6920TIP3    H142319   3.664   3.459   2.018
 6920TIP3    H242320   3.746   3.333   2.001
 6921TIP3   OH242321   3.311   2.865   1.948
 6921TIP3    H142322   3.317   2.838   1.854
 6921TIP3    H242323   3.402   2.897   1.963
 6922TIP3   OH242324   2.874   2.245   2.008
 6922TIP3    H142325   2.846   2.245   2.099
 6922TIP3    H242326   2.840   2.158   1.977
 6923TIP3   OH242327   2.558   2.286   1.920
 6923TIP3    H142328   2.514   2.246   1.995
 6923TIP3    H242329   2.488   2.332   1.870
 6924TIP3   OH242330   3.140   2.302   2.072
 6924TIP3    H142331   3.046   2.320   2.056
 6924TIP3    H242332   3.175   2.385   2.106
 6925TIP3   OH242333   2.690   3.303   1.885
 6925TIP3    H142334   2.702   3.228   1.823
 6925TIP3    H242335   2.650   3.258   1.960
 6926TIP3   OH242336   2.278   3.247   2.060
 6926TIP3    H142337   2.343   3.309   2.096
 6926TIP3    H242338   2.333   3.199   1.998
 6927TIP3   OH242339   2.981   3.167   1.878
 6927TIP3    H142340   2.951   3.178   1.967
 6927TIP3    H242341   2.959   3.073   1.860
 6928TIP3   OH242342   2.662   2.676   1.959
 6928TIP3    H142343   2.647   2.673   1.863
 6928TIP3    H242344   2.758   2.690   1.966
 6929TIP3   OH242345   2.008   3.221   2.002
 6929TIP3    H142346   2.099   3.222   2.036
 6929TIP3    H242347   2.010   3.144   1.942
 6930TIP3   OH242348   2.206   3.640   1.946
 6930TIP3    H142349   2.189   3.674   2.035
 6930TIP3    H242350   2.291   3.593   1.962
 6931TIP3   OH242351   5.421   1.928   2.159
 6931TIP3    H142352   5.332   1.946   2.193
 6931TIP3    H242353   5.450   2.014   2.123
 6932TIP3   OH242354   5.535   3.369   1.993
 6932TIP3    H142355   5.557   3.461   2.014
 6932TIP3    H242356   5.627   3.333   1.998
 6933TIP3   OH242357   5.197   2.858   1.948
 6933TIP3    H142358   5.203   2.834   1.853
 6933TIP3    H242359   5.286   2.898   1.960
 6934TIP3   OH242360   4.310   2.573   2.060
 6934TIP3    H142361   4.257   2.526   1.994
 6934TIP3    H242362   4.390   2.583   2.010
 6935TIP3   OH242363   4.852   3.173   2.145
 6935TIP3    H142364   4.826   3.252   2.194
 6935TIP3    H242365   4.789   3.108   2.177
 6936TIP3   OH242366   3.964   2.793   2.026
 6936TIP3    H142367   4.026   2.853   2.071
 6936TIP3    H242368   3.877   2.824   2.058
 6937TIP3   OH242369   5.161   3.193   2.035
 6937TIP3    H142370   5.190   3.156   2.119
 6937TIP3    H242371   5.065   3.180   2.048
 6938TIP3   OH242372   4.453   3.257   2.130
 6938TIP3    H142373   4.482   3.203   2.205
 6938TIP3    H242374   4.469   3.348   2.157
 6939TIP3   OH242375   4.165   3.246   2.062
 6939TIP3    H142376   4.230   3.308   2.094
 6939TIP3    H242377   4.219   3.197   1.997
 6940TIP3   OH242378   4.320   3.059   1.899
 6940TIP3    H142379   4.337   2.985   1.958
 6940TIP3    H242380   4.396   3.049   1.838
 6941TIP3   OH242381   4.444   2.857   2.136
 6941TIP3    H142382   4.395   2.807   2.202
 6941TIP3    H242383   4.466   2.791   2.071
 6942TIP3   OH242384   5.476   2.917   1.905
 6942TIP3    H142385   5.467   2.876   1.818
 6942TIP3    H242386   5.495   3.010   1.884
 6943TIP3   OH242387   3.896   3.222   2.004
 6943TIP3    H142388   3.989   3.220   2.035
 6943TIP3    H242389   3.894   3.145   1.943
 6944TIP3   OH242390   5.434   2.520   1.976
 6944TIP3    H142391   5.451   2.588   1.910
 6944TIP3    H242392   5.422   2.437   1.928
 6945TIP3   OH242393   5.362   2.259   1.884
 6945TIP3    H142394   5.424   2.231   1.956
 6945TIP3    H242395   5.278   2.224   1.915
 6946TIP3   OH242396   5.568   2.151   2.041
 6946TIP3    H142397   5.616   2.079   1.996
 6946TIP3    H242398   5.637   2.218   2.057
 6947TIP3   OH242399   4.102   3.648   1.945
 6947TIP3    H142400   4.069   3.667   2.033
 6947TIP3    H242401   4.176   3.586   1.960
 6948TIP3   OH242402   6.933   2.759   2.183
 6948TIP3    H142403   6.995   2.771   2.253
 6948TIP3    H242404   6.974   2.799   2.104
 6949TIP3   OH242405   7.092   2.852   1.954
 6949TIP3    H142406   7.085   2.834   1.857
 6949TIP3    H242407   7.171   2.905   1.955
 6950TIP3   OH242408   6.330   2.284   1.920
 6950TIP3    H142409   6.286   2.248   1.997
 6950TIP3    H242410   6.260   2.331   1.872
 6951TIP3   OH242411   7.051   3.191   2.034
 6951TIP3    H142412   7.081   3.154   2.117
 6951TIP3    H242413   6.955   3.183   2.043
 6952TIP3   OH242414   7.118   3.468   1.915
 6952TIP3    H142415   7.146   3.390   1.966
 6952TIP3    H242416   7.194   3.486   1.859
 6953TIP3   OH242417   6.210   3.061   1.890
 6953TIP3    H142418   6.221   2.991   1.957
 6953TIP3    H242419   6.287   3.046   1.834
 6954TIP3   OH242420   6.756   3.167   1.879
 6954TIP3    H142421   6.717   3.180   1.966
 6954TIP3    H242422   6.730   3.074   1.861
 6955TIP3   OH242423   5.780   3.218   2.004
 6955TIP3    H142424   5.872   3.221   2.037
 6955TIP3    H242425   5.783   3.140   1.944
 6956TIP3   OH242426   7.250   2.262   1.889
 6956TIP3    H142427   7.309   2.226   1.956
 6956TIP3    H242428   7.165   2.222   1.910
 6957TIP3   OH242429   5.999   3.652   1.944
 6957TIP3    H142430   5.949   3.671   2.027
 6957TIP3    H242431   6.055   3.580   1.971
 6958TIP3   OH242432   1.653   3.819   2.158
 6958TIP3    H142433   1.563   3.824   2.193
 6958TIP3    H242434   1.671   3.903   2.120
 6959TIP3   OH242435   1.315   5.526   2.064
 6959TIP3    H142436   1.349   5.447   2.021
 6959TIP3    H242437   1.311   5.499   2.157
 6960TIP3   OH242438   0.119   4.220   2.163
 6960TIP3    H142439   0.177   4.280   2.112
 6960TIP3    H242440   0.053   4.280   2.202
 6961TIP3   OH242441   0.196   4.678   2.027
 6961TIP3    H142442   0.253   4.738   2.076
 6961TIP3    H242443   0.107   4.705   2.056
 6962TIP3   OH242444   0.803   5.189   1.885
 6962TIP3    H142445   0.819   5.114   1.825
 6962TIP3    H242446   0.771   5.146   1.965
 6963TIP3   OH242447   0.966   5.310   2.197
 6963TIP3    H142448   0.884   5.362   2.209
 6963TIP3    H242449   1.017   5.369   2.140
 6964TIP3   OH242450   0.229   4.396   1.977
 6964TIP3    H142451   0.223   4.490   1.999
 6964TIP3    H242452   0.139   4.377   1.948
 6965TIP3   OH242453   1.007   5.376   1.895
 6965TIP3    H142454   0.937   5.311   1.921
 6965TIP3    H242455   1.078   5.316   1.869
 6966TIP3   OH242456   1.087   5.058   1.867
 6966TIP3    H142457   1.064   5.070   1.958
 6966TIP3    H242458   1.076   4.960   1.857
 6967TIP3   OH242459   0.762   5.642   2.066
 6967TIP3    H142460   0.859   5.647   2.078
 6967TIP3    H242461   0.751   5.701   1.991
 6968TIP3   OH242462   0.121   5.100   2.007
 6968TIP3    H142463   0.210   5.111   2.038
 6968TIP3    H242464   0.124   5.030   1.941
 6969TIP3   OH242465   1.034   5.559   2.087
 6969TIP3    H142466   1.121   5.595   2.064
 6969TIP3    H242467   1.007   5.514   2.005
 6970TIP3   OH242468   3.176   4.635   2.175
 6970TIP3    H142469   3.223   4.659   2.253
 6970TIP3    H242470   3.211   4.691   2.104
 6971TIP3   OH242471   3.204   5.526   2.066
 6971TIP3    H142472   3.234   5.447   2.022
 6971TIP3    H242473   3.193   5.501   2.159
 6972TIP3   OH242474   3.318   4.744   1.951
 6972TIP3    H142475   3.316   4.722   1.854
 6972TIP3    H242476   3.406   4.783   1.957
 6973TIP3   OH242477   2.418   4.449   2.056
 6973TIP3    H142478   2.372   4.418   1.978
 6973TIP3    H242479   2.500   4.476   2.016
 6974TIP3   OH242480   2.690   5.192   1.880
 6974TIP3    H142481   2.701   5.113   1.827
 6974TIP3    H242482   2.653   5.151   1.962
 6975TIP3   OH242483   2.579   5.144   2.124
 6975TIP3    H142484   2.591   5.089   2.204
 6975TIP3    H242485   2.578   5.232   2.161
 6976TIP3   OH242486   2.852   5.317   2.199
 6976TIP3    H142487   2.770   5.367   2.205
 6976TIP3    H242488   2.904   5.368   2.137
 6977TIP3   OH242489   2.891   5.377   1.893
 6977TIP3    H142490   2.822   5.313   1.921
 6977TIP3    H242491   2.963   5.318   1.871
 6978TIP3   OH242492   2.433   4.944   1.892
 6978TIP3    H142493   2.446   4.872   1.957
 6978TIP3    H242494   2.512   4.934   1.837
 6979TIP3   OH242495   2.981   5.054   1.877
 6979TIP3    H142496   2.954   5.064   1.969
 6979TIP3    H242497   2.958   4.959   1.863
 6980TIP3   OH242498   3.598   4.803   1.903
 6980TIP3    H142499   3.579   4.760   1.818
 6980TIP3    H242500   3.610   4.896   1.877
 6981TIP3   OH242501   2.651   5.640   2.066
 6981TIP3    H142502   2.747   5.648   2.075
 6981TIP3    H242503   2.634   5.698   1.992
 6982TIP3   OH242504   3.689   4.033   2.043
 6982TIP3    H142505   3.728   3.960   1.993
 6982TIP3    H242506   3.752   4.105   2.049
 6983TIP3   OH242507   2.043   3.841   2.151
 6983TIP3    H142508   2.091   3.902   2.097
 6983TIP3    H242509   1.981   3.893   2.202
 6984TIP3   OH242510   4.827   4.547   2.016
 6984TIP3    H142511   4.897   4.549   2.081
 6984TIP3    H242512   4.864   4.483   1.954
 6985TIP3   OH242513   5.202   4.746   1.950
 6985TIP3    H142514   5.199   4.725   1.854
 6985TIP3    H242515   5.288   4.788   1.959
 6986TIP3   OH242516   4.750   4.134   2.002
 6986TIP3    H142517   4.738   4.134   2.098
 6986TIP3    H242518   4.729   4.042   1.981
 6987TIP3   OH242519   4.443   4.173   1.917
 6987TIP3    H142520   4.405   4.134   1.996
 6987TIP3    H242521   4.371   4.218   1.871
 6988TIP3   OH242522   4.311   4.447   2.059
 6988TIP3    H142523   4.258   4.416   1.985
 6988TIP3    H242524   4.392   4.475   2.015
 6989TIP3   OH242525   5.591   4.395   2.205
 6989TIP3    H142526   5.534   4.356   2.136
 6989TIP3    H242527   5.594   4.487   2.179
 6990TIP3   OH242528   3.966   4.680   2.030
 6990TIP3    H142529   4.029   4.741   2.071
 6990TIP3    H242530   3.877   4.705   2.052
 6991TIP3   OH242531   4.565   5.192   1.877
 6991TIP3    H142532   4.591   5.112   1.829
 6991TIP3    H242533   4.546   5.149   1.963
 6992TIP3   OH242534   4.473   5.418   2.201
 6992TIP3    H142535   4.485   5.496   2.147
 6992TIP3    H242536   4.455   5.450   2.290
 6993TIP3   OH242537   4.326   4.941   1.897
 6993TIP3    H142538   4.339   4.869   1.960
 6993TIP3    H242539   4.401   4.931   1.836
 6994TIP3   OH242540   4.442   4.740   2.132
 6994TIP3    H142541   4.400   4.689   2.201
 6994TIP3    H242542   4.473   4.672   2.070
 6995TIP3   OH242543   4.549   4.563   1.959
 6995TIP3    H142544   4.537   4.558   1.863
 6995TIP3    H242545   4.646   4.574   1.969
 6996TIP3   OH242546   5.448   4.411   1.977
 6996TIP3    H142547   5.443   4.474   1.904
 6996TIP3    H242548   5.418   4.328   1.936
 6997TIP3   OH242549   5.571   4.043   2.043
 6997TIP3    H142550   5.609   3.963   2.002
 6997TIP3    H242551   5.646   4.100   2.054
 6998TIP3   OH242552   4.114   4.036   2.002
 6998TIP3    H142553   4.161   3.972   1.946
 6998TIP3    H242554   4.179   4.065   2.066
 6999TIP3   OH242555   6.714   4.553   2.014
 6999TIP3    H142556   6.783   4.556   2.084
 6999TIP3    H242557   6.749   4.483   1.958
 7000TIP3   OH242558   6.921   4.653   2.170
 7000TIP3    H142559   6.989   4.652   2.243
 7000TIP3    H242560   6.977   4.691   2.101
 7001TIP3   OH242561   7.089   4.739   1.953
 7001TIP3    H142562   7.086   4.721   1.857
 7001TIP3    H242563   7.170   4.789   1.961
 7002TIP3   OH242564   6.329   4.172   1.917
 7002TIP3    H142565   6.290   4.135   1.997
 7002TIP3    H242566   6.258   4.216   1.870
 7003TIP3   OH242567   6.189   4.453   2.055
 7003TIP3    H142568   6.146   4.410   1.982
 7003TIP3    H242569   6.277   4.474   2.019
 7004TIP3   OH242570   7.001   4.353   2.185
 7004TIP3    H142571   7.061   4.358   2.262
 7004TIP3    H242572   6.985   4.450   2.182
 7005TIP3   OH242573   6.462   5.190   1.886
 7005TIP3    H142574   6.472   5.114   1.825
 7005TIP3    H242575   6.424   5.146   1.963
 7006TIP3   OH242576   6.665   5.374   1.901
 7006TIP3    H142577   6.591   5.311   1.921
 7006TIP3    H242578   6.732   5.313   1.869
 7007TIP3   OH242579   6.211   4.947   1.902
 7007TIP3    H142580   6.223   4.868   1.958
 7007TIP3    H242581   6.283   4.934   1.837
 7008TIP3   OH242582   6.756   5.055   1.880
 7008TIP3    H142583   6.718   5.065   1.967
 7008TIP3    H242584   6.732   4.960   1.863
 7009TIP3   OH242585   6.432   4.565   1.958
 7009TIP3    H142586   6.421   4.558   1.863
 7009TIP3    H242587   6.529   4.573   1.969
 7010TIP3   OH242588   6.420   5.638   2.057
 7010TIP3    H142589   6.515   5.645   2.076
 7010TIP3    H242590   6.407   5.705   1.990
 7011TIP3   OH242591   7.246   4.144   1.889
 7011TIP3    H142592   7.308   4.117   1.958
 7011TIP3    H242593   7.162   4.107   1.913
 7012TIP3   OH242594   6.006   4.041   1.995
 7012TIP3    H142595   6.052   3.969   1.949
 7012TIP3    H242596   6.060   4.063   2.071
 7013TIP3   OH242597   6.690   5.567   2.087
 7013TIP3    H142598   6.776   5.594   2.062
 7013TIP3    H242599   6.662   5.512   2.010
 7014TIP3   OH242600   1.773   7.133   1.996
 7014TIP3    H142601   1.781   7.228   2.014
 7014TIP3    H242602   1.866   7.108   2.002
 7015TIP3   OH242603   1.425   6.632   1.945
 7015TIP3    H142604   1.427   6.608   1.850
 7015TIP3    H242605   1.508   6.678   1.957
 7016TIP3   OH242606   0.674   6.054   1.914
 7016TIP3    H142607   0.634   6.023   1.996
 7016TIP3    H242608   0.602   6.103   1.871
 7017TIP3   OH242609   1.262   6.079   2.072
 7017TIP3    H142610   1.166   6.089   2.064
 7017TIP3    H242611   1.288   6.165   2.107
 7018TIP3   OH242612   1.391   6.958   2.032
 7018TIP3    H142613   1.426   6.927   2.116
 7018TIP3    H242614   1.297   6.957   2.047
 7019TIP3   OH242615   0.811   7.071   1.887
 7019TIP3    H142616   0.808   7.000   1.822
 7019TIP3    H242617   0.764   7.033   1.962
 7020TIP3   OH242618   0.972   7.193   2.202
 7020TIP3    H142619   0.890   7.247   2.208
 7020TIP3    H242620   1.019   7.247   2.137
 7021TIP3   OH242621   0.764   0.039   2.199
 7021TIP3    H142622   0.713   0.092   2.138
 7021TIP3    H242623   0.706   0.042   2.279
 7022TIP3   OH242624   0.392   7.019   2.057
 7022TIP3    H142625   0.455   7.081   2.099
 7022TIP3    H242626   0.448   6.968   1.996
 7023TIP3   OH242627   1.009   7.254   1.908
 7023TIP3    H142628   0.935   7.193   1.921
 7023TIP3    H242629   1.080   7.205   1.867
 7024TIP3   OH242630   0.567   6.837   1.907
 7024TIP3    H142631   0.558   6.752   1.956
 7024TIP3    H242632   0.621   6.814   1.831
 7025TIP3   OH242633   0.120   6.986   2.011
 7025TIP3    H142634   0.213   6.996   2.038
 7025TIP3    H242635   0.128   6.917   1.944
 7026TIP3   OH242636   1.591   6.038   1.895
 7026TIP3    H142637   1.653   5.993   1.953
 7026TIP3    H242638   1.506   5.993   1.908
 7027TIP3   OH242639   3.658   7.135   2.003
 7027TIP3    H142640   3.670   7.231   2.011
 7027TIP3    H242641   3.750   7.106   2.001
 7028TIP3   OH242642   3.320   6.622   1.955
 7028TIP3    H142643   3.312   6.609   1.857
 7028TIP3    H242644   3.396   6.680   1.952
 7029TIP3   OH242645   2.559   6.061   1.922
 7029TIP3    H142646   2.511   6.017   1.995
 7029TIP3    H242647   2.486   6.100   1.871
 7030TIP3   OH242648   2.012   6.107   2.171
 7030TIP3    H142649   2.060   6.165   2.108
 7030TIP3    H242650   1.942   6.163   2.204
 7031TIP3   OH242651   2.422   6.329   2.057
 7031TIP3    H142652   2.367   6.300   1.984
 7031TIP3    H242653   2.503   6.360   2.016
 7032TIP3   OH242654   2.078   6.561   2.029
 7032TIP3    H142655   2.145   6.622   2.071
 7032TIP3    H242656   1.996   6.603   2.056
 7033TIP3   OH242657   2.684   7.077   1.878
 7033TIP3    H142658   2.706   6.998   1.828
 7033TIP3    H242659   2.656   7.037   1.963
 7034TIP3   OH242660   2.570   7.026   2.130
 7034TIP3    H142661   2.594   6.973   2.208
 7034TIP3    H242662   2.580   7.119   2.158
 7035TIP3   OH242663   2.214   6.755   2.171
 7035TIP3    H142664   2.155   6.794   2.235
 7035TIP3    H242665   2.274   6.829   2.150
 7036TIP3   OH242666   2.571  -0.010   2.203
 7036TIP3    H142667   2.604   0.064   2.147
 7036TIP3    H242668   2.570   0.026   2.291
 7037TIP3   OH242669   2.453   5.973   2.163
 7037TIP3    H142670   2.448   6.065   2.196
 7037TIP3    H242671   2.544   5.949   2.185
 7038TIP3   OH242672   2.282   7.015   2.065
 7038TIP3    H142673   2.346   7.082   2.093
 7038TIP3    H242674   2.332   6.970   1.996
 7039TIP3   OH242675   2.114   6.285   1.984
 7039TIP3    H142676   2.115   6.382   1.999
 7039TIP3    H242677   2.029   6.261   1.948
 7040TIP3   OH242678   3.370   7.235   1.918
 7040TIP3    H142679   3.390   7.150   1.956
 7040TIP3    H242680   3.439   7.257   1.853
 7041TIP3   OH242681   2.435   6.828   1.897
 7041TIP3    H142682   2.451   6.753   1.957
 7041TIP3    H242683   2.511   6.818   1.837
 7042TIP3   OH242684   2.990   6.934   1.876
 7042TIP3    H142685   2.949   6.959   1.962
 7042TIP3    H242686   2.957   6.843   1.865
 7043TIP3   OH242687   2.551   6.631   2.133
 7043TIP3    H142688   2.510   6.577   2.204
 7043TIP3    H242689   2.583   6.560   2.075
 7044TIP3   OH242690   2.664   6.449   1.961
 7044TIP3    H142691   2.645   6.444   1.866
 7044TIP3    H242692   2.758   6.464   1.963
 7045TIP3   OH242693   3.475   6.040   1.893
 7045TIP3    H142694   3.536   5.998   1.955
 7045TIP3    H242695   3.392   5.994   1.909
 7046TIP3   OH242696   2.231   5.928   2.001
 7046TIP3    H142697   2.272   5.858   1.947
 7046TIP3    H242698   2.297   5.949   2.069
 7047TIP3   OH242699   5.545   7.133   1.997
 7047TIP3    H142700   5.552   7.229   2.013
 7047TIP3    H242701   5.636   7.108   2.001
 7048TIP3   OH242702   4.450   6.061   1.922
 7048TIP3    H142703   4.398   6.021   1.994
 7048TIP3    H242704   4.378   6.101   1.869
 7049TIP3   OH242705   4.311   6.326   2.060
 7049TIP3    H142706   4.252   6.305   1.986
 7049TIP3    H242707   4.387   6.366   2.013
 7050TIP3   OH242708   4.576   7.073   1.883
 7050TIP3    H142709   4.586   6.995   1.827
 7050TIP3    H242710   4.539   7.031   1.963
 7051TIP3   OH242711   4.108   6.755   2.181
 7051TIP3    H142712   4.035   6.792   2.233
 7051TIP3    H242713   4.155   6.833   2.149
 7052TIP3   OH242714   4.736   7.193   2.200
 7052TIP3    H142715   4.653   7.246   2.206
 7052TIP3    H242716   4.788   7.245   2.139
 7053TIP3   OH242717   4.483  -0.004   2.204
 7053TIP3    H142718   4.479   0.074   2.147
 7053TIP3    H242719   4.442   0.029   2.285
 7054TIP3   OH242720   4.346   5.972   2.157
 7054TIP3    H142721   4.330   6.060   2.198
 7054TIP3    H242722   4.431   5.951   2.195
 7055TIP3   OH242723   4.171   7.013   2.066
 7055TIP3    H142724   4.225   7.087   2.094
 7055TIP3    H242725   4.219   6.971   1.992
 7056TIP3   OH242726   4.779   7.255   1.903
 7056TIP3    H142727   4.706   7.194   1.922
 7056TIP3    H242728   4.850   7.200   1.871
 7057TIP3   OH242729   4.330   6.833   1.905
 7057TIP3    H142730   4.333   6.750   1.957
 7057TIP3    H242731   4.396   6.815   1.835
 7058TIP3   OH242732   4.872   6.940   1.878
 7058TIP3    H142733   4.834   6.955   1.965
 7058TIP3    H242734   4.844   6.847   1.860
 7059TIP3   OH242735   4.551   6.447   1.960
 7059TIP3    H142736   4.531   6.442   1.865
 7059TIP3    H242737   4.645   6.464   1.960
 7060TIP3   OH242738   5.489   6.687   1.906
 7060TIP3    H142739   5.462   6.649   1.821
 7060TIP3    H242740   5.494   6.782   1.883
 7061TIP3   OH242741   5.606   6.570   2.124
 7061TIP3    H142742   5.549   6.604   2.052
 7061TIP3    H242743   5.594   6.636   2.194
 7062TIP3   OH242744   5.439   6.294   1.976
 7062TIP3    H142745   5.448   6.361   1.908
 7062TIP3    H242746   5.422   6.212   1.927
 7063TIP3   OH242747   5.364   6.034   1.887
 7063TIP3    H142748   5.424   5.998   1.954
 7063TIP3    H242749   5.277   5.996   1.907
 7064TIP3   OH242750   5.570   5.927   2.046
 7064TIP3    H142751   5.612   5.851   1.999
 7064TIP3    H242752   5.639   5.992   2.052
 7065TIP3   OH242753   7.086   6.630   1.950
 7065TIP3    H142754   7.082   6.610   1.853
 7065TIP3    H242755   7.170   6.677   1.954
 7066TIP3   OH242756   6.649   6.013   2.011
 7066TIP3    H142757   6.615   6.018   2.101
 7066TIP3    H242758   6.612   5.930   1.977
 7067TIP3   OH242759   6.331   6.055   1.919
 7067TIP3    H142760   6.285   6.017   1.994
 7067TIP3    H242761   6.262   6.102   1.869
 7068TIP3   OH242762   6.918   6.075   2.068
 7068TIP3    H142763   6.821   6.085   2.057
 7068TIP3    H242764   6.938   6.157   2.111
 7069TIP3   OH242765   6.962   6.248   2.293
 7069TIP3    H142766   7.059   6.232   2.284
 7069TIP3    H242767   6.951   6.306   2.218
 7070TIP3   OH242768   5.855   6.569   2.026
 7070TIP3    H142769   5.914   6.631   2.071
 7070TIP3    H242770   5.765   6.595   2.056
 7071TIP3   OH242771   7.047   6.953   2.032
 7071TIP3    H142772   7.080   6.929   2.119
 7071TIP3    H242773   6.952   6.955   2.044
 7072TIP3   OH242774   6.463   7.068   1.884
 7072TIP3    H142775   6.471   6.991   1.824
 7072TIP3    H242776   6.423   7.024   1.961
 7073TIP3   OH242777   5.997   6.753   2.179
 7073TIP3    H142778   5.927   6.796   2.229
 7073TIP3    H242779   6.045   6.832   2.150
 7074TIP3   OH242780   6.050   7.021   2.061
 7074TIP3    H142781   6.117   7.081   2.095
 7074TIP3    H242782   6.101   6.970   1.996
 7075TIP3   OH242783   6.665   7.253   1.899
 7075TIP3    H142784   6.593   7.192   1.922
 7075TIP3    H242785   6.740   7.204   1.872
 7076TIP3   OH242786   7.131   7.226   1.923
 7076TIP3    H142787   7.161   7.151   1.975
 7076TIP3    H242788   7.206   7.253   1.868
 7077TIP3   OH242789   6.213   6.834   1.907
 7077TIP3    H142790   6.221   6.751   1.957
 7077TIP3    H242791   6.282   6.818   1.839
 7078TIP3   OH242792   7.250   6.031   1.891
 7078TIP3    H142793   7.306   5.999   1.961
 7078TIP3    H242794   7.161   5.996   1.909
   7.30356   7.30356   8.50000   0.00000   0.00000   0.00000   0.00000   0.00000   0.00000
